Title
55513
    1DOPE     N    1   2.008   3.664   6.465  0.0817  0.2502  0.6403
    1DOPE   HN1    2   2.031   3.563   6.467  1.9048  0.6255  2.2206
    1DOPE   HN2    3   1.907   3.679   6.446  0.1293  0.4399  0.5341
    1DOPE   HN3    4   2.062   3.713   6.391 -0.8166  1.0700  0.4910
    1DOPE   C12    5   2.025   3.724   6.601  0.3638 -0.2807 -0.7101
    1DOPE  H12A    6   2.126   3.703   6.641  0.4104  0.3428 -0.4809
    1DOPE  H12B    7   1.954   3.671   6.668 -1.3532  1.6173 -0.9231
    1DOPE   C11    8   1.986   3.876   6.599  0.6668 -0.0478 -0.2193
    1DOPE  H11A    9   2.066   3.929   6.544  0.6096  0.8536  0.5425
    1DOPE  H11B   10   1.992   3.902   6.707 -1.0067 -0.5541  0.0227
    1DOPE     P   11   1.793   4.037   6.549  0.0277 -0.1519  0.6372
    1DOPE   O13   12   1.828   4.114   6.671 -0.4500  0.4675  0.5408
    1DOPE   O14   13   1.660   4.045   6.493 -0.0815 -0.0677 -0.2218
    1DOPE   O11   14   1.886   4.102   6.435  0.4335  0.7642  0.2434
    1DOPE   O12   15   1.854   3.889   6.549 -0.6854  0.1105  0.3614
    1DOPE    C1   16   1.900   4.038   6.303  0.0112 -0.3219  0.4889
    1DOPE    HA   17   1.897   3.927   6.305 -0.2379 -0.3228  0.1409
    1DOPE    HB   18   2.010   4.043   6.289 -0.2471  2.7965 -1.1547
    1DOPE    C2   19   1.845   4.110   6.183  0.0885  0.0322  1.0633
    1DOPE    HS   20   1.904   4.079   6.095 -0.0279  0.4603  0.8333
    1DOPE   O21   21   1.850   4.251   6.198  0.1240  0.7589  0.1716
    1DOPE   C21   22   1.973   4.309   6.191 -0.0069  0.2578  0.3489
    1DOPE   O22   23   2.079   4.252   6.175  0.1939  0.5071 -0.3990
    1DOPE   C22   24   1.951   4.456   6.190 -0.0884 -0.1145  0.1816
    1DOPE   H2R   25   1.982   4.503   6.286  2.3155 -1.9930  0.4078
    1DOPE   H2S   26   1.844   4.477   6.167  0.2568  2.7308  0.7499
    1DOPE    C3   27   1.696   4.072   6.152  0.1930 -0.2259 -0.4710
    1DOPE    HX   28   1.629   4.103   6.235 -0.9128  2.9360 -2.3781
    1DOPE    HY   29   1.695   3.961   6.142  2.2544 -0.1065 -3.4081
    1DOPE   O31   30   1.658   4.131   6.025  0.4687 -0.0432  0.1147
    1DOPE   C31   31   1.568   4.227   6.035 -0.1779 -0.0317 -0.0972
    1DOPE   O32   32   1.518   4.269   6.140 -0.5276  0.4336 -0.1478
    1DOPE   C32   33   1.542   4.284   5.902 -0.0340 -0.1692  0.0581
    1DOPE   H2X   34   1.634   4.320   5.851  0.6940 -0.7052  0.9571
    1DOPE   H2Y   35   1.498   4.202   5.841  0.7594 -0.2610 -0.4034
    1DOPE   C23   36   2.041   4.524   6.086 -0.5744  0.1206  0.0870
    1DOPE   H3R   37   2.034   4.480   5.984  0.9429 -1.2527  0.5386
    1DOPE   H3S   38   2.147   4.523   6.119 -0.4103  3.4536 -0.0519
    1DOPE   C24   39   2.013   4.675   6.077  0.0720  0.1923  0.9438
    1DOPE   H4R   40   2.028   4.722   6.177 -0.8390  1.2073  0.6189
    1DOPE   H4S   41   1.907   4.697   6.052  0.6152 -0.4544 -2.4266
    1DOPE   C25   42   2.096   4.748   5.965 -0.3141 -0.2231  0.3873
    1DOPE   H5R   43   2.199   4.707   5.974  0.3204  1.5748  2.1944
    1DOPE   H5S   44   2.094   4.859   5.976 -2.4332  0.0734 -2.1039
    1DOPE   C26   45   2.046   4.707   5.820 -0.8058 -0.1280 -0.5706
    1DOPE   H6R   46   1.940   4.733   5.799 -0.3231  3.2821  0.4654
    1DOPE   H6S   47   2.042   4.597   5.812 -1.5685 -0.1393 -0.0682
    1DOPE   C27   48   2.137   4.766   5.706  0.2644 -0.2915 -0.7634
    1DOPE   H7R   49   2.242   4.738   5.733 -0.0707 -0.8616 -0.0061
    1DOPE   H7S   50   2.132   4.875   5.723 -1.0572 -0.8610  4.0097
    1DOPE   C28   51   2.098   4.727   5.565 -0.4685 -0.3564 -0.0150
    1DOPE   H8R   52   2.128   4.623   5.539  1.0900  1.0343 -4.8018
    1DOPE   H8S   53   2.164   4.788   5.500 -0.2686 -0.7536 -0.1864
    1DOPE   C29   54   1.951   4.762   5.542 -1.2060  0.6960  0.1934
    1DOPE   H9R   55   1.926   4.864   5.575 -1.5055  0.6300  0.1721
    1DOPE  C210   56   1.855   4.679   5.492  0.4728 -1.1455 -0.1132
    1DOPE  H10R   57   1.752   4.717   5.486  0.8021 -0.3113 -0.7860
    1DOPE  C211   58   1.875   4.536   5.446 -0.4355  0.2936 -0.0473
    1DOPE  H11R   59   1.833   4.469   5.524  1.7840  0.5123  1.4516
    1DOPE  H11S   60   1.979   4.496   5.452 -0.6932 -0.4051 -0.2571
    1DOPE  C212   61   1.807   4.512   5.306 -0.0773  0.2719 -0.3739
    1DOPE  H12R   62   1.697   4.526   5.313 -0.1815 -0.7885  0.2811
    1DOPE  H12S   63   1.823   4.406   5.278  0.6256  0.0659  0.7204
    1DOPE  C213   64   1.848   4.597   5.189 -0.0175 -0.7831  0.2625
    1DOPE  H13R   65   1.959   4.598   5.193 -0.0643  0.1077  2.4332
    1DOPE  H13S   66   1.818   4.703   5.202  1.4741 -0.1726 -0.9627
    1DOPE  C214   67   1.811   4.547   5.047  0.4190  1.1957  0.0260
    1DOPE  H14R   68   1.827   4.624   4.968  2.7543 -1.2883 -2.1366
    1DOPE  H14S   69   1.704   4.516   5.053  1.6555 -3.6234  1.4059
    1DOPE  C215   70   1.895   4.421   5.010  0.1930 -0.4778 -0.0041
    1DOPE  H15R   71   1.905   4.349   5.094 -1.7985 -2.0481 -1.0356
    1DOPE  H15S   72   1.999   4.446   4.981 -0.4806  1.7227 -0.7171
    1DOPE  C216   73   1.829   4.322   4.910  0.9509 -0.1957  0.4990
    1DOPE  H16R   74   1.730   4.289   4.947  0.1008  1.1626 -0.4823
    1DOPE  H16S   75   1.895   4.232   4.909 -1.0583 -1.7278  0.3150
    1DOPE  C217   76   1.830   4.394   4.771  0.2168  0.1945 -0.8687
    1DOPE  H17R   77   1.769   4.487   4.770 -0.5766 -0.3111 -2.3443
    1DOPE  H17S   78   1.767   4.330   4.704  1.9704 -3.8006  0.9950
    1DOPE  C218   79   1.956   4.418   4.700 -0.3033  0.1351 -0.0628
    1DOPE  H18R   80   2.011   4.327   4.669  1.3422  0.2706  2.1968
    1DOPE  H18S   81   2.031   4.478   4.756  1.2453 -1.7187 -0.0562
    1DOPE  H18T   82   1.928   4.472   4.607 -1.1977  0.0475  0.1454
    1DOPE   C33   83   1.451   4.410   5.909  1.1773  0.2810 -0.5997
    1DOPE   H3X   84   1.491   4.484   5.981 -1.7143  0.1723  1.3270
    1DOPE   H3Y   85   1.360   4.373   5.962  1.1881  0.8408 -0.1791
    1DOPE   C34   86   1.425   4.486   5.777  0.0265 -0.2035  0.9444
    1DOPE   H4X   87   1.358   4.569   5.808  2.0644  2.2800 -0.8935
    1DOPE   H4Y   88   1.525   4.526   5.750 -0.5803  0.1035 -1.0282
    1DOPE   C35   89   1.359   4.405   5.667  0.8685 -0.2337 -0.5591
    1DOPE   H5X   90   1.277   4.344   5.711  0.2607  1.3299  0.5887
    1DOPE   H5Y   91   1.443   4.337   5.645  1.9544  0.6811  0.6088
    1DOPE   C36   92   1.322   4.490   5.546 -0.1372 -0.4343 -0.0297
    1DOPE   H6X   93   1.230   4.546   5.572 -0.3530  0.0840 -1.8108
    1DOPE   H6Y   94   1.296   4.423   5.461  0.0995  0.5325 -0.8762
    1DOPE   C37   95   1.436   4.564   5.491  0.4950  0.1279  0.6637
    1DOPE   H7X   96   1.470   4.636   5.568  2.9147 -0.8136  0.5767
    1DOPE   H7Y   97   1.518   4.491   5.472  0.1340  0.1416 -1.1255
    1DOPE   C38   98   1.423   4.643   5.360  0.0208  0.3505 -0.3928
    1DOPE   H8X   99   1.397   4.564   5.286 -2.1008 -0.3960  1.0535
    1DOPE   H8Y  100   1.520   4.684   5.325  0.2807 -0.9977 -1.3625
    1DOPE   C39  101   1.306   4.740   5.359 -0.1433 -0.5938  0.6190
    1DOPE   H9X  102   1.208   4.693   5.343  0.1366 -0.6142 -1.4131
    1DOPE  C310  103   1.316   4.874   5.370  0.5072 -0.2148 -0.6284
    1DOPE  H10X  104   1.222   4.925   5.395 -0.6316 -2.4165 -0.1512
    1DOPE  C311  105   1.449   4.951   5.392  0.8697 -0.7245  0.4177
    1DOPE  H11X  106   1.428   5.023   5.474  1.4262  0.6811 -0.6402
    1DOPE  H11Y  107   1.542   4.897   5.421  1.6414 -0.2627 -1.0768
    1DOPE  C312  108   1.486   5.033   5.264  0.5338 -0.2972 -0.5851
    1DOPE  H12X  109   1.547   5.125   5.278 -0.0100  0.0124 -0.2035
    1DOPE  H12Y  110   1.389   5.075   5.229  0.1099  1.9274  2.7314
    1DOPE  C313  111   1.544   4.943   5.153 -0.4454  0.4305  0.0171
    1DOPE  H13X  112   1.654   4.933   5.161 -0.5792 -1.4026  0.0503
    1DOPE  H13Y  113   1.509   4.838   5.161  0.4339  0.0837 -0.5896
    1DOPE  C314  114   1.505   4.994   5.021  0.5979  0.2777  0.0616
    1DOPE  H14X  115   1.529   5.102   5.011  3.0850 -0.2289 -0.1290
    1DOPE  H14Y  116   1.394   4.997   5.027  0.3317 -3.7993  0.1081
    1DOPE  C315  117   1.558   4.911   4.905 -0.2128  0.2866 -0.4963
    1DOPE  H15X  118   1.516   4.939   4.806  0.5339 -1.2841 -1.2969
    1DOPE  H15Y  119   1.519   4.808   4.920  0.6711  0.1051  0.7167
    1DOPE  C316  120   1.715   4.917   4.888 -0.9325 -0.1140  0.7021
    1DOPE  H16X  121   1.767   4.875   4.976 -0.2663 -2.0083 -0.5268
    1DOPE  H16Y  122   1.750   5.022   4.874  1.2667 -0.8267  0.5576
    1DOPE  C317  123   1.763   4.845   4.763 -1.0798  0.0964 -0.0689
    1DOPE  H17X  124   1.728   4.739   4.759 -0.0918 -0.2087 -0.9544
    1DOPE  H17Y  125   1.707   4.900   4.685 -0.2495 -1.6044 -1.9538
    1DOPE  C318  126   1.918   4.863   4.742  0.7328 -1.0048 -0.4295
    1DOPE  H18X  127   1.988   4.815   4.813  2.0829 -0.2510 -1.2271
    1DOPE  H18Y  128   1.940   4.836   4.637 -1.4140  1.9159 -1.7666
    1DOPE  H18Z  129   1.927   4.973   4.741 -0.8671 -0.7981  1.4464
    2DOPE     N  130   3.193   4.759   6.885  0.8647 -0.3045 -0.5907
    2DOPE   HN1  131   3.143   4.847   6.907 -1.0320 -1.5126  0.1054
    2DOPE   HN2  132   3.260   4.777   6.807  1.3997  0.7713  0.0935
    2DOPE   HN3  133   3.116   4.700   6.848  2.3840 -1.9840 -1.2258
    2DOPE   C12  134   3.245   4.708   7.019 -0.1349  0.8210  0.3012
    2DOPE  H12A  135   3.150   4.711   7.076 -0.1425  0.7928  0.2907
    2DOPE  H12B  136   3.320   4.777   7.062  0.9472 -0.4609  0.5370
    2DOPE   C11  137   3.313   4.569   7.005  0.0086 -0.1972 -0.3622
    2DOPE  H11A  138   3.349   4.541   7.107 -1.3988 -3.9549 -0.7408
    2DOPE  H11B  139   3.403   4.571   6.939  0.4427 -0.1249  0.2231
    2DOPE     P  140   3.258   4.330   6.933  0.5098  0.5844  0.1519
    2DOPE   O13  141   3.138   4.254   6.879 -0.0113 -0.2058  0.0676
    2DOPE   O14  142   3.342   4.271   7.045  0.3152  0.1915  0.5912
    2DOPE   O11  143   3.352   4.364   6.814  0.4952 -0.2914 -0.6042
    2DOPE   O12  144   3.212   4.476   6.964 -0.0596 -0.3909  0.5905
    2DOPE    C1  145   3.303   4.447   6.705 -0.4792  0.2169  0.1733
    2DOPE    HA  146   3.380   4.523   6.679 -0.4798  0.7427  1.6460
    2DOPE    HB  147   3.214   4.510   6.722 -0.2126  0.6196  0.1035
    2DOPE    C2  148   3.277   4.363   6.581 -0.7536  0.3810 -0.2887
    2DOPE    HS  149   3.178   4.316   6.600  0.2776 -1.4369  0.9302
    2DOPE   O21  150   3.383   4.262   6.569 -0.1194  0.1612  0.2587
    2DOPE   C21  151   3.348   4.152   6.503 -0.0137  0.5442  0.1826
    2DOPE   O22  152   3.234   4.128   6.466  0.6946 -0.1404  0.0604
    2DOPE   C22  153   3.474   4.080   6.466  0.3739 -0.5029  0.4810
    2DOPE   H2R  154   3.535   4.078   6.559  0.8715  0.2935  0.1764
    2DOPE   H2S  155   3.537   4.142   6.399  1.4197 -1.2957  0.6923
    2DOPE    C3  156   3.269   4.451   6.458 -0.3475  0.1289 -0.1704
    2DOPE    HX  157   3.364   4.507   6.444  0.1946 -0.6121  0.4765
    2DOPE    HY  158   3.194   4.529   6.483  1.1730  1.2420  1.2141
    2DOPE   O31  159   3.241   4.377   6.337 -0.0862 -0.3602  0.7716
    2DOPE   C31  160   3.113   4.392   6.293  0.6222 -0.2704 -0.3344
    2DOPE   O32  161   3.020   4.454   6.350  0.2498 -0.2767  0.4803
    2DOPE   C32  162   3.099   4.302   6.171  0.1972  0.0345 -0.1169
    2DOPE   H2X  163   3.197   4.255   6.146  1.1156  0.6753  2.0615
    2DOPE   H2Y  164   3.028   4.224   6.207 -0.8616  0.7104 -0.6699
    2DOPE   C23  165   3.446   3.940   6.404  0.3447  1.0963 -0.0755
    2DOPE   H3R  166   3.369   3.889   6.465 -1.6882  2.1067 -1.6493
    2DOPE   H3S  167   3.540   3.882   6.410 -0.3222  0.0614  0.7597
    2DOPE   C24  168   3.392   3.932   6.261 -0.0729  0.1817  0.4049
    2DOPE   H4R  169   3.469   3.966   6.189  0.6721  0.2747  1.2312
    2DOPE   H4S  170   3.307   4.004   6.255  0.4995  0.9680  1.4363
    2DOPE   C25  171   3.359   3.787   6.230 -0.1045 -0.5233  0.1719
    2DOPE   H5R  172   3.270   3.759   6.291  1.0844  0.9669  2.7400
    2DOPE   H5S  173   3.452   3.729   6.246  0.5562 -0.2063 -2.1311
    2DOPE   C26  174   3.313   3.765   6.083  0.1514  0.4971 -0.1747
    2DOPE   H6R  175   3.388   3.804   6.011  1.3922 -0.9474  0.2867
    2DOPE   H6S  176   3.219   3.824   6.069  0.6188  1.1051 -0.8250
    2DOPE   C27  177   3.281   3.618   6.057  0.5084 -0.6720  0.3482
    2DOPE   H7R  178   3.195   3.608   5.987  0.5491 -0.7436  0.3084
    2DOPE   H7S  179   3.251   3.572   6.154 -1.0996  1.1806  0.7882
    2DOPE   C28  180   3.407   3.551   5.998 -0.0474 -0.1154 -0.2495
    2DOPE   H8R  181   3.483   3.566   6.077  0.3159  1.0908 -0.8097
    2DOPE   H8S  182   3.445   3.600   5.906  0.2998 -2.1197 -1.2277
    2DOPE   C29  183   3.377   3.405   5.969 -0.5951 -0.7787  0.1602
    2DOPE   H9R  184   3.384   3.334   6.053  1.3527 -0.4097  0.3682
    2DOPE  C210  185   3.326   3.366   5.849  0.5338  0.3342  0.3909
    2DOPE  H10R  186   3.294   3.261   5.842  0.7577  0.1693  1.5538
    2DOPE  C211  187   3.301   3.447   5.727  0.1534 -0.3137 -0.3000
    2DOPE  H11R  188   3.365   3.391   5.655  0.9284  0.2146 -0.0456
    2DOPE  H11S  189   3.350   3.546   5.741  1.5955 -0.7372 -1.8725
    2DOPE  C212  190   3.155   3.457   5.685  0.0124  0.1463  0.0693
    2DOPE  H12R  191   3.140   3.526   5.599 -3.4410  0.4827  0.7974
    2DOPE  H12S  192   3.082   3.502   5.755 -0.1161 -0.9602  0.6725
    2DOPE  C213  193   3.101   3.325   5.631  0.3429 -0.2622 -0.1547
    2DOPE  H13R  194   3.121   3.233   5.690 -1.7988 -2.7162 -2.9182
    2DOPE  H13S  195   3.147   3.311   5.530  0.0278 -2.1858 -0.0782
    2DOPE  C214  196   2.948   3.327   5.613  0.1975  0.5440  0.2955
    2DOPE  H14R  197   2.924   3.262   5.526 -2.2776  3.5568 -1.4716
    2DOPE  H14S  198   2.919   3.430   5.586  0.6994  1.0814  1.6875
    2DOPE  C215  199   2.861   3.273   5.728 -0.2284  0.4522 -0.1210
    2DOPE  H15R  200   2.879   3.333   5.821 -0.2987 -0.1080  0.2565
    2DOPE  H15S  201   2.893   3.171   5.756 -2.4268 -0.8843 -2.1993
    2DOPE  C216  202   2.713   3.267   5.692 -0.2482  0.0730 -0.2159
    2DOPE  H16R  203   2.690   3.193   5.612 -0.6147  0.5882 -0.5991
    2DOPE  H16S  204   2.687   3.366   5.649 -0.2942  0.3430  0.4267
    2DOPE  C217  205   2.629   3.252   5.821 -0.1221 -0.8354  0.2220
    2DOPE  H17R  206   2.526   3.273   5.785  0.1176 -2.4002 -1.5022
    2DOPE  H17S  207   2.663   3.337   5.884 -0.2791  0.4201 -1.3269
    2DOPE  C218  208   2.652   3.120   5.894  0.0908  0.1807 -0.1256
    2DOPE  H18R  209   2.615   3.032   5.837 -3.6230  1.2180  0.3922
    2DOPE  H18S  210   2.596   3.123   5.990  0.2357 -1.9298  0.0616
    2DOPE  H18T  211   2.759   3.106   5.921 -0.1028  0.9886  1.1732
    2DOPE   C33  212   3.051   4.378   6.044  0.4811  0.5855 -0.0844
    2DOPE   H3X  213   3.138   4.440   6.011  0.5927  1.8538  2.3400
    2DOPE   H3Y  214   2.963   4.445   6.056 -3.0896 -3.3615 -1.7267
    2DOPE   C34  215   3.015   4.286   5.920 -0.7417 -0.4642  0.6221
    2DOPE   H4X  216   2.914   4.238   5.919 -1.2736  0.6328 -0.1442
    2DOPE   H4Y  217   3.020   4.361   5.838  0.6885  0.9898  1.9791
    2DOPE   C35  218   3.126   4.181   5.895  0.0840 -0.5716 -0.5037
    2DOPE   H5X  219   3.140   4.116   5.984  2.4992  0.3805 -0.1105
    2DOPE   H5Y  220   3.218   4.237   5.871 -2.2258  3.1316 -1.5094
    2DOPE   C36  221   3.084   4.095   5.772  0.3032  0.1710  0.0246
    2DOPE   H6X  222   3.086   4.151   5.676 -3.1582 -0.6131 -0.6148
    2DOPE   H6Y  223   2.978   4.067   5.789 -0.2889  2.5200  0.6300
    2DOPE   C37  224   3.174   3.971   5.766  0.5184  0.2698  0.0903
    2DOPE   H7X  225   3.276   4.012   5.750  1.4750 -1.8407  0.4368
    2DOPE   H7Y  226   3.172   3.916   5.863 -0.7589  0.0611 -0.0344
    2DOPE   C38  227   3.147   3.884   5.639 -0.2423  0.0085  0.4842
    2DOPE   H8X  228   3.240   3.830   5.611  0.4860  0.9047  1.1380
    2DOPE   H8Y  229   3.137   3.964   5.562 -1.5304  0.4243  1.0461
    2DOPE   C39  230   3.026   3.793   5.650  0.0414 -0.0873 -0.6423
    2DOPE   H9X  231   3.026   3.743   5.749 -2.1565  2.1344  0.5885
    2DOPE  C310  232   2.929   3.762   5.559 -0.0639  0.3870 -0.3468
    2DOPE  H10X  233   2.848   3.694   5.589  0.7944 -0.9233 -0.9249
    2DOPE  C311  234   2.929   3.815   5.420  0.3960 -0.0349  1.0584
    2DOPE  H11X  235   2.834   3.863   5.387  0.4853  1.5043  2.8721
    2DOPE  H11Y  236   2.999   3.899   5.402 -1.0298  0.7844 -1.1572
    2DOPE  C312  237   2.967   3.714   5.313  0.1816 -0.3644 -0.0364
    2DOPE  H12X  238   3.057   3.666   5.356  0.2324 -0.6266 -0.4358
    2DOPE  H12Y  239   3.004   3.766   5.222 -1.7628 -0.7905 -1.1257
    2DOPE  C313  240   2.870   3.614   5.268  0.9874 -0.1733 -0.5312
    2DOPE  H13X  241   2.835   3.557   5.357  0.2929  2.3455  0.9119
    2DOPE  H13Y  242   2.779   3.662   5.227  0.2927 -1.7950 -0.9475
    2DOPE  C314  243   2.916   3.515   5.160  0.4182 -0.2724 -1.0268
    2DOPE  H14X  244   2.923   3.415   5.210 -0.3179 -0.5307 -1.4289
    2DOPE  H14Y  245   3.021   3.543   5.136  0.9704 -1.2858  0.0567
    2DOPE  C315  246   2.829   3.507   5.032 -0.8087  1.0482  0.5171
    2DOPE  H15X  247   2.825   3.611   4.993  0.8589  1.3868  1.1845
    2DOPE  H15Y  248   2.729   3.465   5.057  0.8153 -2.7482  1.4411
    2DOPE  C316  249   2.900   3.409   4.929 -0.0883 -0.0796 -0.8584
    2DOPE  H16X  250   2.828   3.431   4.847 -1.6143  0.8494  0.6386
    2DOPE  H16Y  251   2.896   3.301   4.954 -1.0899 -0.0097 -0.6707
    2DOPE  C317  252   3.030   3.453   4.875  0.3893 -0.8804 -0.3880
    2DOPE  H17X  253   3.107   3.415   4.945  0.8282 -2.3883 -1.6291
    2DOPE  H17Y  254   3.047   3.402   4.778 -2.2763  1.4909 -2.2786
    2DOPE  C318  255   3.046   3.604   4.849  0.3104 -0.7533 -0.2152
    2DOPE  H18X  256   3.133   3.610   4.781 -0.7320 -3.1582 -1.8764
    2DOPE  H18Y  257   2.953   3.645   4.803  0.0257  0.2429  1.1858
    2DOPE  H18Z  258   3.066   3.656   4.946 -0.4917 -1.3531  0.2817
    3DOPE     N  259   3.459   6.181   6.664  0.3667  0.3372  0.4080
    3DOPE   HN1  260   3.456   6.123   6.750 -0.7045 -1.1530 -0.5850
    3DOPE   HN2  261   3.427   6.116   6.589 -0.7334 -0.4413  1.5180
    3DOPE   HN3  262   3.557   6.202   6.637  1.0867  0.1390  2.6905
    3DOPE   C12  263   3.361   6.294   6.674 -0.0869  0.6336 -0.7717
    3DOPE  H12A  264   3.357   6.343   6.574 -0.5352  0.3829 -0.8766
    3DOPE  H12B  265   3.407   6.366   6.745  0.5025 -0.5438  0.0576
    3DOPE   C11  266   3.219   6.252   6.727  0.3370 -1.0581  0.3041
    3DOPE  H11A  267   3.159   6.345   6.720  1.9037 -0.0673 -0.7634
    3DOPE  H11B  268   3.218   6.221   6.834  0.1562  0.1452  0.6715
    3DOPE     P  269   3.105   6.134   6.515 -0.1068  0.3405  0.0069
    3DOPE   O13  270   2.960   6.171   6.516  0.1740 -0.2777  0.3294
    3DOPE   O14  271   3.145   6.005   6.454  0.6025 -0.1767  0.0346
    3DOPE   O11  272   3.187   6.235   6.430  0.1241 -0.7339 -0.5444
    3DOPE   O12  273   3.170   6.142   6.655  0.2281 -0.3844 -0.3115
    3DOPE    C1  274   3.128   6.305   6.317 -0.7120  0.3594  0.0347
    3DOPE    HA  275   3.213   6.353   6.264 -0.3975 -1.8829 -1.6201
    3DOPE    HB  276   3.063   6.386   6.357  1.9564  2.1385  0.9887
    3DOPE    C2  277   3.064   6.212   6.208 -0.5302 -0.1644 -0.1131
    3DOPE    HS  278   3.000   6.147   6.271 -0.0475  0.1747  0.7447
    3DOPE   O21  279   3.167   6.136   6.152  0.3489  0.2615  0.1851
    3DOPE   C21  280   3.123   6.012   6.097  0.1490 -0.0667 -0.0673
    3DOPE   O22  281   3.006   5.988   6.090 -0.2741  0.3984  0.2543
    3DOPE   C22  282   3.240   5.933   6.050 -0.5605  0.0100  0.0541
    3DOPE   H2R  283   3.215   5.825   6.053  1.0041 -0.3806 -0.2438
    3DOPE   H2S  284   3.331   5.958   6.109  0.3864  0.1784 -1.4253
    3DOPE    C3  285   2.985   6.302   6.105 -0.3460  0.5576  0.0818
    3DOPE    HX  286   3.054   6.387   6.096 -0.2029  0.4867  0.4603
    3DOPE    HY  287   2.889   6.341   6.145 -1.5180 -0.3945 -1.6763
    3DOPE   O31  288   2.964   6.240   5.968 -0.3325 -0.2470 -0.0727
    3DOPE   C31  289   2.849   6.186   5.948 -0.9573 -0.3850  0.4724
    3DOPE   O32  290   2.758   6.189   6.033 -0.0456  0.7552  0.2482
    3DOPE   C32  291   2.831   6.162   5.801 -0.0670  0.1370 -0.1761
    3DOPE   H2X  292   2.804   6.257   5.750  1.1638  0.8102  0.4028
    3DOPE   H2Y  293   2.925   6.122   5.759  0.4096  1.6943 -0.6477
    3DOPE   C23  294   3.269   5.969   5.895 -0.6618  0.2148  0.1767
    3DOPE   H3R  295   3.373   5.941   5.870 -0.7397  1.3241 -1.5996
    3DOPE   H3S  296   3.277   6.080   5.883  1.7119  0.0865  0.1614
    3DOPE   C24  297   3.178   5.904   5.793  0.2289 -0.1435  0.2362
    3DOPE   H4R  298   3.071   5.930   5.808  0.2163 -0.7862  1.3291
    3DOPE   H4S  299   3.185   5.794   5.797 -1.7424 -0.4060 -1.5935
    3DOPE   C25  300   3.215   5.955   5.658 -0.1944 -0.6483  0.3588
    3DOPE   H5R  301   3.321   5.929   5.637 -0.4225 -0.1173 -1.6235
    3DOPE   H5S  302   3.204   6.065   5.661  0.0435 -0.5046 -1.9165
    3DOPE   C26  303   3.135   5.899   5.541  0.0170 -0.0450 -0.6907
    3DOPE   H6R  304   3.033   5.934   5.570  1.1147  2.4442  0.4586
    3DOPE   H6S  305   3.142   5.788   5.539 -0.7663 -0.0923 -1.9765
    3DOPE   C27  306   3.174   5.962   5.409  0.5991 -0.4566 -0.5908
    3DOPE   H7R  307   3.266   5.909   5.377  0.4313 -0.6823 -0.7023
    3DOPE   H7S  308   3.202   6.068   5.425 -0.4526 -0.4481  1.5018
    3DOPE   C28  309   3.062   5.962   5.308 -0.3898  0.6342  0.6759
    3DOPE   H8R  310   3.102   6.000   5.211 -1.6575 -1.5150 -0.7707
    3DOPE   H8S  311   2.982   6.032   5.340 -1.3046  0.0354 -0.2141
    3DOPE   C29  312   3.003   5.828   5.271  0.3703  0.0543  0.2395
    3DOPE   H9R  313   3.012   5.746   5.344  0.9806 -0.3123 -0.2367
    3DOPE  C210  314   2.934   5.810   5.156  0.0860  0.0454  0.4591
    3DOPE  H10R  315   2.870   5.721   5.144  0.5268 -0.3167  0.7611
    3DOPE  C211  316   2.897   5.916   5.052 -0.5929 -0.8312 -0.6164
    3DOPE  H11R  317   2.974   5.902   4.973  0.3469 -1.3612  0.3481
    3DOPE  H11S  318   2.929   6.011   5.101  1.5221 -1.7765 -0.0027
    3DOPE  C212  319   2.750   5.927   5.010 -0.4003  0.2601  0.2824
    3DOPE  H12R  320   2.734   6.025   4.960 -2.1246 -0.7454 -1.2701
    3DOPE  H12S  321   2.693   5.926   5.106  1.1109 -1.0252  1.2104
    3DOPE  C213  322   2.717   5.815   4.911  0.8959  0.5176 -0.5429
    3DOPE  H13R  323   2.726   5.717   4.962  1.2110  1.9746  2.4272
    3DOPE  H13S  324   2.791   5.827   4.829  0.4557 -0.3630 -1.0844
    3DOPE  C214  325   2.575   5.833   4.859  0.3242  0.3145 -0.3109
    3DOPE  H14R  326   2.502   5.843   4.942  0.2878  2.1553 -0.5262
    3DOPE  H14S  327   2.556   5.739   4.803 -0.9812  0.9642 -0.9931
    3DOPE  C215  328   2.554   5.946   4.757  0.3854  0.6220 -0.0293
    3DOPE  H15R  329   2.628   5.935   4.675 -0.3266  0.1142 -0.6074
    3DOPE  H15S  330   2.564   6.037   4.820 -0.2783  0.9707 -0.4181
    3DOPE  C216  331   2.411   5.946   4.708  0.7688 -0.2787  0.0111
    3DOPE  H16R  332   2.326   5.938   4.780 -0.3905  0.2202 -1.2583
    3DOPE  H16S  333   2.386   5.861   4.641  0.3691  0.3126 -0.6009
    3DOPE  C217  334   2.363   6.075   4.631 -0.0882 -0.1473  0.1418
    3DOPE  H17R  335   2.416   6.073   4.534 -0.3041 -2.6727  0.0062
    3DOPE  H17S  336   2.399   6.167   4.683  1.6544 -0.8978  0.3380
    3DOPE  C218  337   2.214   6.105   4.604 -0.3840 -0.1637 -0.4505
    3DOPE  H18R  338   2.204   6.213   4.583 -0.2800 -0.2912 -1.1996
    3DOPE  H18S  339   2.143   6.077   4.685  0.7127 -0.1422  0.5466
    3DOPE  H18T  340   2.169   6.054   4.516 -0.9565 -0.2638 -0.1071
    3DOPE   C33  341   2.720   6.056   5.781 -0.3296 -0.2639 -0.1247
    3DOPE   H3X  342   2.624   6.099   5.820 -0.1659  1.2155 -1.2681
    3DOPE   H3Y  343   2.741   5.972   5.851  0.5414 -1.8206 -2.1786
    3DOPE   C34  344   2.693   6.011   5.637 -0.2236  0.0103 -0.6697
    3DOPE   H4X  345   2.789   5.969   5.599  0.4313 -1.8686  2.6809
    3DOPE   H4Y  346   2.622   5.926   5.634 -0.9544  0.4989 -5.1851
    3DOPE   C35  347   2.651   6.114   5.536  0.0129  0.1290 -0.2123
    3DOPE   H5X  348   2.732   6.180   5.501  1.1324 -0.3686  1.3256
    3DOPE   H5Y  349   2.578   6.177   5.592 -1.5772 -1.5342 -0.3086
    3DOPE   C36  350   2.565   6.057   5.422 -0.4215 -0.8603  0.6232
    3DOPE   H6X  351   2.463   6.033   5.457 -2.0994  1.6450 -2.1392
    3DOPE   H6Y  352   2.614   5.966   5.380  2.1550  0.5745  0.3122
    3DOPE   C37  353   2.555   6.160   5.315 -0.3238 -0.3965  0.5859
    3DOPE   H7X  354   2.510   6.256   5.349 -1.1697  0.0521 -1.6454
    3DOPE   H7Y  355   2.657   6.171   5.272 -0.6626 -1.8972 -0.6783
    3DOPE   C38  356   2.465   6.116   5.195 -0.1619  0.0722  0.1062
    3DOPE   H8X  357   2.364   6.098   5.238  0.0201  1.5234  1.2346
    3DOPE   H8Y  358   2.495   6.015   5.159 -0.6305 -0.3137  0.7642
    3DOPE   C39  359   2.462   6.224   5.084  1.1314 -0.5326  0.2789
    3DOPE   H9X  360   2.547   6.293   5.082  0.8759 -0.2226 -1.1690
    3DOPE  C310  361   2.355   6.238   5.003 -0.2061 -0.6454  0.3461
    3DOPE  H10X  362   2.363   6.307   4.917 -2.3339  1.1834  1.4970
    3DOPE  C311  363   2.230   6.161   4.997  0.4416  0.2713 -0.3175
    3DOPE  H11X  364   2.224   6.112   4.898 -0.4862  0.5748 -0.4270
    3DOPE  H11Y  365   2.232   6.072   5.064  0.3872  0.3344 -0.2319
    3DOPE  C312  366   2.098   6.248   5.034  0.1948  0.3982 -0.1291
    3DOPE  H12X  367   2.127   6.314   5.118 -0.0526  0.2208  0.0983
    3DOPE  H12Y  368   2.007   6.186   5.054  0.8127  0.2388  2.5125
    3DOPE  C313  369   2.069   6.343   4.913 -0.2432  0.1981 -0.7392
    3DOPE  H13X  370   2.160   6.403   4.891  1.0568 -1.5900 -0.4626
    3DOPE  H13Y  371   2.046   6.268   4.834 -0.5373 -0.4887 -0.0114
    3DOPE  C314  372   1.949   6.433   4.937 -0.1830 -0.0809 -0.7031
    3DOPE  H14X  373   1.965   6.478   5.038 -0.9685 -1.0328 -0.1359
    3DOPE  H14Y  374   1.856   6.372   4.936 -0.7481  0.7707 -1.6245
    3DOPE  C315  375   1.931   6.537   4.839  0.4878 -0.2152  0.2433
    3DOPE  H15X  376   1.914   6.508   4.733 -1.6534  2.5803 -0.2892
    3DOPE  H15Y  377   2.014   6.611   4.832  0.6389 -0.1543  2.1783
    3DOPE  C316  378   1.797   6.606   4.874 -0.1190  0.3703 -0.4110
    3DOPE  H16X  379   1.786   6.597   4.984 -2.3480  1.9269 -0.4363
    3DOPE  H16Y  380   1.716   6.549   4.822  1.0986 -1.7204 -0.1478
    3DOPE  C317  381   1.780   6.754   4.825  0.5008  0.1935  0.0056
    3DOPE  H17X  382   1.870   6.817   4.845 -0.4210  1.7778 -0.6820
    3DOPE  H17Y  383   1.765   6.750   4.715 -0.4433 -1.3713  0.1608
    3DOPE  C318  384   1.666   6.811   4.897  0.8614  0.1044 -0.3512
    3DOPE  H18X  385   1.599   6.874   4.835  0.6399  0.3832  0.1655
    3DOPE  H18Y  386   1.603   6.725   4.929  2.0983 -0.8198 -0.3315
    3DOPE  H18Z  387   1.693   6.878   4.981  1.2018 -1.5012  0.8786
    4DOPE     N  388   3.154   2.732   7.002 -0.0171  0.2280  0.4068
    4DOPE   HN1  389   3.099   2.789   7.070 -0.6247 -0.3631  0.4238
    4DOPE   HN2  390   3.081   2.662   6.974 -0.0338  1.1593 -2.1433
    4DOPE   HN3  391   3.227   2.673   7.047 -0.2753 -0.5441 -0.1658
    4DOPE   C12  392   3.206   2.810   6.880 -0.6455  0.8925 -0.0794
    4DOPE  H12A  393   3.271   2.745   6.817 -1.8581 -1.6096  1.0942
    4DOPE  H12B  394   3.262   2.894   6.926 -1.2876  0.3591  1.7745
    4DOPE   C11  395   3.090   2.869   6.801  0.3076 -0.6781  0.5476
    4DOPE  H11A  396   3.142   2.923   6.719 -0.4166 -1.7153 -0.6327
    4DOPE  H11B  397   3.047   2.948   6.867 -0.8346  0.1315 -1.1066
    4DOPE     P  398   2.842   2.771   6.776 -0.3991 -0.4032  0.0470
    4DOPE   O13  399   2.819   2.793   6.923 -0.3393  0.1536 -0.2213
    4DOPE   O14  400   2.769   2.654   6.717 -0.5955 -0.7290  0.2135
    4DOPE   O11  401   2.799   2.904   6.698 -0.3330 -0.2369 -0.0513
    4DOPE   O12  402   3.007   2.767   6.743  0.3810  0.3122  0.4143
    4DOPE    C1  403   2.806   2.906   6.557  0.7178 -0.0857 -0.6222
    4DOPE    HA  404   2.885   2.841   6.514  0.0334 -2.0350  0.8932
    4DOPE    HB  405   2.816   3.012   6.525  0.3765 -0.0774 -0.7048
    4DOPE    C2  406   2.672   2.861   6.490 -0.4852  0.0052 -0.1141
    4DOPE    HS  407   2.641   2.762   6.530  2.7209 -0.3722  1.8344
    4DOPE   O21  408   2.677   2.859   6.349 -0.4903  0.8148 -0.4707
    4DOPE   C21  409   2.753   2.772   6.296 -0.0452 -0.1589  0.2938
    4DOPE   O22  410   2.804   2.678   6.355  0.0404  0.0832  0.4994
    4DOPE   C22  411   2.760   2.796   6.148  0.1922  0.3836 -0.0825
    4DOPE   H2R  412   2.792   2.902   6.140 -0.6677  0.5848 -1.1615
    4DOPE   H2S  413   2.662   2.783   6.097  0.6399  1.6563 -1.3497
    4DOPE    C3  414   2.565   2.960   6.531  0.4723  0.4055  0.3194
    4DOPE    HX  415   2.581   2.961   6.641  1.5299  1.2995  0.1754
    4DOPE    HY  416   2.463   2.921   6.511  0.7518 -0.5906  0.7752
    4DOPE   O31  417   2.587   3.095   6.477  0.4261  0.0571 -0.3094
    4DOPE   C31  418   2.504   3.138   6.389 -0.3028 -0.5408 -0.1467
    4DOPE   O32  419   2.399   3.083   6.357  0.2111  0.5001  0.5401
    4DOPE   C32  420   2.562   3.266   6.321 -0.3059  0.0776  0.0064
    4DOPE   H2X  421   2.576   3.341   6.402  2.2341  0.5544 -0.7834
    4DOPE   H2Y  422   2.664   3.243   6.283  0.1337  1.5175  0.2422
    4DOPE   C23  423   2.863   2.716   6.070  0.2587 -0.5169 -0.4575
    4DOPE   H3R  424   2.826   2.612   6.058  1.1489 -0.8022 -0.8096
    4DOPE   H3S  425   2.961   2.724   6.120  0.7874 -0.1315 -1.5193
    4DOPE   C24  426   2.899   2.773   5.927 -0.2296  0.2474 -0.0487
    4DOPE   H4R  427   2.994   2.719   5.910  0.2117  0.1708  2.3841
    4DOPE   H4S  428   2.927   2.879   5.943 -1.6322  0.4828  1.1359
    4DOPE   C25  429   2.785   2.743   5.835 -0.3196 -0.4000 -0.2869
    4DOPE   H5R  430   2.694   2.797   5.868 -1.2436 -1.4476 -1.0173
    4DOPE   H5S  431   2.753   2.637   5.828 -2.5655  0.0336  1.9554
    4DOPE   C26  432   2.807   2.808   5.696  0.0797  0.4723 -0.0052
    4DOPE   H6R  433   2.880   2.740   5.648 -0.6219  0.4457 -1.0633
    4DOPE   H6S  434   2.857   2.908   5.695 -1.4858  1.2963  0.1545
    4DOPE   C27  435   2.678   2.811   5.610 -0.6537 -0.7148 -0.1039
    4DOPE   H7R  436   2.602   2.866   5.669  0.0762  0.0097  0.1902
    4DOPE   H7S  437   2.653   2.704   5.595  1.8272 -1.5371  1.0287
    4DOPE   C28  438   2.707   2.878   5.478 -0.1505  0.0155 -0.2515
    4DOPE   H8R  439   2.794   2.813   5.455  0.2406  0.6493 -0.5735
    4DOPE   H8S  440   2.733   2.984   5.496  3.4201 -0.4405 -1.7370
    4DOPE   C29  441   2.589   2.853   5.383  0.2994  1.0497 -0.0926
    4DOPE   H9R  442   2.553   2.749   5.388  2.8573 -0.0503 -2.0252
    4DOPE  C210  443   2.531   2.946   5.301  0.5281 -0.9465  0.5071
    4DOPE  H10R  444   2.435   2.927   5.252  0.2204  0.0170  0.7198
    4DOPE  C211  445   2.570   3.088   5.276  0.0072 -0.0286 -0.0197
    4DOPE  H11R  446   2.541   3.115   5.172 -0.6571 -3.5620 -0.8829
    4DOPE  H11S  447   2.678   3.100   5.296 -0.3299  1.8040  0.8531
    4DOPE  C212  448   2.494   3.189   5.360  0.0377  0.7293 -0.6659
    4DOPE  H12R  449   2.518   3.175   5.467  1.7995  1.9370 -0.8527
    4DOPE  H12S  450   2.385   3.178   5.344 -0.3306  0.0299  1.9655
    4DOPE  C213  451   2.535   3.337   5.342 -0.1741 -0.0492  0.1671
    4DOPE  H13R  452   2.548   3.359   5.234  0.2185  2.9847  0.7677
    4DOPE  H13S  453   2.632   3.358   5.392  0.6603  0.4539 -1.6005
    4DOPE  C214  454   2.429   3.445   5.370  0.0611  0.0710 -0.4453
    4DOPE  H14R  455   2.408   3.443   5.479 -2.9041  0.7720 -0.8963
    4DOPE  H14S  456   2.331   3.426   5.322  0.1851 -2.4799  0.1570
    4DOPE  C215  457   2.481   3.586   5.346  0.2730  0.8527  0.1886
    4DOPE  H15R  458   2.516   3.596   5.241  0.1923 -0.7463 -0.0247
    4DOPE  H15S  459   2.573   3.592   5.408  0.3742  0.9165  0.0333
    4DOPE  C216  460   2.378   3.694   5.379 -0.2773  0.0575 -0.0625
    4DOPE  H16R  461   2.358   3.693   5.488 -2.0296 -1.2502 -0.3585
    4DOPE  H16S  462   2.284   3.684   5.321 -0.3491 -3.5222  0.4168
    4DOPE  C217  463   2.441   3.831   5.354  0.3923 -0.6764  0.0125
    4DOPE  H17R  464   2.425   3.831   5.244 -1.2158  1.8507  0.1762
    4DOPE  H17S  465   2.551   3.832   5.371  0.6243  0.2218 -1.4189
    4DOPE  C218  466   2.352   3.948   5.405 -0.2565  0.4386  0.6003
    4DOPE  H18R  467   2.243   3.931   5.392 -0.1571 -0.0038  0.3408
    4DOPE  H18S  468   2.389   4.045   5.366 -1.9393  0.7471 -0.3656
    4DOPE  H18T  469   2.365   3.957   5.515 -2.5270  1.2947  0.8692
    4DOPE   C33  470   2.476   3.328   6.206 -0.6110  0.1480 -0.2754
    4DOPE   H3X  471   2.374   3.345   6.247 -0.1578 -0.1898  1.0361
    4DOPE   H3Y  472   2.468   3.251   6.126 -3.3518 -2.0417  1.8680
    4DOPE   C34  473   2.514   3.466   6.161  0.2991 -0.0694  0.2824
    4DOPE   H4X  474   2.516   3.530   6.251  1.3040  1.1786 -0.5947
    4DOPE   H4Y  475   2.618   3.461   6.122  0.3925  1.4221  0.3073
    4DOPE   C35  476   2.416   3.519   6.050 -0.4393 -0.2367  0.3964
    4DOPE   H5X  477   2.328   3.562   6.102 -0.8941  1.9002 -1.8913
    4DOPE   H5Y  478   2.377   3.425   6.006  1.0137 -0.4797 -0.4617
    4DOPE   C36  479   2.475   3.621   5.954  0.3101  0.2623  0.0292
    4DOPE   H6X  480   2.559   3.574   5.900  0.2512  0.7060 -0.4520
    4DOPE   H6Y  481   2.524   3.695   6.021 -0.1112  1.6040 -1.1140
    4DOPE   C37  482   2.370   3.672   5.859  0.1547 -0.3640  0.4107
    4DOPE   H7X  483   2.313   3.591   5.806  3.2988 -3.3097  1.1754
    4DOPE   H7Y  484   2.297   3.724   5.924  0.0561 -0.5302  0.4342
    4DOPE   C38  485   2.426   3.778   5.758  0.4151 -0.0619  0.6517
    4DOPE   H8X  486   2.334   3.805   5.701 -0.8028  0.6928  2.8742
    4DOPE   H8Y  487   2.502   3.739   5.687 -1.4514 -0.0774 -1.4334
    4DOPE   C39  488   2.485   3.901   5.827  0.1841 -0.4396  0.0634
    4DOPE   H9X  489   2.438   3.920   5.925 -1.2288  0.6292 -0.7769
    4DOPE  C310  490   2.593   3.975   5.793 -0.4311 -0.1223 -0.4964
    4DOPE  H10X  491   2.627   4.052   5.863  0.0558 -0.7849  0.0042
    4DOPE  C311  492   2.689   3.956   5.677 -0.3170 -0.4242 -0.7732
    4DOPE  H11X  493   2.794   3.953   5.712 -0.5115 -1.4642 -0.2287
    4DOPE  H11Y  494   2.668   3.868   5.614  0.5415 -1.3246  0.1702
    4DOPE  C312  495   2.686   4.070   5.570  0.5369  0.3385 -0.1173
    4DOPE  H12X  496   2.586   4.095   5.529  1.0475  2.8329 -0.0194
    4DOPE  H12Y  497   2.737   4.022   5.483 -2.3360 -3.1834 -0.0998
    4DOPE  C313  498   2.743   4.202   5.616  0.2828  1.0174  0.6476
    4DOPE  H13X  499   2.685   4.228   5.707 -3.8078 -0.3409 -1.3174
    4DOPE  H13Y  500   2.849   4.180   5.641  1.1700 -1.0835 -3.8827
    4DOPE  C314  501   2.743   4.316   5.515 -0.2896  0.6129  0.4619
    4DOPE  H14X  502   2.767   4.411   5.567  0.8835 -0.2018  1.4807
    4DOPE  H14Y  503   2.638   4.324   5.480 -0.3058  1.0548  0.6022
    4DOPE  C315  504   2.841   4.306   5.394 -0.7923 -0.5248 -0.5543
    4DOPE  H15X  505   2.802   4.356   5.303  0.4718  2.0984  0.2621
    4DOPE  H15Y  506   2.865   4.198   5.382  2.0626 -0.1430  0.7784
    4DOPE  C316  507   2.979   4.368   5.426 -0.4781  0.7322  0.0447
    4DOPE  H16X  508   3.048   4.340   5.345 -0.8841 -1.3402  0.3561
    4DOPE  H16Y  509   3.014   4.321   5.521 -1.2539 -1.3489 -0.6452
    4DOPE  C317  510   2.988   4.517   5.443 -0.1929  0.3541 -0.5197
    4DOPE  H17X  511   2.969   4.568   5.346 -0.1930  0.3694 -0.5116
    4DOPE  H17Y  512   2.914   4.559   5.515 -0.2426  1.5113 -1.2271
    4DOPE  C318  513   3.135   4.560   5.476  0.2274  0.2512  0.2129
    4DOPE  H18X  514   3.124   4.670   5.488 -2.2028  0.1224 -0.3490
    4DOPE  H18Y  515   3.167   4.520   5.575 -1.1494 -1.2439  0.0874
    4DOPE  H18Z  516   3.205   4.529   5.395 -0.1414 -4.0636  1.3325
    5DOPE     N  517   1.898   5.240   6.737 -0.4760  0.0234 -0.2955
    5DOPE   HN1  518   1.808   5.274   6.698 -0.8101  1.0482  1.2920
    5DOPE   HN2  519   1.875   5.197   6.829 -2.2360  1.6692  0.1139
    5DOPE   HN3  520   1.949   5.329   6.748  1.3777 -0.7036 -2.4061
    5DOPE   C12  521   1.984   5.168   6.637  0.4035 -0.2708  0.1453
    5DOPE  H12A  522   1.978   5.058   6.653 -0.3767 -0.2475  0.0270
    5DOPE  H12B  523   2.091   5.189   6.658  0.0616  0.1339  1.5824
    5DOPE   C11  524   1.941   5.199   6.490 -0.2077  0.0970  0.3925
    5DOPE  H11A  525   1.830   5.189   6.486 -0.1749 -0.0245 -0.2901
    5DOPE  H11B  526   1.983   5.127   6.417 -1.1624  3.4430 -3.8123
    5DOPE     P  527   2.107   5.371   6.388 -0.2503  0.4854  0.1063
    5DOPE   O13  528   2.207   5.269   6.435 -0.2059  0.1233  0.5985
    5DOPE   O14  529   2.129   5.511   6.433  0.1065  0.2722  0.0276
    5DOPE   O11  530   2.086   5.359   6.233 -0.2650 -0.4826 -0.3724
    5DOPE   O12  531   1.966   5.327   6.439 -0.4115  0.3583  0.4467
    5DOPE    C1  532   1.983   5.425   6.168 -0.6315  0.0640  1.1038
    5DOPE    HA  533   1.925   5.497   6.230  0.9285  0.5828  2.0393
    5DOPE    HB  534   1.908   5.351   6.134 -2.7489  0.9695  3.5181
    5DOPE    C2  535   2.027   5.513   6.043 -0.4421  0.2570 -0.1234
    5DOPE    HS  536   1.947   5.575   5.998  0.1580  0.8298 -0.4244
    5DOPE   O21  537   2.080   5.426   5.945 -0.4549 -0.2372 -0.2824
    5DOPE   C21  538   1.985   5.371   5.873 -0.3401  0.2044  0.3333
    5DOPE   O22  539   1.869   5.390   5.881  0.0544  1.2336 -0.1631
    5DOPE   C22  540   2.048   5.265   5.781 -0.4255  0.2182  0.3815
    5DOPE   H2R  541   2.031   5.159   5.808  1.2961 -0.5273 -1.2696
    5DOPE   H2S  542   2.158   5.280   5.790  0.1642 -1.8953 -2.1139
    5DOPE    C3  543   2.131   5.617   6.091 -0.7205 -0.1621 -0.1146
    5DOPE    HX  544   2.210   5.561   6.145 -0.4659 -1.5075 -1.8288
    5DOPE    HY  545   2.073   5.683   6.160 -0.3422 -0.3263  0.3693
    5DOPE   O31  546   2.175   5.696   5.976 -0.1505 -0.1560 -0.2375
    5DOPE   C31  547   2.289   5.758   5.980  0.7152 -0.1168 -0.3681
    5DOPE   O32  548   2.363   5.759   6.076  0.0138  0.4236 -0.7675
    5DOPE   C32  549   2.305   5.837   5.852 -0.1825 -0.0023 -0.5655
    5DOPE   H2X  550   2.203   5.867   5.819 -0.1580 -0.0969 -0.7263
    5DOPE   H2Y  551   2.360   5.931   5.876  0.1752  0.1338 -1.8597
    5DOPE   C23  552   2.003   5.267   5.628  0.1449  0.5606  0.7364
    5DOPE   H3R  553   2.027   5.369   5.591 -1.4465  0.8211  0.3510
    5DOPE   H3S  554   1.899   5.233   5.609 -0.0418  2.1388 -1.4497
    5DOPE   C24  555   2.091   5.170   5.547  0.3224  0.1813 -0.3835
    5DOPE   H4R  556   2.094   5.076   5.606 -0.4310  0.1124 -0.4412
    5DOPE   H4S  557   2.193   5.213   5.536  1.8971 -2.7265  1.4944
    5DOPE   C25  558   2.017   5.140   5.414  0.0156  0.3478  0.1090
    5DOPE   H5R  559   1.985   5.239   5.375 -0.0376  0.0563 -0.5886
    5DOPE   H5S  560   1.931   5.071   5.427 -2.1322  2.8771  0.1253
    5DOPE   C26  561   2.112   5.097   5.302  0.1409 -0.3212  0.5046
    5DOPE   H6R  562   2.160   5.003   5.338 -0.3938 -1.1244 -0.8295
    5DOPE   H6S  563   2.184   5.180   5.281 -0.9310  0.7931  1.1061
    5DOPE   C27  564   2.047   5.057   5.171  0.1074 -0.4558 -0.4785
    5DOPE   H7R  565   1.970   5.129   5.135  0.9587  2.2010  2.5540
    5DOPE   H7S  566   2.003   4.957   5.193  1.2511 -1.0474 -0.8006
    5DOPE   C28  567   2.149   5.026   5.057 -0.0517  0.4793  0.2028
    5DOPE   H8R  568   2.082   5.009   4.969  0.7262  1.3141 -0.5768
    5DOPE   H8S  569   2.185   4.924   5.079  0.7694  0.5718 -0.6557
    5DOPE   C29  570   2.240   5.137   5.024 -0.2591 -0.0966 -0.8651
    5DOPE   H9R  571   2.180   5.219   4.983 -3.6535 -2.3877 -0.9189
    5DOPE  C210  572   2.371   5.140   5.051 -0.6675  0.0396  0.2876
    5DOPE  H10R  573   2.426   5.233   5.028 -0.5410  0.1122  0.8694
    5DOPE  C211  574   2.448   5.030   5.118 -0.3797  0.0344  0.4089
    5DOPE  H11R  575   2.537   5.007   5.056  0.1020  0.6325  0.8706
    5DOPE  H11S  576   2.383   4.940   5.127 -0.5625  0.0919 -0.2615
    5DOPE  C212  577   2.521   5.050   5.254  0.2228 -0.1206  0.4650
    5DOPE  H12R  578   2.557   4.951   5.289  1.1222  0.1547  0.3272
    5DOPE  H12S  579   2.448   5.101   5.321 -1.8415  0.0603 -1.7604
    5DOPE  C213  580   2.630   5.158   5.231  0.1290  0.2154  0.2720
    5DOPE  H13R  581   2.598   5.238   5.162  0.7799  1.5039  1.4278
    5DOPE  H13S  582   2.712   5.101   5.181 -1.3549 -0.8663 -1.0243
    5DOPE  C214  583   2.676   5.223   5.360  0.5572  0.3399  0.1311
    5DOPE  H14R  584   2.769   5.173   5.392  0.4315  0.6204  0.9640
    5DOPE  H14S  585   2.594   5.215   5.436 -0.6956 -2.0575 -1.3495
    5DOPE  C215  586   2.717   5.367   5.342  0.8948 -0.2386  0.1381
    5DOPE  H15R  587   2.646   5.435   5.289 -2.0623 -1.0656  2.7167
    5DOPE  H15S  588   2.806   5.376   5.276  1.5983  0.3873  1.1416
    5DOPE  C216  589   2.758   5.424   5.480  0.3933  0.3572 -0.5075
    5DOPE  H16R  590   2.842   5.364   5.520 -0.7785  0.6828  2.7048
    5DOPE  H16S  591   2.676   5.402   5.552  1.4751 -2.9935 -0.1516
    5DOPE  C217  592   2.821   5.562   5.474  0.5703 -0.3569 -0.0499
    5DOPE  H17R  593   2.757   5.635   5.420 -2.0171 -2.6724 -0.3268
    5DOPE  H17S  594   2.913   5.548   5.413  1.3623  1.1651  0.7479
    5DOPE  C218  595   2.850   5.607   5.620  0.4014  0.5971 -0.4593
    5DOPE  H18R  596   2.757   5.609   5.681  0.4583  0.3724 -0.3612
    5DOPE  H18S  597   2.892   5.710   5.616 -0.0789  0.7946 -0.4475
    5DOPE  H18T  598   2.918   5.543   5.680  0.6825  2.4089  1.2386
    5DOPE   C33  599   2.376   5.761   5.739 -0.0589 -0.2855 -0.8282
    5DOPE   H3X  600   2.471   5.715   5.772  0.1153  0.9234  0.4739
    5DOPE   H3Y  601   2.408   5.841   5.669 -0.5795  1.4939  0.8665
    5DOPE   C34  602   2.287   5.660   5.660  0.2807  0.2564 -0.4508
    5DOPE   H4X  603   2.255   5.576   5.726 -0.5886 -0.3508 -1.6080
    5DOPE   H4Y  604   2.199   5.719   5.626 -1.4738 -1.5681  0.6984
    5DOPE   C35  605   2.374   5.612   5.538  0.0979  0.5520 -0.1753
    5DOPE   H5X  606   2.454   5.550   5.584 -0.2644  1.3086  1.5568
    5DOPE   H5Y  607   2.436   5.689   5.486  0.5725  1.5454  1.7936
    5DOPE   C36  608   2.295   5.525   5.433 -0.0301  0.2532  0.2386
    5DOPE   H6X  609   2.210   5.589   5.401 -0.7286 -0.0893  1.3654
    5DOPE   H6Y  610   2.251   5.439   5.487  0.5344  0.4503  1.0369
    5DOPE   C37  611   2.371   5.465   5.308  0.0940  0.4573  0.0090
    5DOPE   H7X  612   2.454   5.403   5.348  1.3161  0.3885 -2.4785
    5DOPE   H7Y  613   2.288   5.404   5.267  0.2539  0.2461  0.0004
    5DOPE   C38  614   2.418   5.585   5.215 -0.1947  0.0010 -1.0703
    5DOPE   H8X  615   2.497   5.634   5.277 -0.6202 -1.0270  0.3577
    5DOPE   H8Y  616   2.329   5.649   5.201 -1.0108 -0.5717  0.9914
    5DOPE   C39  617   2.478   5.531   5.087 -0.3958  0.5517  0.0388
    5DOPE   H9X  618   2.584   5.502   5.093 -0.2317  1.0405 -0.3552
    5DOPE  C310  619   2.425   5.496   4.970 -0.2881  0.2026  0.2242
    5DOPE  H10X  620   2.479   5.471   4.878 -3.4361  1.3194 -2.0839
    5DOPE  C311  621   2.274   5.501   4.947 -0.4921  0.1811 -0.3121
    5DOPE  H11X  622   2.251   5.446   4.853  0.3440  1.8387 -1.5419
    5DOPE  H11Y  623   2.220   5.451   5.030  1.0183  0.7421  1.0584
    5DOPE  C312  624   2.212   5.643   4.929 -0.2522  0.1062  0.0924
    5DOPE  H12X  625   2.257   5.682   4.835 -1.0869  1.1941  0.1155
    5DOPE  H12Y  626   2.235   5.720   5.006 -0.9635  2.0531 -1.5247
    5DOPE  C313  627   2.058   5.641   4.910  0.3991 -0.2597  0.2229
    5DOPE  H13X  628   2.035   5.748   4.891 -0.2936 -0.4244  0.1219
    5DOPE  H13Y  629   2.034   5.584   4.818 -0.4572  2.9171 -1.6942
    5DOPE  C314  630   1.978   5.583   5.025 -0.2613 -0.6160 -0.3780
    5DOPE  H14X  631   1.997   5.637   5.120  0.2001  0.2689 -0.9545
    5DOPE  H14Y  632   1.989   5.474   5.040 -2.4433 -0.8171  0.1559
    5DOPE  C315  633   1.825   5.598   4.988 -0.3488 -0.0369  0.5804
    5DOPE  H15X  634   1.793   5.526   4.910 -1.1376 -1.1418  1.9034
    5DOPE  H15Y  635   1.808   5.703   4.956 -0.8449 -0.0654  0.7548
    5DOPE  C316  636   1.734   5.578   5.108  0.0435 -0.1560 -0.0248
    5DOPE  H16X  637   1.627   5.594   5.083 -0.4386  1.4321  2.6266
    5DOPE  H16Y  638   1.752   5.664   5.177 -0.3498 -1.0635  1.2401
    5DOPE  C317  639   1.739   5.444   5.181 -0.2601  0.3510  0.5102
    5DOPE  H17X  640   1.837   5.429   5.231  0.6928 -0.4496 -1.4885
    5DOPE  H17Y  641   1.659   5.421   5.254 -1.0207  0.4066 -0.2926
    5DOPE  C318  642   1.711   5.328   5.080 -0.2421 -0.4847 -0.0643
    5DOPE  H18X  643   1.799   5.329   5.012  2.4195  1.0892  3.1290
    5DOPE  H18Y  644   1.700   5.232   5.136 -0.5983 -0.5423 -0.2331
    5DOPE  H18Z  645   1.619   5.344   5.020 -2.2236 -0.9261  2.6709
    6DOPE     N  646   0.452   4.342   6.905  0.2851 -0.1905 -0.0936
    6DOPE   HN1  647   0.523   4.280   6.948 -0.4400 -1.0754 -0.1382
    6DOPE   HN2  648   0.369   4.348   6.967 -0.2705 -0.8395 -0.7517
    6DOPE   HN3  649   0.418   4.305   6.814 -3.2679  1.4670  0.4057
    6DOPE   C12  650   0.516   4.483   6.898  0.3594 -0.6680  0.1198
    6DOPE  H12A  651   0.600   4.486   6.825 -0.4558  1.8347 -0.8343
    6DOPE  H12B  652   0.545   4.509   7.002 -0.0753 -0.7456  0.2627
    6DOPE   C11  653   0.409   4.588   6.850 -0.4927  0.3979 -0.6045
    6DOPE  H11A  654   0.313   4.580   6.906  0.2038 -0.3374  0.5214
    6DOPE  H11B  655   0.378   4.564   6.746  0.8590 -0.4648 -0.8252
    6DOPE     P  656   0.401   4.845   6.776  0.0452  0.0759  0.4296
    6DOPE   O13  657   0.472   4.972   6.802 -0.4544  0.6938  0.2864
    6DOPE   O14  658   0.257   4.837   6.780 -0.6142 -0.0491 -0.2704
    6DOPE   O11  659   0.431   4.792   6.629  0.4029  0.4748  0.4282
    6DOPE   O12  660   0.454   4.724   6.867  0.4035  0.3893  0.2914
    6DOPE    C1  661   0.558   4.756   6.575 -0.3810  0.4921 -0.4618
    6DOPE    HA  662   0.594   4.663   6.624 -0.7723  1.2786  1.4067
    6DOPE    HB  663   0.631   4.834   6.605  1.0626 -1.4234  1.3167
    6DOPE    C2  664   0.575   4.737   6.421 -0.3417  0.8417 -0.7691
    6DOPE    HS  665   0.677   4.713   6.383 -0.2354 -1.3769  0.7656
    6DOPE   O21  666   0.521   4.851   6.352  0.5351 -0.0567  0.0024
    6DOPE   C21  667   0.598   4.952   6.351  0.3636  0.2089  0.2423
    6DOPE   O22  668   0.714   4.957   6.395 -0.2253 -0.0705 -0.2409
    6DOPE   C22  669   0.537   5.069   6.270 -0.4847  0.0635 -0.6840
    6DOPE   H2R  670   0.601   5.152   6.305  1.4298 -1.7274  0.2833
    6DOPE   H2S  671   0.430   5.082   6.293 -0.4692  0.2082 -0.6918
    6DOPE    C3  672   0.489   4.614   6.394 -0.1539 -0.7111  0.1781
    6DOPE    HX  673   0.386   4.645   6.422  0.4167  1.0529  0.4614
    6DOPE    HY  674   0.509   4.518   6.447  1.5862 -1.0741 -1.0764
    6DOPE   O31  675   0.493   4.589   6.253 -0.3368 -0.0847  0.2148
    6DOPE   C31  676   0.604   4.522   6.216  0.3361  0.1518  0.4683
    6DOPE   O32  677   0.694   4.479   6.286 -0.1267 -0.4818 -0.6470
    6DOPE   C32  678   0.590   4.494   6.064  0.9142  0.1860 -0.5581
    6DOPE   H2X  679   0.651   4.402   6.048  1.3533  0.2909  0.4763
    6DOPE   H2Y  680   0.485   4.464   6.047  0.4003  1.1260  0.8166
    6DOPE   C23  681   0.559   5.064   6.112 -0.3695 -0.4007  0.0572
    6DOPE   H3R  682   0.533   5.162   6.067  0.4634 -1.0928 -2.0234
    6DOPE   H3S  683   0.499   4.989   6.056 -1.3144  0.2303  0.1863
    6DOPE   C24  684   0.703   5.045   6.077 -0.3181 -0.2651  0.3816
    6DOPE   H4R  685   0.722   4.941   6.113  0.7014  0.2858  1.5005
    6DOPE   H4S  686   0.766   5.111   6.141  1.0313 -0.4628 -0.7023
    6DOPE   C25  687   0.734   5.068   5.931 -0.4019 -0.4164  0.5173
    6DOPE   H5R  688   0.662   5.009   5.871 -0.5838  1.1927 -0.9092
    6DOPE   H5S  689   0.839   5.032   5.919 -0.2597 -0.4623  1.7720
    6DOPE   C26  690   0.721   5.217   5.891 -0.1622  0.6992 -0.2702
    6DOPE   H6R  691   0.818   5.271   5.905 -0.8191  2.0024 -0.5617
    6DOPE   H6S  692   0.656   5.268   5.964 -0.0237 -1.1343  1.2033
    6DOPE   C27  693   0.661   5.230   5.753 -0.3495  0.0614  0.2695
    6DOPE   H7R  694   0.624   5.335   5.742 -2.1780 -0.6399 -0.7710
    6DOPE   H7S  695   0.571   5.166   5.741 -0.9131  0.8966 -0.0939
    6DOPE   C28  696   0.754   5.187   5.631  0.3119 -0.1336 -0.2525
    6DOPE   H8R  697   0.687   5.176   5.542  1.2957 -1.2715 -0.8798
    6DOPE   H8S  698   0.790   5.083   5.643  1.0230  0.0262 -0.8895
    6DOPE   C29  699   0.854   5.294   5.607 -0.6326 -0.4656  0.7131
    6DOPE   H9R  700   0.808   5.394   5.612 -0.9659 -0.1934 -3.7181
    6DOPE  C210  701   0.989   5.282   5.591 -0.0905 -0.4824  0.2872
    6DOPE  H10R  702   1.055   5.369   5.581  0.8719 -1.2529 -0.2162
    6DOPE  C211  703   1.071   5.149   5.598  0.5386  0.3635  0.2891
    6DOPE  H11R  704   1.152   5.137   5.523  1.5860 -1.9220  1.6548
    6DOPE  H11S  705   1.007   5.065   5.565  0.4477  0.4165  0.3311
    6DOPE  C212  706   1.124   5.100   5.732 -0.3048 -0.7441  0.1463
    6DOPE  H12R  707   1.050   5.128   5.810  1.0005  1.1531  0.7716
    6DOPE  H12S  708   1.216   5.158   5.752 -1.6843  2.3971 -1.8618
    6DOPE  C213  709   1.147   4.948   5.734  0.1989  0.1053  0.1719
    6DOPE  H13R  710   1.167   4.903   5.634  2.0431  1.4050 -0.0861
    6DOPE  H13S  711   1.054   4.900   5.772  1.3912  0.5924  4.0857
    6DOPE  C214  712   1.255   4.901   5.836 -0.6164 -0.1901 -0.3300
    6DOPE  H14R  713   1.236   4.791   5.842  0.0225 -0.3252 -0.7103
    6DOPE  H14S  714   1.230   4.943   5.936  0.2497  2.7435 -1.2513
    6DOPE  C215  715   1.395   4.938   5.784 -0.2970  0.1223  0.1990
    6DOPE  H15R  716   1.396   5.049   5.775  1.9936  0.2381  1.1628
    6DOPE  H15S  717   1.407   4.893   5.684  0.9290 -2.7557  1.5110
    6DOPE  C216  718   1.505   4.881   5.863 -0.7189 -0.1664  0.3790
    6DOPE  H16R  719   1.490   4.773   5.882  0.3828 -0.3901  0.0663
    6DOPE  H16S  720   1.507   4.929   5.964 -0.9571 -1.1306  0.8478
    6DOPE  C217  721   1.648   4.905   5.811 -0.6972  0.9801  0.2771
    6DOPE  H17R  722   1.662   4.838   5.724  1.3513  0.6138  0.8600
    6DOPE  H17S  723   1.724   4.871   5.883  0.8459  2.3974 -0.6102
    6DOPE  C218  724   1.684   5.045   5.767 -0.1321  0.5575  0.1457
    6DOPE  H18R  725   1.791   5.050   5.736 -0.3401  3.1920 -0.3732
    6DOPE  H18S  726   1.667   5.127   5.840  2.1254  0.4519  0.8726
    6DOPE  H18T  727   1.619   5.066   5.680 -0.4733 -2.9228 -0.5951
    6DOPE   C33  728   0.640   4.604   5.966  0.3859 -0.1888 -1.1209
    6DOPE   H3X  729   0.744   4.627   5.995  0.1241 -0.8092  0.4285
    6DOPE   H3Y  730   0.603   4.706   5.989 -0.4110 -0.9604  1.2991
    6DOPE   C34  731   0.612   4.577   5.817  0.9304 -0.5556  0.0800
    6DOPE   H4X  732   0.655   4.484   5.774 -3.0914 -1.5159 -2.4396
    6DOPE   H4Y  733   0.503   4.569   5.793  1.1197 -0.6167 -0.8040
    6DOPE   C35  734   0.659   4.693   5.728 -0.3683  0.4241 -0.3798
    6DOPE   H5X  735   0.768   4.707   5.746 -0.2091  0.1263 -1.0678
    6DOPE   H5Y  736   0.618   4.788   5.768 -1.7377  0.1651 -1.1095
    6DOPE   C36  737   0.620   4.681   5.584  0.2961 -0.2227 -0.1962
    6DOPE   H6X  738   0.512   4.654   5.576  0.7554 -2.0839 -0.5034
    6DOPE   H6Y  739   0.667   4.592   5.538  0.0341 -0.9176  0.8386
    6DOPE   C37  740   0.642   4.804   5.499 -0.3238 -0.4052  0.2357
    6DOPE   H7X  741   0.604   4.896   5.548  3.1275  1.6481 -0.5550
    6DOPE   H7Y  742   0.751   4.822   5.488 -0.7094  0.4256 -3.3392
    6DOPE   C38  743   0.594   4.774   5.358  0.1484  0.6528 -0.1604
    6DOPE   H8X  744   0.488   4.744   5.369  0.5614 -1.0727 -0.5250
    6DOPE   H8Y  745   0.649   4.685   5.320 -2.0670 -0.1204 -1.7102
    6DOPE   C39  746   0.615   4.891   5.271  0.3627 -0.4319 -0.6457
    6DOPE   H9X  747   0.538   4.970   5.277  0.8363 -0.0586  1.2880
    6DOPE  C310  748   0.716   4.911   5.188 -0.3520  0.5077 -0.0968
    6DOPE  H10X  749   0.725   5.007   5.136  1.5221 -0.9604 -2.7791
    6DOPE  C311  750   0.834   4.820   5.154 -0.9490 -0.0618 -0.5896
    6DOPE  H11X  751   0.860   4.745   5.231  0.7088 -0.1724 -1.2073
    6DOPE  H11Y  752   0.808   4.759   5.065 -1.1330  0.1372 -0.6732
    6DOPE  C312  753   0.961   4.904   5.127  0.2075 -0.1043 -0.2153
    6DOPE  H12X  754   0.985   4.952   5.225 -0.1652 -1.0468  0.3452
    6DOPE  H12Y  755   0.945   4.978   5.045 -1.4299  2.7114  2.4152
    6DOPE  C313  756   1.076   4.813   5.084 -0.0440  0.5615 -0.4250
    6DOPE  H13X  757   1.171   4.858   5.119 -1.3697  3.1004  0.1505
    6DOPE  H13Y  758   1.067   4.713   5.132  1.9484  1.9409  3.1538
    6DOPE  C314  759   1.083   4.794   4.931 -0.3396  0.1924 -0.2197
    6DOPE  H14X  760   0.988   4.754   4.891 -0.8121  0.2902  0.7743
    6DOPE  H14Y  761   1.154   4.708   4.924  1.9901  1.7819  1.9584
    6DOPE  C315  762   1.145   4.912   4.856  0.0458  0.3969  0.5093
    6DOPE  H15X  763   1.256   4.906   4.867  0.0490 -1.3889 -0.2707
    6DOPE  H15Y  764   1.111   5.010   4.896  1.2353  1.1969 -0.3639
    6DOPE  C316  765   1.104   4.927   4.711  0.6478  0.0230  0.8655
    6DOPE  H16X  766   0.997   4.940   4.686  0.8044  0.9765  0.6663
    6DOPE  H16Y  767   1.130   4.835   4.654 -1.0494  1.0499 -1.7597
    6DOPE  C317  768   1.180   5.038   4.649  0.2158  0.0820 -0.2726
    6DOPE  H17X  769   1.133   5.132   4.686 -0.1241  0.1844 -0.9519
    6DOPE  H17Y  770   1.287   5.036   4.678 -0.0360  3.5205  1.3778
    6DOPE  C318  771   1.154   5.051   4.501 -0.3339  0.4923 -0.8165
    6DOPE  H18X  772   1.206   4.972   4.442 -0.8264 -0.3992 -0.0771
    6DOPE  H18Y  773   1.045   5.042   4.481 -0.3970 -1.6053  0.1959
    6DOPE  H18Z  774   1.198   5.147   4.467  2.3778 -0.0383  0.8701
    7DOPE     N  775   3.416   6.172   7.417  0.2363  0.3126  0.0996
    7DOPE   HN1  776   3.437   6.117   7.503 -1.7412 -3.3821 -1.5688
    7DOPE   HN2  777   3.314   6.193   7.416 -0.5530 -2.9779  0.6985
    7DOPE   HN3  778   3.426   6.102   7.341 -0.5639  0.9175 -0.5815
    7DOPE   C12  779   3.498   6.294   7.389  0.7326 -0.1571 -0.2633
    7DOPE  H12A  780   3.505   6.351   7.484  0.7489 -0.2104 -0.2324
    7DOPE  H12B  781   3.455   6.360   7.310  0.9846  1.0492  0.5820
    7DOPE   C11  782   3.644   6.262   7.360 -0.6305 -0.0770  0.1786
    7DOPE  H11A  783   3.709   6.351   7.374  0.6480 -0.6760 -1.5852
    7DOPE  H11B  784   3.660   6.235   7.253 -0.9716 -2.0184  0.5903
    7DOPE     P  785   3.840   6.160   7.510  0.0499 -0.0564  0.3152
    7DOPE   O13  786   3.850   6.080   7.632  0.2659 -0.6161 -0.8152
    7DOPE   O14  787   3.896   6.298   7.516  0.0563  0.0583 -0.0430
    7DOPE   O11  788   3.921   6.078   7.400 -0.0489 -0.0171  1.0023
    7DOPE   O12  789   3.693   6.154   7.452  0.1786 -0.1633  0.5245
    7DOPE    C1  790   3.985   6.151   7.297 -0.3104  0.8685  0.0785
    7DOPE    HA  791   4.087   6.179   7.332 -0.6087  2.3986 -0.1672
    7DOPE    HB  792   3.932   6.242   7.260 -1.7334  0.3847  0.8667
    7DOPE    C2  793   4.014   6.052   7.185 -0.3696 -0.3503 -0.0049
    7DOPE    HS  794   4.108   5.996   7.202 -0.7497 -1.2616 -0.7644
    7DOPE   O21  795   4.034   6.135   7.066  0.6519  0.2723  0.4151
    7DOPE   C21  796   4.108   6.094   6.967 -0.5589 -0.0263  0.1733
    7DOPE   O22  797   4.159   5.982   6.955  0.4321  0.2687 -0.1398
    7DOPE   C22  798   4.121   6.205   6.867 -0.4097 -0.1570  0.6895
    7DOPE   H2R  799   4.168   6.294   6.916 -0.8940  1.4022 -1.5373
    7DOPE   H2S  800   4.024   6.226   6.819  1.1218  0.7536 -2.2284
    7DOPE    C3  801   3.895   5.953   7.166  0.2195 -0.1325 -0.2250
    7DOPE    HX  802   3.798   6.007   7.158  0.8415  1.0637  0.1468
    7DOPE    HY  803   3.893   5.885   7.254  0.5633  0.7977  0.5173
    7DOPE   O31  804   3.917   5.870   7.054  0.3403 -0.5725 -0.2574
    7DOPE   C31  805   3.831   5.858   6.960  0.3580 -0.3222  0.5859
    7DOPE   O32  806   3.721   5.910   6.962  0.1310  0.5201  0.3719
    7DOPE   C32  807   3.897   5.787   6.837 -0.2501 -0.1421  0.1866
    7DOPE   H2X  808   4.005   5.801   6.856 -0.1432 -0.1996 -0.3843
    7DOPE   H2Y  809   3.862   5.681   6.841  0.0490 -0.3715 -2.1117
    7DOPE   C23  810   4.221   6.166   6.757  0.3617 -0.1100 -0.3230
    7DOPE   H3R  811   4.207   6.062   6.721  0.3762  0.0239 -0.7189
    7DOPE   H3S  812   4.326   6.161   6.794  0.8128  0.9749 -1.3967
    7DOPE   C24  813   4.226   6.271   6.646 -0.3995  0.2319 -0.7880
    7DOPE   H4R  814   4.277   6.360   6.688  2.0323 -0.4057 -2.1921
    7DOPE   H4S  815   4.131   6.307   6.602  1.1238  4.4466 -1.0262
    7DOPE   C25  816   4.315   6.214   6.531 -0.2540  0.1606  0.1058
    7DOPE   H5R  817   4.257   6.195   6.439 -1.1478 -0.7453  0.8332
    7DOPE   H5S  818   4.349   6.114   6.568  0.5827  0.3047 -0.2430
    7DOPE   C26  819   4.432   6.301   6.488  0.3280 -0.5138  0.2991
    7DOPE   H6R  820   4.494   6.250   6.411  1.5813  0.4632  0.6300
    7DOPE   H6S  821   4.486   6.315   6.584 -1.5823  2.2116  1.0946
    7DOPE   C27  822   4.392   6.447   6.440  0.2741 -0.0143  0.5649
    7DOPE   H7R  823   4.489   6.496   6.415 -0.1751  0.6564  0.0942
    7DOPE   H7S  824   4.352   6.494   6.532  1.9156  0.7951  0.9032
    7DOPE   C28  825   4.296   6.439   6.319  0.3846 -0.6080 -0.3960
    7DOPE   H8R  826   4.265   6.542   6.290  0.8626 -0.7630 -1.5360
    7DOPE   H8S  827   4.209   6.378   6.350  0.5877  0.0535  1.6038
    7DOPE   C29  828   4.358   6.390   6.192 -0.6819  0.2451 -0.1772
    7DOPE   H9R  829   4.331   6.285   6.170 -0.3509  0.4616 -1.7588
    7DOPE  C210  830   4.434   6.457   6.103  0.2452  0.7251 -0.3764
    7DOPE  H10R  831   4.481   6.397   6.024  0.4360  1.7917 -1.1093
    7DOPE  C211  832   4.479   6.606   6.109  0.9976 -0.2607  0.7829
    7DOPE  H11R  833   4.589   6.618   6.104  0.8803  0.4789 -2.0339
    7DOPE  H11S  834   4.433   6.661   6.194  0.4799  0.3588  0.1130
    7DOPE  C212  835   4.430   6.693   5.987 -0.8376  0.0320 -0.3556
    7DOPE  H12R  836   4.452   6.800   6.011  3.2153  0.0573 -3.2812
    7DOPE  H12S  837   4.319   6.695   5.982 -0.8720  0.0313  0.3075
    7DOPE  C213  838   4.481   6.650   5.846 -0.2761 -0.0158 -1.3015
    7DOPE  H13R  839   4.441   6.551   5.817  1.8606 -0.4865 -2.8733
    7DOPE  H13S  840   4.591   6.634   5.848 -0.4097 -0.9993  0.4961
    7DOPE  C214  841   4.445   6.756   5.735  0.4534 -0.4237  0.2413
    7DOPE  H14R  842   4.507   6.848   5.745 -0.5403  0.2569  0.2914
    7DOPE  H14S  843   4.338   6.783   5.749  0.3788 -0.3482 -0.4091
    7DOPE  C215  844   4.446   6.680   5.595  0.2073 -0.4441 -0.9596
    7DOPE  H15R  845   4.388   6.585   5.597  1.3250 -1.1408  0.5625
    7DOPE  H15S  846   4.554   6.656   5.589  0.5370  0.8286 -0.4599
    7DOPE  C216  847   4.411   6.770   5.472 -0.7436  0.7154 -0.2633
    7DOPE  H16R  848   4.318   6.826   5.496 -0.8009 -0.5293  2.7816
    7DOPE  H16S  849   4.397   6.717   5.376  1.7248  0.5881 -0.6115
    7DOPE  C217  850   4.522   6.877   5.446 -0.0073 -0.4022 -0.7463
    7DOPE  H17R  851   4.622   6.828   5.440  1.0251  1.6805 -1.6589
    7DOPE  H17S  852   4.524   6.938   5.538  0.4998 -2.2792  0.5422
    7DOPE  C218  853   4.505   6.967   5.320 -0.4305 -0.2341  0.6610
    7DOPE  H18R  854   4.587   7.041   5.312 -2.3785  1.9975  0.2345
    7DOPE  H18S  855   4.414   7.030   5.321  0.3313  0.8778  1.4650
    7DOPE  H18T  856   4.511   6.898   5.232  0.7558  0.6124  0.0471
    7DOPE   C33  857   3.869   5.847   6.696 -0.0416 -0.1126 -0.4827
    7DOPE   H3X  858   3.906   5.952   6.690  1.6312 -0.7161 -1.4132
    7DOPE   H3Y  859   3.762   5.843   6.667 -0.4500 -2.1812  1.0739
    7DOPE   C34  860   3.937   5.775   6.575 -0.3128  0.5741 -0.9662
    7DOPE   H4X  861   4.043   5.769   6.608 -0.7842  0.3991  0.5925
    7DOPE   H4Y  862   3.899   5.673   6.554  0.9167 -0.1526  0.1583
    7DOPE   C35  863   3.917   5.852   6.442  0.1412  0.1490  0.2160
    7DOPE   H5X  864   4.006   5.819   6.385  0.6316  2.4763 -0.4754
    7DOPE   H5Y  865   3.929   5.960   6.468  0.1922  0.5648 -1.3922
    7DOPE   C36  866   3.784   5.815   6.373 -0.2173  0.3622 -0.1893
    7DOPE   H6X  867   3.692   5.842   6.430 -0.5163  2.3247 -1.4851
    7DOPE   H6Y  868   3.788   5.705   6.356 -0.2645  0.5787 -1.8051
    7DOPE   C37  869   3.772   5.876   6.237  0.2836  0.5743  0.5368
    7DOPE   H7X  870   3.770   5.987   6.250  0.0494  0.7060 -0.5575
    7DOPE   H7Y  871   3.866   5.863   6.180  0.7753  1.8308  1.0192
    7DOPE   C38  872   3.651   5.830   6.149 -0.4166 -0.5522 -0.0981
    7DOPE   H8X  873   3.561   5.825   6.212  1.4208  0.1956  2.7577
    7DOPE   H8Y  874   3.669   5.725   6.118  1.6900 -0.2510 -0.0434
    7DOPE   C39  875   3.629   5.922   6.035 -0.0142 -0.1797 -0.2068
    7DOPE   H9X  876   3.596   6.021   6.070  0.4574 -0.6453  1.6438
    7DOPE  C310  877   3.649   5.905   5.909 -0.0832 -0.5957  0.8485
    7DOPE  H10X  878   3.630   5.990   5.841 -0.7072  1.1604  3.0981
    7DOPE  C311  879   3.699   5.774   5.843 -0.1314 -1.5324 -0.2061
    7DOPE  H11X  880   3.760   5.798   5.754  2.0340 -1.3084  1.2514
    7DOPE  H11Y  881   3.757   5.722   5.921 -0.6960 -0.1081  1.2415
    7DOPE  C312  882   3.584   5.683   5.791 -0.3403 -0.0231 -0.6821
    7DOPE  H12X  883   3.515   5.663   5.875  1.5053 -2.3929  0.4205
    7DOPE  H12Y  884   3.636   5.588   5.764 -1.3317  0.3146 -4.2477
    7DOPE  C313  885   3.524   5.719   5.657 -0.3329  0.1313 -0.1296
    7DOPE  H13X  886   3.512   5.829   5.651 -0.3055  0.0764 -1.4558
    7DOPE  H13Y  887   3.605   5.694   5.585  1.2379  0.9181  1.2818
    7DOPE  C314  888   3.395   5.632   5.632  0.3398  0.5558 -0.0257
    7DOPE  H14X  889   3.299   5.665   5.678 -0.1129 -3.1367  2.0710
    7DOPE  H14Y  890   3.422   5.537   5.683 -2.1679 -0.0124  0.3846
    7DOPE  C315  891   3.375   5.605   5.486 -0.3381  0.1871 -0.7215
    7DOPE  H15X  892   3.468   5.559   5.446  0.8452  0.7071  1.2625
    7DOPE  H15Y  893   3.365   5.694   5.421  1.8631  0.6551 -0.5051
    7DOPE  C316  894   3.257   5.512   5.462 -0.3278  0.4873 -0.4557
    7DOPE  H16X  895   3.155   5.546   5.488 -1.3836 -0.7255 -2.7280
    7DOPE  H16Y  896   3.276   5.422   5.526  0.0058  2.4666  2.4325
    7DOPE  C317  897   3.248   5.477   5.315 -0.6900 -0.1395  0.3322
    7DOPE  H17X  898   3.206   5.560   5.256  1.1821  1.2663  0.8674
    7DOPE  H17Y  899   3.354   5.458   5.286 -0.5661  0.3245  0.4711
    7DOPE  C318  900   3.165   5.350   5.300  0.2397 -0.2303  0.7031
    7DOPE  H18X  901   3.169   5.310   5.196  1.8735  1.0046  0.2494
    7DOPE  H18Y  902   3.191   5.266   5.369 -2.0352 -2.9173 -1.4507
    7DOPE  H18Z  903   3.060   5.382   5.317  0.7176  2.6438 -1.0193
    8DOPE     N  904   6.638   4.944   7.878 -0.1710 -0.3564 -0.4284
    8DOPE   HN1  905   6.667   4.847   7.853 -0.4979 -0.2698 -1.1405
    8DOPE   HN2  906   6.546   4.944   7.830 -1.6129 -1.4675  2.1143
    8DOPE   HN3  907   6.693   5.015   7.826  0.6856 -0.6535  0.0477
    8DOPE   C12  908   6.651   4.978   8.026  0.9027  0.3633  0.9620
    8DOPE  H12A  909   6.755   4.961   8.061  0.6465 -0.9361  1.1486
    8DOPE  H12B  910   6.582   4.907   8.077 -2.7609  1.1893 -2.3869
    8DOPE   C11  911   6.589   5.113   8.057  0.3781  0.2981  0.3002
    8DOPE  H11A  912   6.661   5.187   8.017  0.1591  1.2105  1.5274
    8DOPE  H11B  913   6.583   5.117   8.168 -2.5311 -1.2445  0.3124
    8DOPE     P  914   6.392   5.261   7.975 -0.1776  0.0278  0.5891
    8DOPE   O13  915   6.495   5.364   7.997 -0.2897  0.3303  0.3391
    8DOPE   O14  916   6.270   5.265   8.054  0.0307 -0.0359  0.4065
    8DOPE   O11  917   6.356   5.253   7.821  0.0475  0.5964  0.5059
    8DOPE   O12  918   6.455   5.117   7.997  0.0522 -0.2586  0.1934
    8DOPE    C1  919   6.472   5.254   7.734 -0.0225 -0.4726  0.3598
    8DOPE    HA  920   6.504   5.149   7.716  0.8672  0.2150 -2.5495
    8DOPE    HB  921   6.553   5.320   7.772 -0.3678 -0.4697  1.1189
    8DOPE    C2  922   6.426   5.300   7.594 -0.3981 -0.6700 -0.4686
    8DOPE    HS  923   6.369   5.396   7.599 -1.0929 -1.1279  1.3915
    8DOPE   O21  924   6.349   5.193   7.537  0.1528  0.5558 -0.0462
    8DOPE   C21  925   6.260   5.210   7.444  0.3659 -0.1176 -0.2664
    8DOPE   O22  926   6.216   5.318   7.416  0.2493  0.3030 -0.6136
    8DOPE   C22  927   6.232   5.079   7.372  0.2150 -0.6898  0.8568
    8DOPE   H2R  928   6.125   5.072   7.340  0.6554 -0.9158 -0.6698
    8DOPE   H2S  929   6.268   5.000   7.440  1.9405 -0.2126  0.5279
    8DOPE    C3  930   6.547   5.322   7.493 -0.4147  0.6591 -0.4288
    8DOPE    HX  931   6.606   5.228   7.493 -1.7748 -0.2285 -0.9808
    8DOPE    HY  932   6.612   5.404   7.530 -1.5988  1.2732  0.3586
    8DOPE   O31  933   6.503   5.340   7.358 -0.2417 -0.1593 -0.4050
    8DOPE   C31  934   6.611   5.339   7.275 -0.0873  0.1667  0.5229
    8DOPE   O32  935   6.725   5.310   7.308 -0.2470  0.3055 -0.0198
    8DOPE   C32  936   6.556   5.369   7.127  0.1358  0.0186  0.2755
    8DOPE   H2X  937   6.450   5.400   7.131  0.0009  0.0401 -2.1071
    8DOPE   H2Y  938   6.612   5.459   7.093  0.0057  0.3579  0.9300
    8DOPE   C23  939   6.315   5.056   7.248  0.0821 -0.3654  0.8837
    8DOPE   H3R  940   6.423   5.080   7.261 -0.7304  2.8310  2.8031
    8DOPE   H3S  941   6.286   5.131   7.171  0.7887 -0.8731  0.1074
    8DOPE   C24  942   6.311   4.912   7.200  0.6696 -0.6796 -0.3305
    8DOPE   H4R  943   6.356   4.855   7.283  0.6759  0.7969  0.7203
    8DOPE   H4S  944   6.380   4.911   7.113  4.4302  0.4310  2.4071
    8DOPE   C25  945   6.171   4.848   7.174 -0.1560 -0.3840 -0.0593
    8DOPE   H5R  946   6.104   4.897   7.100 -2.7487 -2.9938  0.3945
    8DOPE   H5S  947   6.121   4.854   7.273 -0.5784  1.6554 -0.3373
    8DOPE   C26  948   6.190   4.702   7.131 -0.5358  0.3312  0.7707
    8DOPE   H6R  949   6.096   4.644   7.136  0.7468 -1.8719  0.9002
    8DOPE   H6S  950   6.243   4.657   7.218  0.5408  1.8865  0.9608
    8DOPE   C27  951   6.275   4.665   7.005 -0.3471  0.3973 -0.2517
    8DOPE   H7R  952   6.306   4.558   6.998 -2.0366 -0.0482 -1.6867
    8DOPE   H7S  953   6.366   4.728   6.998  1.3133 -1.9005 -0.7521
    8DOPE   C28  954   6.195   4.690   6.871 -0.3560  0.4791 -0.6821
    8DOPE   H8R  955   6.097   4.640   6.881 -0.7015  1.2311 -0.2261
    8DOPE   H8S  956   6.253   4.626   6.800 -0.2652 -0.0030 -0.1770
    8DOPE   C29  957   6.193   4.830   6.828  0.2619  0.2019 -0.8319
    8DOPE   H9R  958   6.211   4.900   6.911  0.9715 -0.3831 -0.4840
    8DOPE  C210  959   6.161   4.880   6.708 -0.0748 -0.1138  0.1978
    8DOPE  H10R  960   6.171   4.988   6.694 -0.2859 -0.0068  0.8153
    8DOPE  C211  961   6.118   4.813   6.588 -0.2443 -0.7734  1.0615
    8DOPE  H11R  962   6.042   4.877   6.538  0.6436  0.9687  1.8491
    8DOPE  H11S  963   6.074   4.718   6.624 -0.1225 -0.5691  1.7566
    8DOPE  C212  964   6.232   4.772   6.489 -0.2935 -0.0884 -0.1199
    8DOPE  H12R  965   6.312   4.716   6.541  1.4334  0.4030 -2.1223
    8DOPE  H12S  966   6.266   4.874   6.459  0.3550 -0.2890 -0.0688
    8DOPE  C213  967   6.179   4.700   6.361  0.2521 -0.1650 -0.3489
    8DOPE  H13R  968   6.153   4.790   6.301 -0.6089  1.0267  1.6817
    8DOPE  H13S  969   6.084   4.644   6.372  1.1806 -1.6316  0.5359
    8DOPE  C214  970   6.287   4.623   6.283  0.3941  0.7948  0.6444
    8DOPE  H14R  971   6.283   4.522   6.328 -0.5772  0.7765  0.5274
    8DOPE  H14S  972   6.385   4.673   6.300  1.1072  0.1337 -1.2990
    8DOPE  C215  973   6.260   4.618   6.132  1.0817 -0.3677  0.0230
    8DOPE  H15R  974   6.232   4.721   6.100 -1.4504 -0.4972  1.5260
    8DOPE  H15S  975   6.171   4.553   6.113  0.3925  0.6154 -0.2112
    8DOPE  C216  976   6.374   4.568   6.051  0.0377  0.3311  0.8324
    8DOPE  H16R  977   6.398   4.462   6.078 -0.4234 -0.8366 -2.7956
    8DOPE  H16S  978   6.465   4.631   6.058  1.1189 -0.8585 -1.2567
    8DOPE  C217  979   6.337   4.539   5.901 -0.5659 -0.1436 -0.6193
    8DOPE  H17R  980   6.271   4.450   5.911  1.2946 -1.8020 -2.2541
    8DOPE  H17S  981   6.428   4.506   5.847  0.8610 -0.5273  1.8558
    8DOPE  C218  982   6.272   4.662   5.836  0.8671  0.5249  0.9094
    8DOPE  H18R  983   6.214   4.734   5.898 -0.6716  1.5495 -1.5767
    8DOPE  H18S  984   6.188   4.636   5.767 -0.5139 -0.9453  3.0301
    8DOPE  H18T  985   6.345   4.717   5.773  0.3922  2.7415  2.1793
    8DOPE   C33  986   6.585   5.257   7.031 -0.3683  0.3767  0.2625
    8DOPE   H3X  987   6.545   5.159   7.066 -3.2075  0.5522 -2.0723
    8DOPE   H3Y  988   6.695   5.251   7.033 -0.3511  0.6782  0.2450
    8DOPE   C34  989   6.533   5.287   6.890  0.1032 -0.3865 -0.5494
    8DOPE   H4X  990   6.465   5.205   6.857  0.0551 -0.3696 -0.4914
    8DOPE   H4Y  991   6.467   5.377   6.889  0.9776  0.2819  0.2234
    8DOPE   C35  992   6.643   5.315   6.785 -0.6414 -0.0344  1.0699
    8DOPE   H5X  993   6.714   5.230   6.791  0.3039  0.5773 -0.8061
    8DOPE   H5Y  994   6.698   5.401   6.828  0.6377 -0.9644  1.3512
    8DOPE   C36  995   6.592   5.354   6.641 -0.2463  0.1354  0.1910
    8DOPE   H6X  996   6.503   5.418   6.659  0.0307  0.6532 -0.2559
    8DOPE   H6Y  997   6.551   5.270   6.582 -0.1410 -0.3282  0.7752
    8DOPE   C37  998   6.693   5.434   6.555  0.3287  0.2721 -1.4764
    8DOPE   H7X  999   6.630   5.468   6.470 -0.6181 -0.2889 -1.0279
    8DOPE   H7Y 1000   6.734   5.513   6.620  1.2190 -1.8545  0.7044
    8DOPE   C38 1001   6.821   5.347   6.521  0.7065 -0.2832 -0.8463
    8DOPE   H8X 1002   6.856   5.297   6.614  2.2899  0.3330 -1.0679
    8DOPE   H8Y 1003   6.895   5.428   6.500  0.9146 -0.1722  0.2643
    8DOPE   C39 1004   6.795   5.252   6.406  0.5221 -0.5076 -0.9586
    8DOPE   H9X 1005   6.706   5.190   6.422  0.1523  0.2154 -0.1354
    8DOPE  C310 1006   6.865   5.256   6.286 -0.7134  0.7609  0.0690
    8DOPE  H10X 1007   6.832   5.175   6.219 -1.7362 -0.9925  2.5641
    8DOPE  C311 1008   6.982   5.348   6.246  0.4839 -0.0759  0.0930
    8DOPE  H11X 1009   6.955   5.420   6.166 -1.1602  0.7595  1.3551
    8DOPE  H11Y 1010   7.018   5.397   6.338  2.4411 -0.9677 -0.1353
    8DOPE  C312 1011   7.105   5.274   6.190  0.1036 -0.6458 -0.1013
    8DOPE  H12X 1012   7.082   5.225   6.093 -0.4727 -1.6287  0.5181
    8DOPE  H12Y 1013   7.139   5.199   6.265  2.3743  1.0835  0.7171
    8DOPE  C313 1014   7.227   5.369   6.164  0.4843  0.2799 -0.0353
    8DOPE  H13X 1015   7.256   5.412   6.262  0.7125 -1.0356  0.5040
    8DOPE  H13Y 1016   7.313   5.308   6.128  0.6646  1.3117 -1.4195
    8DOPE  C314 1017   7.202   5.482   6.055  0.7396  0.2830  0.0719
    8DOPE  H14X 1018   7.300   5.529   6.033  0.6227  0.4866 -0.0152
    8DOPE  H14Y 1019   7.131   5.560   6.091 -0.1233 -0.8026  0.8168
    8DOPE  C315 1020   7.153   5.434   5.924  0.3455  0.0406  0.6752
    8DOPE  H15X 1021   7.043   5.416   5.922 -0.0495  2.1297  1.5786
    8DOPE  H15Y 1022   7.207   5.341   5.896  0.1003  0.5598 -1.8187
    8DOPE  C316 1023   7.176   5.530   5.809 -0.4879  0.0495  0.1730
    8DOPE  H16X 1024   7.286   5.532   5.795 -0.3863  1.9133  0.9848
    8DOPE  H16Y 1025   7.152   5.630   5.851  1.1829 -0.3273  2.1825
    8DOPE  C317 1026   7.106   5.485   5.678 -0.8300 -0.0524  0.4451
    8DOPE  H17X 1027   7.144   5.550   5.596 -2.1204 -0.5424 -0.5788
    8DOPE  H17Y 1028   7.145   5.384   5.655  0.3721  0.3958  0.4392
    8DOPE  C318 1029   6.949   5.482   5.686  0.3932  0.3660  0.1297
    8DOPE  H18X 1030   6.909   5.581   5.717  0.6850  0.8380 -0.9345
    8DOPE  H18Y 1031   6.897   5.407   5.749 -0.4452  0.7440 -0.0900
    8DOPE  H18Z 1032   6.914   5.444   5.588  0.5569 -2.0503  0.9635
    9DOPE     N 1033   1.085   3.895   7.354  0.4791 -0.1339  0.3087
    9DOPE   HN1 1034   1.188   3.910   7.347  0.2364  0.9734 -1.2006
    9DOPE   HN2 1035   1.075   3.803   7.307  1.8566 -0.5975  0.8487
    9DOPE   HN3 1036   1.042   3.973   7.301  0.5565 -0.3416 -0.0596
    9DOPE   C12 1037   1.035   3.876   7.493 -0.3995 -0.4150 -0.6320
    9DOPE  H12A 1038   1.069   3.968   7.546 -1.7961  0.4674 -1.2149
    9DOPE  H12B 1039   1.090   3.794   7.543  1.1145  0.4406 -0.8430
    9DOPE   C11 1040   0.885   3.865   7.493 -0.0090 -0.3045  0.2550
    9DOPE  H11A 1041   0.841   3.888   7.592  0.1258  1.9845 -0.1628
    9DOPE  H11B 1042   0.849   3.761   7.480  0.1798 -0.3017 -0.3709
    9DOPE     P 1043   0.671   3.971   7.369  0.1308 -0.2023 -0.0488
    9DOPE   O13 1044   0.656   4.059   7.256 -0.0662 -0.5576 -0.0628
    9DOPE   O14 1045   0.611   4.006   7.496  0.3353 -0.2131 -0.4539
    9DOPE   O11 1046   0.623   3.823   7.326 -0.1885 -0.0343 -0.4459
    9DOPE   O12 1047   0.828   3.955   7.389 -0.4996 -0.3705  0.7914
    9DOPE    C1 1048   0.687   3.756   7.220 -0.1411  0.7134  0.0165
    9DOPE    HA 1049   0.692   3.648   7.249  0.1595  1.4308  2.9132
    9DOPE    HB 1050   0.797   3.774   7.215  0.5809 -2.3144  2.0714
    9DOPE    C2 1051   0.609   3.774   7.085 -1.0653 -0.1810  0.3889
    9DOPE    HS 1052   0.617   3.881   7.056  1.2855 -0.7214 -1.2494
    9DOPE   O21 1053   0.480   3.724   7.091  0.5469  0.4156 -0.0303
    9DOPE   C21 1054   0.392   3.785   7.015 -0.4427 -0.5287 -0.5874
    9DOPE   O22 1055   0.409   3.892   6.959 -0.4738  0.3234 -0.0251
    9DOPE   C22 1056   0.268   3.693   7.011 -0.5504 -1.0612  0.7357
    9DOPE   H2R 1057   0.232   3.680   7.116  0.1338  4.1918  1.9044
    9DOPE   H2S 1058   0.311   3.597   6.976 -0.7741 -0.5571 -0.9772
    9DOPE    C3 1059   0.680   3.691   6.970  0.1200 -0.0514  0.3504
    9DOPE    HX 1060   0.680   3.584   6.997  0.6668 -0.0626  0.3101
    9DOPE    HY 1061   0.782   3.733   6.975 -0.0700  0.4547  0.1254
    9DOPE   O31 1062   0.615   3.701   6.842  0.3266 -0.2577  0.0095
    9DOPE   C31 1063   0.633   3.807   6.770  0.3904 -0.9787  0.2281
    9DOPE   O32 1064   0.712   3.900   6.799  0.2070  0.6277 -0.2003
    9DOPE   C32 1065   0.560   3.786   6.640  0.0832  0.3927 -0.0752
    9DOPE   H2X 1066   0.525   3.681   6.633 -0.4373  0.4997  0.7564
    9DOPE   H2Y 1067   0.467   3.847   6.635  0.5277  1.0957  0.1117
    9DOPE   C23 1068   0.150   3.749   6.926  0.3738  0.4616  0.1039
    9DOPE   H3R 1069   0.131   3.850   6.968 -1.3981  0.4126 -0.5133
    9DOPE   H3S 1070   0.058   3.694   6.953  0.7069  0.9299  2.4731
    9DOPE   C24 1071   0.168   3.753   6.774 -0.3565 -0.3312  0.0391
    9DOPE   H4R 1072   0.174   3.647   6.740  1.4202 -1.8005  4.2683
    9DOPE   H4S 1073   0.266   3.796   6.742 -1.2655  0.1411 -2.3310
    9DOPE   C25 1074   0.054   3.821   6.696  0.2127  0.4260  0.7303
    9DOPE   H5R 1075   0.033   3.923   6.735 -1.1710  0.6159 -0.4319
    9DOPE   H5S 1076  -0.036   3.762   6.725  0.1828 -0.2140 -0.6299
    9DOPE   C26 1077   0.074   3.824   6.545 -0.0996 -0.4683 -0.6133
    9DOPE   H6R 1078  -0.020   3.840   6.488 -1.2908 -2.0943  0.7807
    9DOPE   H6S 1079   0.132   3.738   6.506  0.8855  0.7266 -1.8767
    9DOPE   C27 1080   0.171   3.943   6.522 -0.6134  1.0195 -0.3370
    9DOPE   H7R 1081   0.245   3.953   6.604 -1.7548 -0.2511  0.8990
    9DOPE   H7S 1082   0.111   4.036   6.522 -0.8496  0.8688  0.5580
    9DOPE   C28 1083   0.251   3.927   6.391  0.4602  0.2035 -0.3758
    9DOPE   H8R 1084   0.312   3.838   6.416 -2.6863 -1.4318  2.1923
    9DOPE   H8S 1085   0.310   4.020   6.378  0.9414 -0.1813 -1.0596
    9DOPE   C29 1086   0.167   3.894   6.272  0.0561 -0.1294 -0.4791
    9DOPE   H9R 1087   0.101   3.978   6.246 -0.2253 -0.0778  0.3729
    9DOPE  C210 1088   0.163   3.780   6.203 -0.0822  0.5197  0.5624
    9DOPE  H10R 1089   0.092   3.771   6.119  0.7119  0.7908 -0.1576
    9DOPE  C211 1090   0.249   3.657   6.232 -0.7464 -0.9900 -0.2249
    9DOPE  H11R 1091   0.195   3.574   6.180 -1.1956 -0.1497 -1.1388
    9DOPE  H11S 1092   0.255   3.638   6.341  0.6309  1.1312  0.1050
    9DOPE  C212 1093   0.389   3.677   6.168 -0.3195 -0.3522 -0.0372
    9DOPE  H12R 1094   0.448   3.584   6.182 -0.3024 -0.3141  0.1422
    9DOPE  H12S 1095   0.447   3.758   6.217 -0.0030  0.1405 -1.1808
    9DOPE  C213 1096   0.392   3.714   6.014  0.9171  0.4574  0.1909
    9DOPE  H13R 1097   0.502   3.714   5.997  0.5563  0.5873 -2.7067
    9DOPE  H13S 1098   0.348   3.816   6.004 -1.4562 -0.5571 -0.4898
    9DOPE  C214 1099   0.327   3.610   5.918 -0.0480  0.9774  0.2096
    9DOPE  H14R 1100   0.222   3.588   5.946  0.4683 -1.1497  0.5799
    9DOPE  H14S 1101   0.393   3.523   5.933  1.0169  2.1414  2.8783
    9DOPE  C215 1102   0.345   3.657   5.775 -0.3332  0.6509 -0.9299
    9DOPE  H15R 1103   0.448   3.688   5.750  0.3272 -0.2146  0.5957
    9DOPE  H15S 1104   0.277   3.744   5.759  1.7464  2.0328 -2.7969
    9DOPE  C216 1105   0.296   3.545   5.674  0.8480  0.1294 -0.2181
    9DOPE  H16R 1106   0.193   3.516   5.703  0.5101  0.6705 -0.8423
    9DOPE  H16S 1107   0.360   3.454   5.679  1.8922  0.8200 -0.4290
    9DOPE  C217 1108   0.297   3.606   5.531  0.1751  0.4902  0.2763
    9DOPE  H17R 1109   0.399   3.648   5.516 -0.2614  2.4515  2.2287
    9DOPE  H17S 1110   0.216   3.682   5.529 -0.1071  0.2596  1.6309
    9DOPE  C218 1111   0.280   3.506   5.411 -0.2481 -0.3854 -0.5485
    9DOPE  H18R 1112   0.354   3.422   5.410 -0.7763 -0.8632 -0.3256
    9DOPE  H18S 1113   0.290   3.568   5.320  1.9620 -1.0784 -0.8420
    9DOPE  H18T 1114   0.181   3.455   5.406 -0.1262 -0.7075  0.1625
    9DOPE   C33 1115   0.630   3.807   6.504 -0.5111 -0.0564  0.5108
    9DOPE   H3X 1116   0.648   3.916   6.489  0.4698 -0.0199  1.7781
    9DOPE   H3Y 1117   0.570   3.771   6.418  2.2524 -1.4701 -0.9416
    9DOPE   C34 1118   0.768   3.731   6.490 -0.0922 -0.0809  0.5055
    9DOPE   H4X 1119   0.838   3.764   6.570 -0.3583  1.7728  0.0137
    9DOPE   H4Y 1120   0.739   3.624   6.502 -1.8645  0.2731 -0.4590
    9DOPE   C35 1121   0.832   3.738   6.353 -0.1856 -0.3654 -0.6828
    9DOPE   H5X 1122   0.941   3.746   6.371 -0.3775  1.6921 -0.2243
    9DOPE   H5Y 1123   0.792   3.828   6.302  0.4972 -0.9866 -2.4003
    9DOPE   C36 1124   0.823   3.610   6.275 -0.1882 -0.3860  0.1242
    9DOPE   H6X 1125   0.720   3.619   6.236 -0.3787  1.1882  0.9244
    9DOPE   H6Y 1126   0.837   3.515   6.332  1.7114 -0.0289  0.3304
    9DOPE   C37 1127   0.916   3.597   6.150 -0.0408 -0.8476  0.3354
    9DOPE   H7X 1128   0.912   3.698   6.105  0.1616 -0.7844  0.4560
    9DOPE   H7Y 1129   1.019   3.566   6.177  0.4611  0.0928 -0.4587
    9DOPE   C38 1130   0.869   3.505   6.039 -0.3791  0.2070 -0.3190
    9DOPE   H8X 1131   0.857   3.407   6.090  0.1342 -0.7069 -1.8956
    9DOPE   H8Y 1132   0.946   3.479   5.963 -0.8632 -1.5968 -0.2312
    9DOPE   C39 1133   0.741   3.547   5.976  0.1514 -0.0722 -0.6182
    9DOPE   H9X 1134   0.682   3.633   6.011  0.2787  0.3940 -1.5242
    9DOPE  C310 1135   0.682   3.468   5.884  0.0720 -0.1578 -0.4464
    9DOPE  H10X 1136   0.579   3.498   5.857 -0.1090  1.4921  1.7834
    9DOPE  C311 1137   0.726   3.336   5.825 -0.0097  0.0853  0.5857
    9DOPE  H11X 1138   0.803   3.288   5.888 -0.2560  0.3694  1.1120
    9DOPE  H11Y 1139   0.645   3.262   5.813 -0.7706  1.0357 -0.4174
    9DOPE  C312 1140   0.792   3.354   5.686  0.0990  0.5134 -0.0642
    9DOPE  H12X 1141   0.859   3.269   5.660  2.1415  1.2786  2.3217
    9DOPE  H12Y 1142   0.866   3.437   5.688  2.8074 -1.7683  1.2107
    9DOPE  C313 1143   0.686   3.378   5.572 -0.5743  0.3448 -0.0694
    9DOPE  H13X 1144   0.619   3.290   5.562 -1.9043  1.3476 -0.2841
    9DOPE  H13Y 1145   0.615   3.460   5.595 -0.1696  1.1885 -1.7387
    9DOPE  C314 1146   0.748   3.408   5.430  0.2242  0.3928 -1.0032
    9DOPE  H14X 1147   0.813   3.322   5.408 -1.3376 -1.3491  0.7850
    9DOPE  H14Y 1148   0.806   3.502   5.445  0.0670  0.4940 -1.0280
    9DOPE  C315 1149   0.652   3.402   5.309 -0.3957  0.2708  0.0156
    9DOPE  H15X 1150   0.588   3.493   5.303 -1.2775 -0.2596  1.1121
    9DOPE  H15Y 1151   0.582   3.317   5.316 -1.1421  0.8092 -0.7407
    9DOPE  C316 1152   0.735   3.399   5.180  0.4727 -0.1320 -0.1352
    9DOPE  H16X 1153   0.659   3.406   5.100  0.7987 -0.6315 -0.4950
    9DOPE  H16Y 1154   0.796   3.306   5.171  3.8053  1.6297  1.8698
    9DOPE  C317 1155   0.819   3.522   5.163  0.9715 -0.3114 -0.5225
    9DOPE  H17X 1156   0.747   3.607   5.169  0.3114 -0.9214  0.5668
    9DOPE  H17Y 1157   0.888   3.528   5.249 -1.1821 -1.9085  1.4430
    9DOPE  C318 1158   0.892   3.510   5.036 -0.5745 -0.3713 -0.3048
    9DOPE  H18X 1159   0.963   3.593   5.015 -0.0287 -1.1731 -1.8200
    9DOPE  H18Y 1160   0.950   3.415   5.032  0.9237  0.4631  0.6464
    9DOPE  H18Z 1161   0.820   3.525   4.953  0.2527 -1.0093 -1.1570
   10DOPE     N 1162   1.119   4.947   6.767  0.0094 -0.2741  0.7365
   10DOPE   HN1 1163   1.202   4.986   6.718 -1.7890  0.8872 -1.6031
   10DOPE   HN2 1164   1.135   4.851   6.803 -1.5161 -1.4315 -1.4414
   10DOPE   HN3 1165   1.042   4.947   6.697  0.5690 -0.4740  0.1034
   10DOPE   C12 1166   1.086   5.043   6.874 -0.4246 -0.3212  0.4923
   10DOPE  H12A 1167   1.180   5.081   6.919  0.9018 -2.4726 -0.3245
   10DOPE  H12B 1168   1.039   4.987   6.959 -2.6366  0.4022 -0.1739
   10DOPE   C11 1169   1.007   5.162   6.814  0.2866  0.9866  0.3659
   10DOPE  H11A 1170   1.013   5.231   6.902  1.1342 -0.3871  1.4269
   10DOPE  H11B 1171   0.904   5.128   6.792  0.4993  0.0130  0.8388
   10DOPE     P 1172   1.070   5.347   6.632  0.1839 -0.0941  0.0701
   10DOPE   O13 1173   1.199   5.379   6.574 -0.0729  0.1713  0.4266
   10DOPE   O14 1174   1.015   5.443   6.734 -1.2035  0.0244  0.5052
   10DOPE   O11 1175   0.971   5.312   6.518  0.2200  1.1738 -1.1490
   10DOPE   O12 1176   1.078   5.209   6.700 -0.6419  0.0865  0.5366
   10DOPE    C1 1177   1.010   5.245   6.395 -0.3604 -0.2511  0.3948
   10DOPE    HA 1178   0.934   5.168   6.373 -0.3561 -0.0258 -0.4362
   10DOPE    HB 1179   1.113   5.202   6.401 -0.1639  0.3566  1.9401
   10DOPE    C2 1180   1.006   5.336   6.269  0.2875 -0.8835  0.8696
   10DOPE    HS 1181   1.064   5.428   6.291 -2.1677  1.2723 -1.0838
   10DOPE   O21 1182   0.871   5.368   6.237 -0.3756  0.4402  0.7053
   10DOPE   C21 1183   0.821   5.485   6.287  0.1991  0.6659  0.5207
   10DOPE   O22 1184   0.883   5.580   6.326 -0.1021 -0.3432  0.0511
   10DOPE   C22 1185   0.669   5.477   6.297  0.2124 -0.4194  0.2604
   10DOPE   H2R 1186   0.634   5.456   6.401 -2.1179 -1.5745 -0.6941
   10DOPE   H2S 1187   0.624   5.407   6.224 -0.4332 -0.6911  0.8976
   10DOPE    C3 1188   1.078   5.266   6.149 -0.7891 -0.0031  0.4971
   10DOPE    HX 1189   1.013   5.181   6.121 -1.0590  0.0992  0.8073
   10DOPE    HY 1190   1.171   5.223   6.191  0.1412  0.6626 -0.8279
   10DOPE   O31 1191   1.107   5.363   6.040  0.6910 -0.3528 -0.7681
   10DOPE   C31 1192   1.214   5.441   6.057  0.6602  0.3120 -0.4101
   10DOPE   O32 1193   1.285   5.447   6.154 -0.4329  0.0419  0.2211
   10DOPE   C32 1194   1.210   5.526   5.935 -0.5572  1.1664  0.1616
   10DOPE   H2X 1195   1.250   5.460   5.855 -1.3790  1.0601 -0.1753
   10DOPE   H2Y 1196   1.109   5.557   5.902 -0.5860  0.2192 -0.7205
   10DOPE   C23 1197   0.603   5.614   6.277 -0.3789 -0.1901  0.9506
   10DOPE   H3R 1198   0.632   5.681   6.360  0.7826  1.0417 -0.4101
   10DOPE   H3S 1199   0.493   5.598   6.283 -0.4330 -0.4334 -0.2589
   10DOPE   C24 1200   0.625   5.680   6.142 -0.6861 -0.5177  0.1539
   10DOPE   H4R 1201   0.727   5.725   6.141 -0.7704 -0.3093  0.6425
   10DOPE   H4S 1202   0.548   5.760   6.132 -2.0797 -1.9772 -1.4431
   10DOPE   C25 1203   0.612   5.590   6.018 -0.1510  0.7096 -0.5536
   10DOPE   H5R 1204   0.514   5.536   6.019 -1.2900  2.6832  0.0615
   10DOPE   H5S 1205   0.698   5.520   6.014  0.4831  1.5138 -3.3916
   10DOPE   C26 1206   0.612   5.663   5.879  0.0437 -0.2502  0.6752
   10DOPE   H6R 1207   0.548   5.752   5.892  1.8422  0.8720  2.4894
   10DOPE   H6S 1208   0.562   5.607   5.797  0.2884  1.9924 -1.0942
   10DOPE   C27 1209   0.751   5.717   5.832 -0.0974  0.0010  0.1065
   10DOPE   H7R 1210   0.819   5.637   5.794 -0.0899 -0.2998  0.7490
   10DOPE   H7S 1211   0.808   5.747   5.923 -1.4876  0.0819  0.9725
   10DOPE   C28 1212   0.735   5.832   5.726  0.4912  0.1978  0.0618
   10DOPE   H8R 1213   0.738   5.936   5.766 -0.0165  0.2577 -0.0551
   10DOPE   H8S 1214   0.631   5.818   5.690  0.3878 -1.1689  0.8533
   10DOPE   C29 1215   0.818   5.809   5.596 -0.0620 -0.5747  0.3833
   10DOPE   H9R 1216   0.905   5.877   5.592  0.4698 -1.2596 -3.3607
   10DOPE  C210 1217   0.794   5.710   5.509  0.0207 -1.2837  0.0918
   10DOPE  H10R 1218   0.864   5.704   5.424  1.8023  1.9893  1.1804
   10DOPE  C211 1219   0.683   5.606   5.509  0.0616 -0.0574  0.0947
   10DOPE  H11R 1220   0.656   5.561   5.607  1.0735  0.5068  0.6542
   10DOPE  H11S 1221   0.726   5.524   5.448 -0.2120 -0.2377  0.1420
   10DOPE  C212 1222   0.555   5.668   5.450 -0.1575  1.1120  0.4579
   10DOPE  H12R 1223   0.578   5.708   5.349 -1.5576  1.5985  0.3030
   10DOPE  H12S 1224   0.523   5.747   5.522 -1.7012 -2.1639  3.6721
   10DOPE  C213 1225   0.437   5.569   5.441 -0.2899 -0.2324  0.3909
   10DOPE  H13R 1226   0.339   5.621   5.447 -0.4162 -0.1223 -1.7735
   10DOPE  H13S 1227   0.440   5.526   5.544  1.3295 -0.7754  0.1460
   10DOPE  C214 1228   0.444   5.479   5.316 -0.6857  0.3906  0.8306
   10DOPE  H14R 1229   0.448   5.542   5.225 -2.1405  0.3204  0.6836
   10DOPE  H14S 1230   0.351   5.418   5.311  0.2315 -1.0929  1.1945
   10DOPE  C215 1231   0.554   5.373   5.295  0.6777  0.1360 -0.0837
   10DOPE  H15R 1232   0.583   5.346   5.399  0.1268  2.7666  0.8384
   10DOPE  H15S 1233   0.642   5.421   5.247  0.2276  1.1395  0.0773
   10DOPE  C216 1234   0.515   5.237   5.237  0.8079 -0.2594  0.2192
   10DOPE  H16R 1235   0.439   5.188   5.300 -0.2223 -1.0918 -1.5799
   10DOPE  H16S 1236   0.607   5.174   5.247 -0.1382 -1.6586  0.3277
   10DOPE  C217 1237   0.463   5.240   5.091  0.0551  0.1378  0.4021
   10DOPE  H17R 1238   0.529   5.294   5.020  0.2038  0.3656  0.7104
   10DOPE  H17S 1239   0.373   5.305   5.091  0.2423  0.5344 -2.3484
   10DOPE  C218 1240   0.422   5.100   5.041  0.1371  0.0168  0.1154
   10DOPE  H18R 1241   0.353   5.111   4.954 -0.4582  0.3305  0.6174
   10DOPE  H18S 1242   0.382   5.024   5.112  1.4091 -1.2001 -0.4269
   10DOPE  H18T 1243   0.512   5.050   4.999 -1.0830 -1.8622 -0.3956
   10DOPE   C33 1244   1.308   5.647   5.947  0.0306  0.2704  0.0987
   10DOPE   H3X 1245   1.406   5.607   5.981 -0.3263  0.6672  1.6379
   10DOPE   H3Y 1246   1.279   5.723   6.023 -0.8260 -0.2835  0.3355
   10DOPE   C34 1247   1.314   5.722   5.815  0.6956  0.4799 -0.0130
   10DOPE   H4X 1248   1.381   5.810   5.825 -1.1134  1.7366  2.1250
   10DOPE   H4Y 1249   1.360   5.672   5.727  3.2301  0.7941  1.0492
   10DOPE   C35 1250   1.181   5.791   5.783  0.3460 -0.2071  0.2750
   10DOPE   H5X 1251   1.147   5.831   5.881  1.0162  0.5905  0.1874
   10DOPE   H5Y 1252   1.101   5.717   5.758 -1.2310  1.1591  1.0683
   10DOPE   C36 1253   1.201   5.898   5.666  0.3478  0.5066  0.3393
   10DOPE   H6X 1254   1.271   5.982   5.687  0.7234  0.1637  0.4714
   10DOPE   H6Y 1255   1.102   5.938   5.634  0.5759 -0.4544 -1.7278
   10DOPE   C37 1256   1.262   5.837   5.532  0.0175 -0.2582  0.5951
   10DOPE   H7X 1257   1.368   5.806   5.542  0.4752  0.1112 -2.2367
   10DOPE   H7Y 1258   1.201   5.745   5.514  1.3954 -0.8102 -1.5662
   10DOPE   C38 1259   1.244   5.932   5.410 -0.1908 -0.1885  0.4107
   10DOPE   H8X 1260   1.287   6.031   5.437 -0.3774 -0.5037  1.9719
   10DOPE   H8Y 1261   1.135   5.952   5.408 -0.4991 -1.6042  1.6128
   10DOPE   C39 1262   1.306   5.876   5.278 -0.3356  0.1324 -0.3161
   10DOPE   H9X 1263   1.303   5.766   5.269  0.7457  0.0692 -0.0066
   10DOPE  C310 1264   1.344   5.950   5.166 -0.4159  0.3980  0.4259
   10DOPE  H10X 1265   1.382   5.892   5.080  1.0386 -0.9075  1.8744
   10DOPE  C311 1266   1.340   6.093   5.145 -0.3509  0.1176 -0.3094
   10DOPE  H11X 1267   1.309   6.157   5.229  0.5801 -0.2719  0.3538
   10DOPE  H11Y 1268   1.435   6.131   5.101 -1.9452  3.3508 -1.1966
   10DOPE  C312 1269   1.219   6.117   5.046  0.1329  0.6163  0.0312
   10DOPE  H12X 1270   1.207   6.228   5.044  0.2772  0.6798  1.5279
   10DOPE  H12Y 1271   1.127   6.083   5.098  0.2467 -0.4495 -0.4569
   10DOPE  C313 1272   1.237   6.062   4.904  0.4385 -0.1989  0.3480
   10DOPE  H13X 1273   1.325   6.111   4.858  2.3187 -3.0151  0.6861
   10DOPE  H13Y 1274   1.256   5.953   4.899 -0.4618 -0.3323 -0.3930
   10DOPE  C314 1275   1.108   6.092   4.812 -0.7900  0.4139  0.3230
   10DOPE  H14X 1276   1.090   6.201   4.820 -5.5762 -0.2609  1.6157
   10DOPE  H14Y 1277   1.021   6.059   4.872  0.2455 -0.8171  1.2070
   10DOPE  C315 1278   1.115   6.030   4.673  0.1030  0.4398  0.5251
   10DOPE  H15X 1279   1.122   5.919   4.680  0.4698  0.3956 -0.3480
   10DOPE  H15Y 1280   1.212   6.048   4.622  0.3405  0.7019  1.0612
   10DOPE  C316 1281   1.000   6.068   4.585  0.7440  0.2529  0.2633
   10DOPE  H16X 1282   0.901   6.035   4.624 -0.2921  1.9883 -0.8032
   10DOPE  H16Y 1283   1.004   6.003   4.495 -0.7475 -1.2288  1.1912
   10DOPE  C317 1284   1.000   6.220   4.545  0.7672  0.1234 -0.3514
   10DOPE  H17X 1285   0.976   6.285   4.632  1.1192 -0.6086  0.3111
   10DOPE  H17Y 1286   1.097   6.260   4.508  1.1788 -0.7227 -0.2233
   10DOPE  C318 1287   0.895   6.250   4.440 -0.0240  0.0004 -0.0480
   10DOPE  H18X 1288   0.926   6.232   4.335 -0.3289  1.2582 -0.3707
   10DOPE  H18Y 1289   0.808   6.186   4.465  0.9976 -1.3522  0.1366
   10DOPE  H18Z 1290   0.866   6.357   4.443 -0.5589 -0.1176 -0.8973
   11DOPE     N 1291   0.265   1.495   7.378 -0.8914 -0.6916  0.1870
   11DOPE   HN1 1292   0.260   1.570   7.306  0.9928 -1.1395 -0.4658
   11DOPE   HN2 1293   0.347   1.435   7.352 -1.6113 -1.6093 -0.0397
   11DOPE   HN3 1294   0.186   1.427   7.382 -1.3824 -0.1410 -0.1384
   11DOPE   C12 1295   0.293   1.548   7.522  0.4306  0.2455  0.1837
   11DOPE  H12A 1296   0.401   1.572   7.517 -0.0250  2.4959 -0.0678
   11DOPE  H12B 1297   0.267   1.464   7.590 -2.8776  1.3536  0.5002
   11DOPE   C11 1298   0.195   1.668   7.549 -0.5242 -0.0914 -0.1524
   11DOPE  H11A 1299   0.232   1.728   7.634  0.0970  0.1742 -0.6011
   11DOPE  H11B 1300   0.105   1.623   7.597 -0.8103  0.1857 -0.4226
   11DOPE     P 1301   0.249   1.883   7.413  0.2050  0.3057  0.3316
   11DOPE   O13 1302   0.382   1.855   7.353 -0.0381  0.0574 -0.1023
   11DOPE   O14 1303   0.242   1.966   7.536  0.7741 -0.4769 -0.5121
   11DOPE   O11 1304   0.159   1.955   7.311 -0.5952 -0.6421  0.0282
   11DOPE   O12 1305   0.170   1.751   7.437  0.0007 -0.5170 -0.3606
   11DOPE    C1 1306   0.057   1.897   7.225  0.3735 -0.6065 -0.1087
   11DOPE    HA 1307   0.061   1.786   7.216 -0.8140 -0.5491 -2.1267
   11DOPE    HB 1308   0.077   1.934   7.122  0.5653 -1.3864 -0.3634
   11DOPE    C2 1309  -0.094   1.933   7.265 -0.0348 -0.4088  0.4861
   11DOPE    HS 1310  -0.162   1.862   7.213 -1.1304  0.4530  0.6962
   11DOPE   O21 1311  -0.125   2.072   7.226 -0.2337  0.1124 -0.5925
   11DOPE   C21 1312  -0.230   2.090   7.153  0.7993  0.1647  0.3511
   11DOPE   O22 1313  -0.311   2.003   7.124  0.1319  0.4179 -0.1843
   11DOPE   C22 1314  -0.247   2.235   7.107 -0.8826 -0.6557  0.1159
   11DOPE   H2R 1315  -0.195   2.301   7.179  0.5584 -1.3436 -0.2699
   11DOPE   H2S 1316  -0.356   2.254   7.090 -0.7796  0.6952  0.8061
   11DOPE    C3 1317  -0.120   1.915   7.414 -0.6806 -0.9569 -0.1275
   11DOPE    HX 1318  -0.050   1.972   7.478 -1.8507  0.3989 -0.0029
   11DOPE    HY 1319  -0.087   1.813   7.443 -0.8837 -0.7540  0.8589
   11DOPE   O31 1320  -0.259   1.935   7.442 -0.0288 -0.4797  0.0116
   11DOPE   C31 1321  -0.294   2.048   7.485 -0.1585 -0.6961 -0.3084
   11DOPE   O32 1322  -0.220   2.143   7.513 -0.2774 -0.1348 -0.2479
   11DOPE   C32 1323  -0.449   2.048   7.518 -0.2330 -0.7210 -0.3549
   11DOPE   H2X 1324  -0.467   1.938   7.519  1.5005 -1.0416  0.4213
   11DOPE   H2Y 1325  -0.473   2.112   7.605 -0.1863  0.2864 -1.0650
   11DOPE   C23 1326  -0.184   2.265   6.967 -0.4175  0.0171  0.1265
   11DOPE   H3R 1327  -0.076   2.243   6.979 -0.9996 -1.4720  3.8546
   11DOPE   H3S 1328  -0.192   2.375   6.950 -0.6155  0.4563  2.6760
   11DOPE   C24 1329  -0.246   2.190   6.847 -0.8967 -0.2615 -0.0930
   11DOPE   H4R 1330  -0.355   2.215   6.846 -1.4539 -2.1463  2.8500
   11DOPE   H4S 1331  -0.241   2.082   6.872  0.9355  0.3144  2.4235
   11DOPE   C25 1332  -0.183   2.228   6.710  0.8900 -0.0145 -0.6343
   11DOPE   H5R 1333  -0.089   2.169   6.704  2.3524  2.3372 -2.8782
   11DOPE   H5S 1334  -0.144   2.331   6.712 -2.5275  1.5366 -3.0422
   11DOPE   C26 1335  -0.277   2.228   6.584 -0.1275  0.1430 -0.8407
   11DOPE   H6R 1336  -0.342   2.316   6.603  0.5357  0.5168 -0.2375
   11DOPE   H6S 1337  -0.345   2.141   6.574  0.2137 -0.1803 -0.4036
   11DOPE   C27 1338  -0.210   2.243   6.451 -0.2249 -0.0228  0.4349
   11DOPE   H7R 1339  -0.136   2.166   6.420  0.6678  1.9085 -2.7316
   11DOPE   H7S 1340  -0.145   2.332   6.464 -1.6319  1.0678  0.1924
   11DOPE   C28 1341  -0.321   2.273   6.347  0.4639  0.1852  0.3002
   11DOPE   H8R 1342  -0.277   2.318   6.256  1.0104 -0.3386  0.3041
   11DOPE   H8S 1343  -0.400   2.344   6.381  0.8611  1.1612 -0.7479
   11DOPE   C29 1344  -0.381   2.138   6.321 -0.1458 -0.2198 -0.5408
   11DOPE   H9R 1345  -0.422   2.086   6.409 -0.9916  1.8850  0.3916
   11DOPE  C210 1346  -0.371   2.077   6.202 -0.1342 -0.2270 -0.1110
   11DOPE  H10R 1347  -0.436   1.991   6.183 -2.1322  0.9779  0.9480
   11DOPE  C211 1348  -0.310   2.133   6.080  0.0579  0.2488  0.4185
   11DOPE  H11R 1349  -0.277   2.051   6.012  1.9825  0.0876  1.4756
   11DOPE  H11S 1350  -0.208   2.171   6.102  1.1351 -2.0552 -0.3595
   11DOPE  C212 1351  -0.398   2.240   6.007  0.5625  0.6302 -0.3816
   11DOPE  H12R 1352  -0.396   2.338   6.060 -0.8709 -0.4715  1.8530
   11DOPE  H12S 1353  -0.503   2.207   6.024  0.5875  0.3304 -0.8115
   11DOPE  C213 1354  -0.371   2.257   5.864 -0.9440 -0.3076  0.0612
   11DOPE  H13R 1355  -0.332   2.164   5.817 -0.9604 -0.4370  0.3062
   11DOPE  H13S 1356  -0.279   2.318   5.849 -1.3831  0.3031 -0.1846
   11DOPE  C214 1357  -0.480   2.331   5.786  0.1510 -0.1066  0.0945
   11DOPE  H14R 1358  -0.491   2.432   5.831 -4.2719 -0.0027 -0.7938
   11DOPE  H14S 1359  -0.578   2.283   5.803 -0.6653  1.5275  0.1443
   11DOPE  C215 1360  -0.449   2.339   5.633  0.0365 -0.5071  0.0298
   11DOPE  H15R 1361  -0.420   2.235   5.604 -2.7911 -1.6301  0.8850
   11DOPE  H15S 1362  -0.363   2.408   5.622 -2.1747  2.1867 -1.5917
   11DOPE  C216 1363  -0.564   2.397   5.551  0.2338 -0.6291  0.0289
   11DOPE  H16R 1364  -0.583   2.496   5.598 -1.7407 -0.7039 -0.5128
   11DOPE  H16S 1365  -0.655   2.336   5.568 -0.4847  0.0873 -1.1159
   11DOPE  C217 1366  -0.523   2.432   5.411  1.3418 -0.0827  0.0103
   11DOPE  H17R 1367  -0.509   2.337   5.354 -1.4278 -1.0280  0.7130
   11DOPE  H17S 1368  -0.425   2.483   5.415  1.9710 -1.2947  0.6511
   11DOPE  C218 1369  -0.622   2.507   5.324 -0.2541 -0.4590 -0.7596
   11DOPE  H18R 1370  -0.588   2.486   5.220 -1.3954 -2.5367 -0.7686
   11DOPE  H18S 1371  -0.634   2.615   5.346  0.9288 -0.5707  0.5615
   11DOPE  H18T 1372  -0.726   2.468   5.327 -0.1683 -0.6135  1.0561
   11DOPE   C33 1373  -0.523   2.116   7.402 -0.8342  0.5879  0.3295
   11DOPE   H3X 1374  -0.629   2.091   7.424 -0.2273 -1.1294  1.4612
   11DOPE   H3Y 1375  -0.501   2.076   7.300 -1.7869  1.2244 -0.1403
   11DOPE   C34 1376  -0.506   2.267   7.399 -0.3581 -0.3379 -0.3648
   11DOPE   H4X 1377  -0.533   2.322   7.491 -0.2347  2.1388 -1.7309
   11DOPE   H4Y 1378  -0.399   2.296   7.393 -0.0618 -1.3927 -0.5267
   11DOPE   C35 1379  -0.567   2.343   7.279  0.3059 -0.0804  0.0538
   11DOPE   H5X 1380  -0.677   2.329   7.290  0.0975  0.7361 -0.8087
   11DOPE   H5Y 1381  -0.533   2.292   7.186  1.6694 -0.6961  0.8620
   11DOPE   C36 1382  -0.548   2.497   7.286 -0.3363 -0.2475  0.2715
   11DOPE   H6X 1383  -0.440   2.525   7.291 -0.3510 -0.1470  0.0332
   11DOPE   H6Y 1384  -0.597   2.537   7.377 -1.6491 -0.0596 -0.4994
   11DOPE   C37 1385  -0.626   2.572   7.178 -0.6089  0.4197 -0.5343
   11DOPE   H7X 1386  -0.724   2.521   7.168  0.2857 -1.4750 -0.0688
   11DOPE   H7Y 1387  -0.645   2.675   7.214 -0.4636 -0.2065  1.4948
   11DOPE   C38 1388  -0.557   2.580   7.036  0.1313 -0.3436 -0.2127
   11DOPE   H8X 1389  -0.448   2.600   7.051  0.0695 -0.4477  0.4173
   11DOPE   H8Y 1390  -0.607   2.666   6.986 -2.1936 -1.3243  0.3255
   11DOPE   C39 1391  -0.577   2.452   6.952 -0.1843 -0.4918  0.6055
   11DOPE   H9X 1392  -0.589   2.362   7.013  0.2430 -0.8536  0.1555
   11DOPE  C310 1393  -0.585   2.440   6.816 -0.0626 -0.2057  0.0160
   11DOPE  H10X 1394  -0.601   2.336   6.783  0.4781 -0.6084  0.9930
   11DOPE  C311 1395  -0.574   2.541   6.699 -0.4488 -0.4993 -0.4520
   11DOPE  H11X 1396  -0.575   2.644   6.741  0.3698  0.5995 -2.8989
   11DOPE  H11Y 1397  -0.479   2.521   6.645 -0.3188 -1.3374  0.0728
   11DOPE  C312 1398  -0.684   2.528   6.594 -0.6306 -0.6641  0.1366
   11DOPE  H12X 1399  -0.781   2.495   6.638 -0.2193 -2.5562 -0.2844
   11DOPE  H12Y 1400  -0.655   2.451   6.519 -1.2949  0.7273 -1.6076
   11DOPE  C313 1401  -0.699   2.647   6.496 -0.7395  0.2946  0.0563
   11DOPE  H13X 1402  -0.737   2.734   6.553 -0.3367 -0.1883  1.0864
   11DOPE  H13Y 1403  -0.605   2.682   6.448 -1.1055  0.7488 -0.3295
   11DOPE  C314 1404  -0.791   2.618   6.375  0.6216 -0.0052  0.0020
   11DOPE  H14X 1405  -0.890   2.589   6.419  1.1713 -0.5597  0.9076
   11DOPE  H14Y 1406  -0.752   2.527   6.324  0.3664  0.1859 -0.5373
   11DOPE  C315 1407  -0.796   2.741   6.285 -0.1143  0.9267  0.4218
   11DOPE  H15X 1408  -0.695   2.787   6.286  0.3903 -0.0616 -0.7949
   11DOPE  H15Y 1409  -0.867   2.815   6.326 -1.3016  0.2013 -0.2567
   11DOPE  C316 1410  -0.837   2.713   6.142 -0.5219  0.1759  0.1484
   11DOPE  H16X 1411  -0.947   2.700   6.129 -0.7092  2.2004 -0.6688
   11DOPE  H16Y 1412  -0.783   2.620   6.116  0.0678  0.8542 -1.1567
   11DOPE  C317 1413  -0.785   2.818   6.039  0.4231 -0.1381 -0.4085
   11DOPE  H17X 1414  -0.825   2.918   6.065 -0.7055 -0.6025 -0.3036
   11DOPE  H17Y 1415  -0.676   2.810   6.057  0.2164 -0.5373  0.7523
   11DOPE  C318 1416  -0.811   2.783   5.896 -0.4562  0.0571 -0.2108
   11DOPE  H18X 1417  -0.759   2.851   5.825 -2.1682 -0.4203 -2.0371
   11DOPE  H18Y 1418  -0.790   2.675   5.880  1.8839  0.5204 -0.6198
   11DOPE  H18Z 1419  -0.918   2.788   5.867 -0.5084 -0.3085 -0.0859
   12DOPE     N 1420   4.149   6.405   7.598  0.0280 -0.2826 -0.1372
   12DOPE   HN1 1421   4.122   6.468   7.676 -2.4978  0.6348 -1.6481
   12DOPE   HN2 1422   4.061   6.384   7.548 -0.8555  2.5606  0.0392
   12DOPE   HN3 1423   4.183   6.319   7.646  3.1046  0.0113 -1.5250
   12DOPE   C12 1424   4.259   6.468   7.520 -0.2672  0.1347  0.2567
   12DOPE  H12A 1425   4.214   6.564   7.488 -1.5178 -0.3344  0.5423
   12DOPE  H12B 1426   4.279   6.400   7.434  1.1780  0.8928 -0.0292
   12DOPE   C11 1427   4.378   6.504   7.609 -0.4134 -0.8677  0.4610
   12DOPE  H11A 1428   4.461   6.541   7.545 -0.4713  0.2537  1.0181
   12DOPE  H11B 1429   4.416   6.417   7.666  0.9429 -0.0087  0.9006
   12DOPE     P 1430   4.425   6.691   7.792 -0.3537 -0.4767 -0.1430
   12DOPE   O13 1431   4.502   6.594   7.874  0.4499  0.3929  0.2317
   12DOPE   O14 1432   4.339   6.791   7.866 -0.4817  0.0783 -0.0522
   12DOPE   O11 1433   4.509   6.764   7.680 -0.2897 -0.4635  0.1192
   12DOPE   O12 1434   4.328   6.606   7.702  0.2155  0.0869  0.6720
   12DOPE    C1 1435   4.443   6.829   7.570 -0.2255 -0.3975 -0.3624
   12DOPE    HA 1436   4.450   6.938   7.587  1.5975 -0.4991 -0.2900
   12DOPE    HB 1437   4.334   6.811   7.558 -0.4268  0.8363 -0.5360
   12DOPE    C2 1438   4.511   6.820   7.430  0.7570  0.2490  0.1767
   12DOPE    HS 1439   4.451   6.877   7.356 -1.0429 -1.1722  0.4470
   12DOPE   O21 1440   4.506   6.681   7.382  0.0992  0.3048  0.7519
   12DOPE   C21 1441   4.481   6.661   7.255 -0.0035 -0.0967  0.0655
   12DOPE   O22 1442   4.462   6.750   7.174  0.3455  0.2311  0.1285
   12DOPE   C22 1443   4.482   6.514   7.226 -0.5034 -0.1758 -0.0677
   12DOPE   H2R 1444   4.375   6.484   7.219 -0.9818  1.7474 -2.4092
   12DOPE   H2S 1445   4.525   6.455   7.310  1.6836  0.8199 -0.4306
   12DOPE    C3 1446   4.659   6.872   7.423 -0.7997 -0.3398 -0.3874
   12DOPE    HX 1447   4.725   6.816   7.493  2.4741  0.9902 -2.1855
   12DOPE    HY 1448   4.668   6.976   7.460 -0.6429 -1.1347  1.9611
   12DOPE   O31 1449   4.719   6.862   7.294  0.0449 -0.3826  0.2145
   12DOPE   C31 1450   4.732   6.970   7.221  0.2276 -0.6904 -0.0498
   12DOPE   O32 1451   4.693   7.083   7.251  0.3473 -0.3820  0.0811
   12DOPE   C32 1452   4.805   6.937   7.094  0.2253  0.4674 -0.2828
   12DOPE   H2X 1453   4.737   6.880   7.027 -0.0296 -0.1371  0.4839
   12DOPE   H2Y 1454   4.828   7.035   7.047 -1.7698  0.8221 -0.5897
   12DOPE   C23 1455   4.549   6.493   7.084  0.2096 -0.9252 -0.5948
   12DOPE   H3R 1456   4.597   6.395   7.102  1.2350 -0.2073  0.7113
   12DOPE   H3S 1457   4.624   6.572   7.060  0.8380 -0.3156  2.8478
   12DOPE   C24 1458   4.453   6.482   6.961 -0.4922 -0.0571 -0.0257
   12DOPE   H4R 1459   4.371   6.417   6.996 -1.6049  0.2657 -1.9170
   12DOPE   H4S 1460   4.501   6.426   6.878 -0.8314  0.5379 -0.6348
   12DOPE   C25 1461   4.389   6.620   6.911  0.0983  1.1016 -0.1181
   12DOPE   H5R 1462   4.329   6.666   6.992 -1.2005 -2.2818  1.0234
   12DOPE   H5S 1463   4.311   6.583   6.841 -0.0893  1.1889  0.0435
   12DOPE   C26 1464   4.486   6.724   6.854  0.0750  0.1039 -0.3578
   12DOPE   H6R 1465   4.557   6.766   6.928 -1.9372  1.2615  1.0127
   12DOPE   H6S 1466   4.433   6.820   6.836  2.2330  0.9776 -2.5777
   12DOPE   C27 1467   4.570   6.687   6.725  0.5651  0.3270  0.1901
   12DOPE   H7R 1468   4.499   6.639   6.654 -1.6584 -0.5567  2.8271
   12DOPE   H7S 1469   4.642   6.610   6.760 -1.7388 -1.6289  0.9155
   12DOPE   C28 1470   4.650   6.795   6.661 -0.3702  0.5316  0.3404
   12DOPE   H8R 1471   4.729   6.742   6.604  1.8223  2.2641  1.5858
   12DOPE   H8S 1472   4.688   6.856   6.746  0.3057 -1.0674  1.2343
   12DOPE   C29 1473   4.573   6.886   6.561  0.2739 -0.2474  0.9861
   12DOPE   H9R 1474   4.464   6.893   6.575  0.3021 -0.1171  1.1418
   12DOPE  C210 1475   4.634   6.938   6.449  0.2061 -0.2828 -0.3297
   12DOPE  H10R 1476   4.571   7.003   6.385 -2.1872 -2.2322 -0.1040
   12DOPE  C211 1477   4.779   6.921   6.409  0.0563 -1.0942  0.0597
   12DOPE  H11R 1478   4.829   6.841   6.468 -0.8894  0.8256  3.8015
   12DOPE  H11S 1479   4.831   7.015   6.435 -0.2711 -0.8494 -0.1640
   12DOPE  C212 1480   4.803   6.877   6.267 -0.3984  0.1373 -0.3912
   12DOPE  H12R 1481   4.734   6.793   6.248 -1.4845  1.0515 -0.5959
   12DOPE  H12S 1482   4.909   6.844   6.259  0.2336  1.3904  1.7833
   12DOPE  C213 1483   4.775   6.978   6.153  0.3326 -0.0110 -0.2140
   12DOPE  H13R 1484   4.836   7.071   6.161  1.7347 -0.8859 -0.3084
   12DOPE  H13S 1485   4.668   7.006   6.148  0.3886  0.8796  2.2161
   12DOPE  C214 1486   4.816   6.921   6.019 -0.5339  0.4670  0.0062
   12DOPE  H14R 1487   4.760   6.827   5.996  1.2173 -0.3852 -0.9772
   12DOPE  H14S 1488   4.922   6.893   6.030 -0.8072 -0.1897  1.0837
   12DOPE  C215 1489   4.806   7.010   5.894  0.6559  0.1945 -0.3478
   12DOPE  H15R 1490   4.870   7.101   5.901  1.4246 -0.4083  0.7444
   12DOPE  H15S 1491   4.701   7.045   5.886  0.6717  0.3111 -0.0572
   12DOPE  C216 1492   4.840   6.931   5.767 -0.2055 -0.1188 -0.4659
   12DOPE  H16R 1493   4.776   6.840   5.769 -1.0127  0.4494  0.4548
   12DOPE  H16S 1494   4.946   6.903   5.783 -0.2348  1.1330  2.5403
   12DOPE  C217 1495   4.830   7.006   5.631  0.3242  0.9071 -0.5031
   12DOPE  H17R 1496   4.884   7.103   5.639  1.8094  0.0160  1.0948
   12DOPE  H17S 1497   4.723   7.033   5.615  0.3157  0.7884 -0.6494
   12DOPE  C218 1498   4.898   6.924   5.520  0.5607 -0.3582  0.1045
   12DOPE  H18R 1499   4.880   6.976   5.424  0.8096 -1.3626 -0.5030
   12DOPE  H18S 1500   4.861   6.820   5.509 -0.4371  0.1733 -2.0821
   12DOPE  H18T 1501   5.004   6.917   5.552  0.8965  0.4431 -0.7836
   12DOPE   C33 1502   4.938   6.848   7.110  0.2572  0.0853  0.0416
   12DOPE   H3X 1503   4.910   6.755   7.164  1.1890  0.6975  1.6618
   12DOPE   H3Y 1504   5.012   6.903   7.172  0.9409  0.0394 -0.7281
   12DOPE   C34 1505   5.002   6.795   6.981 -0.1323 -0.2345 -0.0409
   12DOPE   H4X 1506   5.071   6.710   6.998 -0.1018  0.1586  2.0237
   12DOPE   H4Y 1507   4.920   6.756   6.916  1.9847 -0.8567 -2.5237
   12DOPE   C35 1508   5.070   6.903   6.892  0.7206  0.0775  0.2484
   12DOPE   H5X 1509   5.161   6.933   6.949  0.6016  0.0814  0.4361
   12DOPE   H5Y 1510   4.996   6.985   6.879  0.0029 -0.9508 -2.9740
   12DOPE   C36 1511   5.113   6.854   6.750  1.0821 -0.2428  0.2581
   12DOPE   H6X 1512   5.138   6.950   6.701 -1.4289  0.5025  0.3445
   12DOPE   H6Y 1513   5.026   6.808   6.700  0.5663  0.8763  0.1097
   12DOPE   C37 1514   5.242   6.769   6.743  0.0125 -0.6752 -0.2502
   12DOPE   H7X 1515   5.318   6.811   6.812 -1.4143  0.6803  0.5611
   12DOPE   H7Y 1516   5.217   6.669   6.785 -0.4829 -0.5273 -0.1895
   12DOPE   C38 1517   5.300   6.748   6.606 -0.1049 -0.7015  0.1993
   12DOPE   H8X 1518   5.384   6.677   6.620 -0.2535 -1.1498 -0.9944
   12DOPE   H8Y 1519   5.345   6.841   6.564  0.4575  0.1753  2.6063
   12DOPE   C39 1520   5.197   6.692   6.509 -0.2156 -0.4558  0.1335
   12DOPE   H9X 1521   5.172   6.585   6.515 -0.5320 -0.6609 -3.1628
   12DOPE  C310 1522   5.130   6.766   6.421  0.0595  0.8916 -0.9048
   12DOPE  H10X 1523   5.053   6.713   6.362 -1.7337  2.2948  0.0567
   12DOPE  C311 1524   5.149   6.913   6.397 -0.5623 -0.0410 -0.1494
   12DOPE  H11X 1525   5.051   6.965   6.391 -0.4049  0.6132  2.1645
   12DOPE  H11Y 1526   5.196   6.964   6.484  0.8661 -1.6521  0.0721
   12DOPE  C312 1527   5.239   6.943   6.268 -0.2988 -0.3979 -0.8031
   12DOPE  H12X 1528   5.202   6.893   6.177  0.9860 -1.1939 -0.9144
   12DOPE  H12Y 1529   5.342   6.914   6.297 -0.3682  1.9157  2.4018
   12DOPE  C313 1530   5.263   7.096   6.244 -0.4865 -0.1117  0.4529
   12DOPE  H13X 1531   5.169   7.136   6.202  0.2023  1.2109  0.1103
   12DOPE  H13Y 1532   5.275   7.141   6.345 -0.6978  1.9791 -0.4078
   12DOPE  C314 1533   5.373   7.133   6.140  0.4045  0.2211  0.1032
   12DOPE  H14X 1534   5.471   7.093   6.173  1.0102  1.6721  0.1231
   12DOPE  H14Y 1535   5.389   7.243   6.148 -0.9965  0.5029 -0.6906
   12DOPE  C315 1536   5.338   7.073   6.002  0.5610 -0.7591  0.2487
   12DOPE  H15X 1537   5.228   7.068   5.988  0.6927 -2.3527 -0.4369
   12DOPE  H15Y 1538   5.373   6.968   5.991  0.4746 -0.6640 -1.1846
   12DOPE  C316 1539   5.413   7.161   5.895 -0.1345 -0.5183 -0.4341
   12DOPE  H16X 1540   5.520   7.161   5.927  0.1576 -2.0663 -1.2821
   12DOPE  H16Y 1541   5.367   7.262   5.902  2.5338  0.8271 -1.0853
   12DOPE  C317 1542   5.386   7.085   5.765  0.2184  0.6645  0.3151
   12DOPE  H17X 1543   5.403   6.977   5.785  1.1782  0.5638 -0.9225
   12DOPE  H17Y 1544   5.281   7.094   5.731 -0.5723 -2.5945  1.4843
   12DOPE  C318 1545   5.477   7.127   5.653 -0.2786  0.1450  0.5625
   12DOPE  H18X 1546   5.480   7.237   5.635  2.5388 -0.1908 -1.7601
   12DOPE  H18Y 1547   5.579   7.084   5.658  0.5000  1.9368  0.9859
   12DOPE  H18Z 1548   5.439   7.089   5.555 -2.8026  1.0762  1.0990
   13DOPE     N 1549   3.233   0.827   7.244  0.4410  0.0444 -0.5886
   13DOPE   HN1 1550   3.300   0.899   7.277  0.5099 -1.5526  3.2630
   13DOPE   HN2 1551   3.161   0.872   7.184  1.9853  0.5191 -2.1807
   13DOPE   HN3 1552   3.192   0.772   7.322  1.7931  0.9554  0.8219
   13DOPE   C12 1553   3.318   0.750   7.156  0.3116  0.0400 -0.4099
   13DOPE  H12A 1554   3.285   0.645   7.142 -0.5754  0.0716  1.2200
   13DOPE  H12B 1555   3.423   0.751   7.191 -0.0181 -1.1463  0.6696
   13DOPE   C11 1556   3.320   0.832   7.024 -0.5396 -0.2013 -0.3997
   13DOPE  H11A 1557   3.231   0.824   6.958 -0.0657  0.0360 -1.0792
   13DOPE  H11B 1558   3.400   0.784   6.965 -1.0649 -1.7479  0.0785
   13DOPE     P 1559   3.363   1.078   6.936 -0.3138 -0.4065 -0.4087
   13DOPE   O13 1560   3.476   1.160   6.995  0.4332 -0.3372  0.6373
   13DOPE   O14 1561   3.230   1.144   6.908  0.9422 -0.8976 -0.9304
   13DOPE   O11 1562   3.421   0.995   6.811 -0.5186 -0.3905  0.7533
   13DOPE   O12 1563   3.351   0.964   7.046 -0.0118  0.5935 -0.2796
   13DOPE    C1 1564   3.558   0.987   6.775 -0.2714 -0.4036  0.6239
   13DOPE    HA 1565   3.576   0.889   6.725  0.0024  1.0924 -2.4528
   13DOPE    HB 1566   3.626   1.002   6.861  1.0266  0.0138 -0.4493
   13DOPE    C2 1567   3.603   1.109   6.682 -0.4756  0.7681 -0.3657
   13DOPE    HS 1568   3.565   1.196   6.740 -0.5334 -0.7493  2.0382
   13DOPE   O21 1569   3.536   1.089   6.556  0.5809  0.2844  0.6509
   13DOPE   C21 1570   3.532   1.198   6.482 -0.0340 -0.4364  0.1244
   13DOPE   O22 1571   3.549   1.314   6.513  0.7831 -0.3629 -0.5914
   13DOPE   C22 1572   3.511   1.161   6.328  0.5465 -0.4313 -0.7530
   13DOPE   H2R 1573   3.402   1.142   6.320 -0.0594  1.3963  1.7838
   13DOPE   H2S 1574   3.569   1.067   6.315 -0.6934 -1.6035  1.5012
   13DOPE    C3 1575   3.748   1.118   6.664 -0.8521 -0.1284  0.0927
   13DOPE    HX 1576   3.795   1.154   6.758  0.5860  0.6389 -0.8696
   13DOPE    HY 1577   3.782   1.198   6.594  1.4510 -1.0787  0.0162
   13DOPE   O31 1578   3.807   0.986   6.639 -0.2952 -0.1501  0.0753
   13DOPE   C31 1579   3.817   0.959   6.513 -0.1042 -0.8956 -0.1796
   13DOPE   O32 1580   3.800   1.033   6.417 -0.1215 -0.0783  0.6910
   13DOPE   C32 1581   3.857   0.814   6.486  0.3082 -0.1149 -0.1601
   13DOPE   H2X 1582   3.902   0.804   6.385  1.6192 -1.7138  0.5404
   13DOPE   H2Y 1583   3.943   0.785   6.550  0.8931 -1.1739 -1.3945
   13DOPE   C23 1584   3.549   1.288   6.254 -0.3607 -0.3750 -0.7074
   13DOPE   H3R 1585   3.655   1.307   6.281 -0.6947 -0.4266  0.7367
   13DOPE   H3S 1586   3.490   1.377   6.286  0.7011 -0.1103  0.6271
   13DOPE   C24 1587   3.530   1.281   6.097  0.1205  0.2429  0.2337
   13DOPE   H4R 1588   3.424   1.297   6.068  0.4886  2.3093 -0.1125
   13DOPE   H4S 1589   3.551   1.177   6.062 -0.5291 -0.2639  1.3008
   13DOPE   C25 1590   3.624   1.383   6.019  0.2763  0.7503  0.2275
   13DOPE   H5R 1591   3.684   1.448   6.085 -0.3809  2.6052 -0.9415
   13DOPE   H5S 1592   3.553   1.451   5.967  1.1314  1.3633 -0.1491
   13DOPE   C26 1593   3.712   1.325   5.908 -0.3880 -0.4857  0.2214
   13DOPE   H6R 1594   3.783   1.251   5.950 -0.6225 -0.6182  0.3868
   13DOPE   H6S 1595   3.773   1.413   5.877 -0.0692 -1.0247 -0.7105
   13DOPE   C27 1596   3.622   1.279   5.790 -0.0543  0.1371  0.6042
   13DOPE   H7R 1597   3.527   1.246   5.837  1.4310 -1.2018  2.8407
   13DOPE   H7S 1598   3.666   1.189   5.742  1.0338  0.8723  0.1722
   13DOPE   C28 1599   3.612   1.393   5.687  0.9081 -0.3879  0.2024
   13DOPE   H8R 1600   3.711   1.386   5.637  0.3981 -0.1070 -0.8794
   13DOPE   H8S 1601   3.599   1.496   5.725 -0.4293  0.4489 -2.3134
   13DOPE   C29 1602   3.503   1.359   5.586 -0.0763  0.7583 -0.0288
   13DOPE   H9R 1603   3.411   1.315   5.628 -0.9912  1.2565 -1.4336
   13DOPE  C210 1604   3.513   1.364   5.454 -0.1913  0.2451  0.4758
   13DOPE  H10R 1605   3.414   1.354   5.407 -1.1059  0.9115  2.1527
   13DOPE  C211 1606   3.634   1.413   5.372  0.4005  0.0785  0.2932
   13DOPE  H11R 1607   3.715   1.463   5.429  2.4394 -1.0319 -1.4856
   13DOPE  H11S 1608   3.594   1.495   5.309  2.4309 -0.1479 -1.3950
   13DOPE  C212 1609   3.693   1.306   5.278  0.0264  0.1088 -1.0046
   13DOPE  H12R 1610   3.772   1.358   5.220  1.0691  1.4524  1.4311
   13DOPE  H12S 1611   3.607   1.266   5.220 -0.7727  0.6316 -0.2194
   13DOPE  C213 1612   3.776   1.207   5.358 -0.1822 -0.0044  0.6983
   13DOPE  H13R 1613   3.718   1.122   5.401  2.3357 -1.4593  1.4679
   13DOPE  H13S 1614   3.835   1.259   5.437 -2.1142  1.7666  1.0465
   13DOPE  C214 1615   3.877   1.133   5.263 -0.0436  0.3310 -0.3512
   13DOPE  H14R 1616   3.951   1.198   5.211  2.0351 -1.1103  0.6606
   13DOPE  H14S 1617   3.815   1.080   5.187 -1.6556  2.3171 -0.5151
   13DOPE  C215 1618   3.963   1.037   5.345  0.4802  0.2507 -0.7121
   13DOPE  H15R 1619   3.905   0.985   5.424  1.3918 -2.3854 -1.6905
   13DOPE  H15S 1620   4.028   1.102   5.408  0.9124  0.3257 -1.2353
   13DOPE  C216 1621   4.033   0.935   5.252 -0.1593 -0.1545  0.6492
   13DOPE  H16R 1622   4.057   0.984   5.155  0.3486  0.3626  1.0341
   13DOPE  H16S 1623   3.955   0.859   5.229  1.6850 -1.7766 -0.6143
   13DOPE  C217 1624   4.153   0.864   5.317  0.3531  0.3050 -0.2443
   13DOPE  H17R 1625   4.225   0.949   5.319 -2.3533  2.7252  1.8544
   13DOPE  H17S 1626   4.186   0.780   5.252  0.2697 -0.5855  0.8432
   13DOPE  C218 1627   4.130   0.821   5.458  0.2354  0.1978 -0.7316
   13DOPE  H18R 1628   4.044   0.752   5.470  0.3583  0.2388  0.4624
   13DOPE  H18S 1629   4.099   0.907   5.521  0.2321 -1.2336  1.3190
   13DOPE  H18T 1630   4.216   0.773   5.508 -0.9193 -1.2766 -0.1025
   13DOPE   C33 1631   3.735   0.712   6.507 -0.2222 -0.6097 -0.4805
   13DOPE   H3X 1632   3.704   0.722   6.613 -1.4441  0.8716 -0.9409
   13DOPE   H3Y 1633   3.760   0.605   6.491  0.2045 -0.8738  1.6601
   13DOPE   C34 1634   3.606   0.742   6.436 -0.3830 -0.6505  0.0136
   13DOPE   H4X 1635   3.541   0.653   6.448  1.4652 -2.0888 -0.1304
   13DOPE   H4Y 1636   3.552   0.834   6.465 -0.1224  0.4843 -2.7523
   13DOPE   C35 1637   3.629   0.767   6.285  0.4973  0.0961 -0.1694
   13DOPE   H5X 1638   3.699   0.687   6.253  0.2274 -0.9694  1.7720
   13DOPE   H5Y 1639   3.675   0.866   6.264  2.1159 -0.8101 -1.0952
   13DOPE   C36 1640   3.502   0.760   6.202  0.7277  0.3606 -0.0195
   13DOPE   H6X 1641   3.530   0.823   6.115  2.8203  0.6490  0.7981
   13DOPE   H6Y 1642   3.430   0.829   6.252  0.7841  0.0715  0.4642
   13DOPE   C37 1643   3.452   0.622   6.171  0.0668 -0.0973  0.0807
   13DOPE   H7X 1644   3.451   0.560   6.263  2.1620 -1.0843 -0.4973
   13DOPE   H7Y 1645   3.352   0.618   6.123 -0.3798 -1.1555  1.0523
   13DOPE   C38 1646   3.557   0.544   6.084  0.6489 -0.4239  0.2249
   13DOPE   H8X 1647   3.509   0.446   6.067  1.4267 -0.4064 -2.4084
   13DOPE   H8Y 1648   3.645   0.524   6.148  0.1889  1.8694  1.7068
   13DOPE   C39 1649   3.594   0.612   5.949 -0.0365  0.0667 -0.2323
   13DOPE   H9X 1650   3.680   0.679   5.960 -0.5596  0.8951 -1.0564
   13DOPE  C310 1651   3.529   0.605   5.831 -0.0628 -0.4592 -0.2081
   13DOPE  H10X 1652   3.576   0.635   5.737 -0.6613  0.0525 -0.3510
   13DOPE  C311 1653   3.398   0.532   5.814  0.9134 -0.7654  0.4781
   13DOPE  H11X 1654   3.390   0.438   5.873 -0.0573 -0.2344  1.2197
   13DOPE  H11Y 1655   3.316   0.601   5.843 -1.4106 -2.3720 -1.7404
   13DOPE  C312 1656   3.355   0.501   5.673 -0.0501  0.4560 -0.0440
   13DOPE  H12X 1657   3.333   0.600   5.627 -0.4893  0.8510  0.9826
   13DOPE  H12Y 1658   3.262   0.441   5.676  0.2055 -0.2685 -3.3252
   13DOPE  C313 1659   3.454   0.422   5.588 -0.0857  0.4550 -0.3977
   13DOPE  H13X 1660   3.553   0.471   5.582  0.1910 -0.1031 -0.4762
   13DOPE  H13Y 1661   3.462   0.327   5.645 -0.2394  1.5129  1.4443
   13DOPE  C314 1662   3.401   0.386   5.449  0.2747 -0.5779 -0.0107
   13DOPE  H14X 1663   3.427   0.470   5.382 -1.5284  1.8676  2.1233
   13DOPE  H14Y 1664   3.291   0.375   5.462  0.1245  1.9392  1.6107
   13DOPE  C315 1665   3.469   0.255   5.392 -0.1333 -0.6916  0.2484
   13DOPE  H15X 1666   3.439   0.178   5.466 -2.9940  0.5013  0.4457
   13DOPE  H15Y 1667   3.580   0.257   5.396 -0.0928 -1.3254 -0.4963
   13DOPE  C316 1668   3.425   0.231   5.248  0.3645 -0.1493 -0.2147
   13DOPE  H16X 1669   3.316   0.224   5.227  0.2108  0.9817  0.1283
   13DOPE  H16Y 1670   3.471   0.132   5.225  2.1437  0.4566  0.5511
   13DOPE  C317 1671   3.491   0.324   5.147  0.3972 -0.1048 -0.5075
   13DOPE  H17X 1672   3.459   0.429   5.163  4.2598  1.1991 -0.3248
   13DOPE  H17Y 1673   3.601   0.319   5.157  0.5719  0.2095 -2.0318
   13DOPE  C318 1674   3.463   0.275   5.002  0.3498 -0.6627  0.4672
   13DOPE  H18X 1675   3.527   0.186   4.984  0.1049 -0.5118 -1.3116
   13DOPE  H18Y 1676   3.357   0.244   4.989 -0.4252  1.9316 -0.0015
   13DOPE  H18Z 1677   3.495   0.351   4.927 -0.8733 -0.6885 -0.1124
   14DOPE     N 1678   5.670   4.244   7.461 -0.4622 -0.0689 -0.2668
   14DOPE   HN1 1679   5.627   4.208   7.548  0.0948  0.2150  0.1326
   14DOPE   HN2 1680   5.704   4.168   7.399  0.2690  0.5263 -0.6155
   14DOPE   HN3 1681   5.749   4.300   7.498 -0.8652  0.0539  0.4198
   14DOPE   C12 1682   5.578   4.323   7.373 -0.3217  0.5230 -0.5731
   14DOPE  H12A 1683   5.506   4.254   7.325 -2.6897  1.1915  1.8203
   14DOPE  H12B 1684   5.639   4.375   7.295  1.8393  0.3078  0.8821
   14DOPE   C11 1685   5.499   4.432   7.455  0.8895  0.1491 -0.1438
   14DOPE  H11A 1686   5.420   4.472   7.387  0.2095 -0.5845  0.1982
   14DOPE  H11B 1687   5.566   4.508   7.500 -0.0190  1.7378 -1.3472
   14DOPE     P 1688   5.307   4.279   7.564 -0.3849  0.0219 -0.2647
   14DOPE   O13 1689   5.255   4.265   7.699  0.0259 -0.5227  0.1608
   14DOPE   O14 1690   5.326   4.147   7.495 -0.3063 -0.6788 -0.4781
   14DOPE   O11 1691   5.205   4.369   7.485  0.6721  0.3071  0.5821
   14DOPE   O12 1692   5.437   4.364   7.570 -0.7582 -0.0154 -0.3007
   14DOPE    C1 1693   5.098   4.309   7.413  0.3356 -0.1549 -0.1381
   14DOPE    HA 1694   5.009   4.376   7.417  0.1650 -0.3800 -0.1271
   14DOPE    HB 1695   5.068   4.209   7.453  0.9381 -0.1398  0.3723
   14DOPE    C2 1696   5.145   4.289   7.267 -0.8145 -0.1570 -0.0664
   14DOPE    HS 1697   5.238   4.227   7.266 -0.5975  0.1354  0.9988
   14DOPE   O21 1698   5.156   4.424   7.211  0.6012 -0.3216  0.2319
   14DOPE   C21 1699   5.262   4.453   7.144 -0.8076 -0.7565  0.3021
   14DOPE   O22 1700   5.352   4.378   7.108  0.2452  0.2240 -0.2704
   14DOPE   C22 1701   5.276   4.613   7.141 -0.0319  0.1316  0.6527
   14DOPE   H2R 1702   5.344   4.637   7.226 -0.4074 -2.2706  1.7140
   14DOPE   H2S 1703   5.173   4.651   7.152  0.0152  0.4123  0.1543
   14DOPE    C3 1704   5.038   4.210   7.189 -0.5574  0.6964  0.0769
   14DOPE    HX 1705   4.942   4.254   7.226  0.8111  1.7092  2.7352
   14DOPE    HY 1706   5.052   4.103   7.215 -0.8296 -0.1281 -2.7956
   14DOPE   O31 1707   5.046   4.234   7.044  0.4171  0.4743 -0.6672
   14DOPE   C31 1708   4.965   4.327   6.993 -0.1771  0.3252 -0.4248
   14DOPE   O32 1709   4.901   4.405   7.057  0.4956 -0.8351  0.0993
   14DOPE   C32 1710   4.961   4.315   6.840 -0.0830  0.4727  0.6105
   14DOPE   H2X 1711   4.858   4.318   6.799  0.2649  0.5019 -0.2833
   14DOPE   H2Y 1712   5.025   4.394   6.795 -1.2635  0.2610 -1.5252
   14DOPE   C23 1713   5.339   4.660   7.007  0.2305  0.0271  0.7001
   14DOPE   H3R 1714   5.439   4.616   6.988  0.4545 -0.0985  2.0708
   14DOPE   H3S 1715   5.350   4.770   7.003 -3.3856  0.4875 -1.7289
   14DOPE   C24 1716   5.250   4.621   6.889  0.3297 -0.3191  0.8415
   14DOPE   H4R 1717   5.145   4.652   6.905  0.0119 -1.0263  0.2019
   14DOPE   H4S 1718   5.238   4.511   6.883 -0.6148 -0.1737 -0.5427
   14DOPE   C25 1719   5.292   4.684   6.757  0.1249  0.1090  0.5283
   14DOPE   H5R 1720   5.401   4.679   6.737  0.0912  0.4769  0.2299
   14DOPE   H5S 1721   5.270   4.793   6.759  0.1517  0.1790 -1.5389
   14DOPE   C26 1722   5.218   4.625   6.634 -0.2905  0.5324  0.1993
   14DOPE   H6R 1723   5.111   4.648   6.649  0.3007  3.6260  0.4299
   14DOPE   H6S 1724   5.236   4.516   6.622  1.4400  0.6381  1.4168
   14DOPE   C27 1725   5.260   4.681   6.498 -0.1715  0.0577 -0.1261
   14DOPE   H7R 1726   5.363   4.641   6.491 -0.2618 -0.2510  0.2611
   14DOPE   H7S 1727   5.259   4.792   6.504 -1.2734  0.0573 -0.0969
   14DOPE   C28 1728   5.181   4.612   6.382 -0.3217  0.2251 -0.2734
   14DOPE   H8R 1729   5.151   4.514   6.425  2.2359 -0.3508  0.3957
   14DOPE   H8S 1730   5.251   4.591   6.298 -0.3881  1.2935 -0.6138
   14DOPE   C29 1731   5.063   4.696   6.330 -0.3954 -0.8430 -0.1929
   14DOPE   H9R 1732   4.989   4.713   6.409  2.6783 -1.7925  3.1667
   14DOPE  C210 1733   5.047   4.743   6.206 -0.2454 -0.8843  0.6127
   14DOPE  H10R 1734   4.956   4.801   6.181  0.4546  1.0067  2.2556
   14DOPE  C211 1735   5.142   4.722   6.089 -0.6217 -0.1382  0.2710
   14DOPE  H11R 1736   5.246   4.702   6.121 -0.9988 -1.5547  0.6961
   14DOPE  H11S 1737   5.141   4.816   6.029  0.4588 -0.9653 -1.1140
   14DOPE  C212 1738   5.084   4.626   5.991  0.1462  0.4545  0.5021
   14DOPE  H12R 1739   4.979   4.649   5.963  0.2675  0.9146  0.4225
   14DOPE  H12S 1740   5.064   4.526   6.036  1.5504  0.0587  0.2958
   14DOPE  C213 1741   5.164   4.611   5.863  0.4379 -0.0377 -0.0722
   14DOPE  H13R 1742   5.260   4.556   5.877  0.5613  0.2691  0.2980
   14DOPE  H13S 1743   5.195   4.712   5.830 -1.7651  0.1608 -1.7800
   14DOPE  C214 1744   5.081   4.544   5.756  0.0225  0.6164 -0.2981
   14DOPE  H14R 1745   5.132   4.544   5.658  3.6366  0.4925  1.4120
   14DOPE  H14S 1746   4.987   4.600   5.738  0.7342  1.6526 -0.8270
   14DOPE  C215 1747   5.054   4.395   5.789 -0.2790 -0.0427  0.0458
   14DOPE  H15R 1748   4.974   4.401   5.865 -0.7694  0.9907 -0.5311
   14DOPE  H15S 1749   5.145   4.344   5.827  1.0170  1.1649 -1.3580
   14DOPE  C216 1750   4.985   4.319   5.674 -0.1268 -0.2924  0.5102
   14DOPE  H16R 1751   5.065   4.277   5.611  0.5941  0.9356  0.5684
   14DOPE  H16S 1752   4.925   4.390   5.613  2.0203 -0.0011 -1.3837
   14DOPE  C217 1753   4.897   4.204   5.728 -0.3745  0.1977 -0.0670
   14DOPE  H17R 1754   4.829   4.231   5.812 -1.1200  0.0436 -0.6193
   14DOPE  H17S 1755   4.964   4.130   5.777 -0.7375 -1.1916 -1.6185
   14DOPE  C218 1756   4.806   4.138   5.620 -0.0844  0.3296 -0.1307
   14DOPE  H18R 1757   4.737   4.215   5.580 -1.0173  0.7285  2.0981
   14DOPE  H18S 1758   4.755   4.046   5.657  0.5141  0.3607  0.7806
   14DOPE  H18T 1759   4.876   4.105   5.541 -0.0578  0.4378 -0.1523
   14DOPE   C33 1760   4.995   4.179   6.779 -0.1789  0.4992  0.4279
   14DOPE   H3X 1761   4.938   4.096   6.825  0.7328 -0.5160 -0.2361
   14DOPE   H3Y 1762   5.101   4.149   6.791 -0.6010 -1.5829 -0.5308
   14DOPE   C34 1763   4.940   4.177   6.630 -0.3559 -0.1465 -0.4735
   14DOPE   H4X 1764   4.961   4.074   6.594 -0.0761 -0.4926  0.6508
   14DOPE   H4Y 1765   4.831   4.196   6.628 -0.4690 -0.8126 -2.0689
   14DOPE   C35 1766   5.003   4.272   6.531  0.0024 -0.8862  0.0122
   14DOPE   H5X 1767   5.113   4.276   6.548 -0.2732 -0.6986  2.0183
   14DOPE   H5Y 1768   4.977   4.379   6.545  1.1556 -0.1441 -2.7577
   14DOPE   C36 1769   4.986   4.239   6.377 -0.4315 -0.9108 -0.1851
   14DOPE   H6X 1770   5.007   4.132   6.352  0.6275 -0.5274 -1.0203
   14DOPE   H6Y 1771   5.057   4.299   6.316 -2.0242 -1.1295 -2.3451
   14DOPE   C37 1772   4.850   4.285   6.321  0.6409 -0.0134  0.7261
   14DOPE   H7X 1773   4.771   4.212   6.348 -0.3463  1.6969  2.8972
   14DOPE   H7Y 1774   4.830   4.379   6.378  2.5337  0.3779  0.7949
   14DOPE   C38 1775   4.846   4.309   6.179 -0.0226  0.0579 -0.0071
   14DOPE   H8X 1776   4.929   4.375   6.146 -0.3866 -0.2876 -1.7420
   14DOPE   H8Y 1777   4.752   4.362   6.153  0.3125  0.2360 -0.8990
   14DOPE   C39 1778   4.853   4.176   6.102  0.0837  0.4077 -0.1595
   14DOPE   H9X 1779   4.954   4.143   6.073 -0.8132  0.3890 -3.6490
   14DOPE  C310 1780   4.749   4.092   6.074 -0.2660 -0.3568  0.4480
   14DOPE  H10X 1781   4.773   4.016   5.997  0.3127  0.3258 -0.0597
   14DOPE  C311 1782   4.605   4.100   6.108  0.0789  0.8996 -0.3793
   14DOPE  H11X 1783   4.583   4.022   6.184  0.6866  1.4027  0.3251
   14DOPE  H11Y 1784   4.575   4.200   6.148 -0.2357  1.4318 -1.8736
   14DOPE  C312 1785   4.512   4.078   5.982  0.6130  0.2841 -0.6179
   14DOPE  H12X 1786   4.408   4.049   6.005  0.1606  2.8644  0.9860
   14DOPE  H12Y 1787   4.547   4.000   5.911  0.0413 -0.7413  0.1942
   14DOPE  C313 1788   4.501   4.206   5.896 -0.2008  0.6840  0.2557
   14DOPE  H13X 1789   4.466   4.287   5.964 -0.4405  1.6770 -1.0129
   14DOPE  H13Y 1790   4.604   4.227   5.862 -0.1909 -1.8963 -1.5313
   14DOPE  C314 1791   4.414   4.193   5.763 -0.2140  0.1642  0.6524
   14DOPE  H14X 1792   4.307   4.170   5.785 -0.2728 -0.9646 -0.7176
   14DOPE  H14Y 1793   4.451   4.102   5.712  0.0261  0.5866  0.0530
   14DOPE  C315 1794   4.433   4.321   5.674  0.1606 -0.2152  0.3446
   14DOPE  H15X 1795   4.529   4.370   5.701  0.2151 -0.3234  0.3497
   14DOPE  H15Y 1796   4.346   4.377   5.715  1.2133  1.6028  0.1909
   14DOPE  C316 1797   4.421   4.310   5.516 -0.2825  0.1777  0.2280
   14DOPE  H16X 1798   4.361   4.217   5.503  0.9725 -0.4818 -1.0843
   14DOPE  H16Y 1799   4.516   4.278   5.469  0.0219  0.7193  0.4650
   14DOPE  C317 1800   4.359   4.430   5.456 -1.1801  0.3080 -0.6345
   14DOPE  H17X 1801   4.428   4.515   5.478  1.9097 -2.1345 -0.0596
   14DOPE  H17Y 1802   4.364   4.416   5.346  2.8601  1.8119 -0.8297
   14DOPE  C318 1803   4.217   4.461   5.495 -0.4197 -0.2772  0.1228
   14DOPE  H18X 1804   4.182   4.553   5.444  1.4806  1.1112  1.2288
   14DOPE  H18Y 1805   4.145   4.380   5.468  0.4870 -1.5209  1.2717
   14DOPE  H18Z 1806   4.206   4.471   5.605 -0.3274 -2.2432  0.3577
   15DOPE     N 1807   0.773   1.165   6.993  0.3635 -0.1311  0.0436
   15DOPE   HN1 1808   0.746   1.174   7.093  0.6156  5.4157 -0.0533
   15DOPE   HN2 1809   0.706   1.218   6.933  0.1941 -0.2930  0.0888
   15DOPE   HN3 1810   0.760   1.067   6.960 -1.2752 -0.0975  0.4741
   15DOPE   C12 1811   0.913   1.219   6.965 -0.2083 -0.2601 -0.3155
   15DOPE  H12A 1812   0.985   1.179   7.038 -1.9906 -1.1863  1.0159
   15DOPE  H12B 1813   0.918   1.329   6.980  1.5238 -0.1289 -1.5350
   15DOPE   C11 1814   0.947   1.179   6.825  0.4576 -0.2902  1.0890
   15DOPE  H11A 1815   1.037   1.231   6.786 -0.6629  1.0752  0.2259
   15DOPE  H11B 1816   0.867   1.224   6.763  0.4604 -0.2472  1.1166
   15DOPE     P 1817   1.094   0.959   6.815 -0.1879 -0.1620  0.1249
   15DOPE   O13 1818   1.069   0.819   6.772  0.0489 -0.0524 -0.2342
   15DOPE   O14 1819   1.159   0.974   6.947  0.8434 -0.1208  0.0494
   15DOPE   O11 1820   1.176   1.029   6.704 -0.3587 -0.5953  0.2820
   15DOPE   O12 1821   0.952   1.040   6.826 -0.0187 -0.2555  0.0613
   15DOPE    C1 1822   1.134   1.022   6.566 -0.3949 -0.8413  0.4341
   15DOPE    HA 1823   1.052   1.093   6.545  0.2047 -0.6612 -1.5703
   15DOPE    HB 1824   1.092   0.923   6.535 -1.5947  0.4682 -2.5122
   15DOPE    C2 1825   1.252   1.080   6.477  0.2160 -0.0635 -0.8357
   15DOPE    HS 1826   1.292   1.169   6.529  0.6998 -0.7150 -0.0726
   15DOPE   O21 1827   1.197   1.093   6.346  0.8030 -0.3487  0.1269
   15DOPE   C21 1828   1.224   1.216   6.297 -0.0781 -0.4826  0.0602
   15DOPE   O22 1829   1.280   1.304   6.360 -0.4254  0.2503  0.0591
   15DOPE   C22 1830   1.182   1.220   6.153  0.0594  0.2854  0.9291
   15DOPE   H2R 1831   1.225   1.308   6.101  1.6387 -0.7917  0.3274
   15DOPE   H2S 1832   1.071   1.218   6.150  0.0469 -0.3063 -3.0472
   15DOPE    C3 1833   1.373   0.985   6.470  0.4307 -0.0967 -0.1247
   15DOPE    HX 1834   1.329   0.898   6.417  1.5145 -0.0736 -1.0962
   15DOPE    HY 1835   1.406   0.953   6.571 -2.7522 -2.6872  0.2578
   15DOPE   O31 1836   1.485   1.042   6.394  0.2588 -0.1962 -0.9268
   15DOPE   C31 1837   1.551   1.136   6.465 -0.5551 -0.0341 -0.4624
   15DOPE   O32 1838   1.523   1.169   6.578 -0.4892  0.4983  0.1081
   15DOPE   C32 1839   1.658   1.192   6.381 -0.0301 -1.0121  0.2665
   15DOPE   H2X 1840   1.724   1.260   6.439 -2.1618 -0.0719  1.7369
   15DOPE   H2Y 1841   1.718   1.107   6.345  0.2781 -0.7035  0.0500
   15DOPE   C23 1842   1.228   1.094   6.075  0.4632  0.9813  0.2400
   15DOPE   H3R 1843   1.181   1.001   6.112  0.5469  0.3434 -1.1965
   15DOPE   H3S 1844   1.338   1.080   6.086  0.2818 -0.9567 -0.1055
   15DOPE   C24 1845   1.192   1.098   5.927  0.0533  0.4467  0.2658
   15DOPE   H4R 1846   1.246   1.184   5.882 -0.8260  0.4390 -0.8409
   15DOPE   H4S 1847   1.085   1.119   5.908 -0.5416 -0.3114  2.4076
   15DOPE   C25 1848   1.235   0.974   5.847 -0.8639  0.1408  0.7010
   15DOPE   H5R 1849   1.191   0.879   5.884 -0.1307 -1.4864 -2.2697
   15DOPE   H5S 1850   1.344   0.956   5.860 -0.6155  1.3591  0.5086
   15DOPE   C26 1851   1.214   0.989   5.692  0.0477  0.3100  0.1388
   15DOPE   H6R 1852   1.259   0.904   5.636 -0.5005 -1.2646  2.0007
   15DOPE   H6S 1853   1.281   1.076   5.674  0.5511  0.3615  2.0460
   15DOPE   C27 1854   1.077   1.029   5.639  0.2922 -0.2228  0.2984
   15DOPE   H7R 1855   1.064   1.129   5.684 -0.6431  0.1068 -0.6627
   15DOPE   H7S 1856   0.999   0.961   5.680  1.7746 -2.4959 -0.4631
   15DOPE   C28 1857   1.066   1.033   5.480 -0.2647 -0.6272  0.4500
   15DOPE   H8R 1858   0.957   1.052   5.471 -0.0334 -0.1808 -1.9289
   15DOPE   H8S 1859   1.086   0.936   5.430  0.6812  0.7442 -1.9778
   15DOPE   C29 1860   1.151   1.133   5.409  1.0531 -0.2045  0.3651
   15DOPE   H9R 1861   1.258   1.113   5.419  0.8142 -1.2820  1.0791
   15DOPE  C210 1862   1.099   1.228   5.328 -0.2919 -0.4384  0.0325
   15DOPE  H10R 1863   1.172   1.288   5.273 -0.2764 -0.3237  0.1760
   15DOPE  C211 1864   0.954   1.255   5.292  0.1928 -0.6420  0.5416
   15DOPE  H11R 1865   0.930   1.363   5.282  0.4860 -0.4221  2.0333
   15DOPE  H11S 1866   0.890   1.205   5.368 -0.2812  0.8974  1.1856
   15DOPE  C212 1867   0.939   1.188   5.153  0.0554  0.4968  0.9097
   15DOPE  H12R 1868   0.946   1.078   5.153  2.3741  0.5964  0.3528
   15DOPE  H12S 1869   1.026   1.223   5.093  1.6475 -1.5729  1.8858
   15DOPE  C213 1870   0.810   1.225   5.086  0.3461 -0.2827  0.0579
   15DOPE  H13R 1871   0.808   1.335   5.074 -1.3836 -0.2351  0.5309
   15DOPE  H13S 1872   0.729   1.201   5.158 -0.3395  1.6914 -0.0199
   15DOPE  C214 1873   0.773   1.161   4.952 -0.2636  0.4624 -0.3383
   15DOPE  H14R 1874   0.780   1.050   4.961 -0.4154  0.5993  2.4175
   15DOPE  H14S 1875   0.842   1.191   4.870 -1.9340 -0.9891 -2.3947
   15DOPE  C215 1876   0.638   1.208   4.903  0.2731  0.2272  0.4856
   15DOPE  H15R 1877   0.650   1.318   4.896  0.9954  0.1594  0.6166
   15DOPE  H15S 1878   0.550   1.191   4.969 -0.3673  0.6876 -0.2431
   15DOPE  C216 1879   0.597   1.152   4.763  0.2603 -0.1850  0.4954
   15DOPE  H16R 1880   0.668   1.192   4.688 -0.1977 -0.7185 -0.2288
   15DOPE  H16S 1881   0.494   1.188   4.742 -0.2662 -0.3561  2.5730
   15DOPE  C217 1882   0.603   1.001   4.749 -0.3043 -0.1517 -0.2961
   15DOPE  H17R 1883   0.555   0.967   4.844  2.3841 -2.7573  0.3074
   15DOPE  H17S 1884   0.710   0.969   4.749  0.0380  0.9291 -1.1190
   15DOPE  C218 1885   0.545   0.950   4.622  0.2735  1.0216 -0.4490
   15DOPE  H18R 1886   0.435   0.964   4.617  0.3089  0.9450 -1.8409
   15DOPE  H18S 1887   0.579   0.847   4.599  2.1261  1.4212  0.2780
   15DOPE  H18T 1888   0.586   1.013   4.540  0.5412  1.3929 -0.0331
   15DOPE   C33 1889   1.602   1.258   6.250 -0.5087  0.3623 -0.3012
   15DOPE   H3X 1890   1.548   1.353   6.267  0.6492  0.8829  0.5776
   15DOPE   H3Y 1891   1.534   1.184   6.202  0.8661 -2.4746  1.8395
   15DOPE   C34 1892   1.719   1.281   6.146  0.9282 -0.1070 -0.1827
   15DOPE   H4X 1893   1.802   1.343   6.187  1.5830  0.1695 -1.8412
   15DOPE   H4Y 1894   1.772   1.191   6.111 -0.1853 -0.0841 -2.0336
   15DOPE   C35 1895   1.677   1.359   6.016  0.0197 -0.2022 -0.3520
   15DOPE   H5X 1896   1.585   1.312   5.975  0.5328 -1.2143 -0.3759
   15DOPE   H5Y 1897   1.759   1.344   5.943 -0.1893  0.1628 -0.6644
   15DOPE   C36 1898   1.669   1.512   6.034  0.2445  0.0244  0.0807
   15DOPE   H6X 1899   1.763   1.553   6.078  0.5738 -1.6125  0.9695
   15DOPE   H6Y 1900   1.586   1.545   6.100  0.1093  1.4115 -0.7371
   15DOPE   C37 1901   1.643   1.581   5.900  0.0977  0.7898  0.5400
   15DOPE   H7X 1902   1.701   1.546   5.812 -3.9358 -3.6661 -0.7609
   15DOPE   H7Y 1903   1.543   1.542   5.870  0.1812  1.4936 -0.7105
   15DOPE   C38 1904   1.623   1.735   5.913 -0.3558  0.9949  0.0113
   15DOPE   H8X 1905   1.559   1.758   6.001 -2.0303 -1.1322 -0.5858
   15DOPE   H8Y 1906   1.561   1.775   5.831  0.8745 -0.1122 -1.5412
   15DOPE   C39 1907   1.749   1.809   5.942 -0.5553 -0.0482  0.0559
   15DOPE   H9X 1908   1.783   1.837   6.042  1.2797  1.4404 -0.9085
   15DOPE  C310 1909   1.829   1.851   5.845 -0.3845 -0.4650  0.2427
   15DOPE  H10X 1910   1.906   1.925   5.868  0.5052 -1.7872  1.6502
   15DOPE  C311 1911   1.800   1.825   5.704 -0.4826 -0.4112  0.2175
   15DOPE  H11X 1912   1.794   1.718   5.675 -2.4662  0.0227 -1.1015
   15DOPE  H11Y 1913   1.707   1.875   5.672  0.0608 -0.3347 -1.2942
   15DOPE  C312 1914   1.916   1.885   5.621  0.2968  0.1862 -0.3822
   15DOPE  H12X 1915   2.008   1.846   5.669 -0.1267 -1.0967 -0.5698
   15DOPE  H12Y 1916   1.909   1.996   5.618 -0.4370  0.1414 -2.5845
   15DOPE  C313 1917   1.916   1.831   5.480  0.1194 -0.4417  0.1662
   15DOPE  H13X 1918   1.927   1.721   5.468 -0.1597 -0.2071 -3.4486
   15DOPE  H13Y 1919   1.823   1.869   5.432  1.3851  1.0935 -1.1913
   15DOPE  C314 1920   2.026   1.894   5.388  0.5599 -0.2673  0.2262
   15DOPE  H14X 1921   2.127   1.879   5.431  0.0446  0.6182  1.8352
   15DOPE  H14Y 1922   2.003   2.002   5.377 -0.1500 -0.5278 -1.2148
   15DOPE  C315 1923   2.024   1.819   5.248  0.6065  0.2189  0.3871
   15DOPE  H15X 1924   1.987   1.715   5.258  0.9050  0.1668  0.9925
   15DOPE  H15Y 1925   2.124   1.823   5.201 -0.4100  1.5216 -1.8394
   15DOPE  C316 1926   1.937   1.898   5.152  0.4192 -0.3488  0.5849
   15DOPE  H16X 1927   1.843   1.913   5.210 -1.3198 -0.0645 -2.1462
   15DOPE  H16Y 1928   1.910   1.833   5.066 -1.1838 -0.8731  1.4341
   15DOPE  C317 1929   2.004   2.022   5.093  0.3540 -0.1605 -0.2228
   15DOPE  H17X 1930   2.041   2.082   5.179  1.0402 -0.3815 -0.3608
   15DOPE  H17Y 1931   2.102   2.004   5.044 -0.8775 -0.0206 -2.9357
   15DOPE  C318 1932   1.911   2.094   4.994  0.1338 -0.3378 -0.1137
   15DOPE  H18X 1933   1.808   2.096   5.038  1.5455 -2.3718  3.8006
   15DOPE  H18Y 1934   1.938   2.196   4.961 -1.5366  0.0394 -0.3902
   15DOPE  H18Z 1935   1.918   2.034   4.901 -0.2101  0.4205 -0.6386
   16DOPE     N 1936   0.924   2.929   7.314  0.1789  0.2549 -0.2615
   16DOPE   HN1 1937   0.901   3.002   7.384  0.1846 -0.0210  0.0299
   16DOPE   HN2 1938   0.938   2.835   7.356 -0.6220  0.0510 -0.4396
   16DOPE   HN3 1939   1.015   2.955   7.271  0.4180 -0.8904 -0.4821
   16DOPE   C12 1940   0.810   2.933   7.221  0.2665  0.3703 -0.0234
   16DOPE  H12A 1941   0.721   2.895   7.275 -0.2627  3.0002  1.1387
   16DOPE  H12B 1942   0.833   2.877   7.128  0.3012 -2.4086  1.5548
   16DOPE   C11 1943   0.786   3.082   7.170 -0.6479 -0.4641 -0.6202
   16DOPE  H11A 1944   0.710   3.067   7.090 -1.2833 -2.4685  0.2939
   16DOPE  H11B 1945   0.878   3.116   7.119 -1.0703  0.6613 -0.6519
   16DOPE     P 1946   0.731   3.316   7.275 -0.2153 -0.3279  0.1912
   16DOPE   O13 1947   0.861   3.375   7.253  0.0997 -0.2830 -0.6522
   16DOPE   O14 1948   0.648   3.355   7.387 -0.2687  0.2767  0.1828
   16DOPE   O11 1949   0.652   3.330   7.137  0.3627  0.4307  0.1261
   16DOPE   O12 1950   0.743   3.162   7.281 -0.3245  0.1143  0.4374
   16DOPE    C1 1951   0.511   3.306   7.129 -0.1220  0.8626 -0.9275
   16DOPE    HA 1952   0.451   3.399   7.139 -0.2233  0.7399 -0.3632
   16DOPE    HB 1953   0.484   3.231   7.207  1.1373  2.0529  0.7405
   16DOPE    C2 1954   0.479   3.231   6.996 -0.5076  0.1303  1.0345
   16DOPE    HS 1955   0.532   3.134   6.992 -1.6163 -0.4514 -0.3023
   16DOPE   O21 1956   0.521   3.310   6.887 -0.2038  0.0144 -0.2320
   16DOPE   C21 1957   0.554   3.253   6.775  0.3270  0.5955  0.6011
   16DOPE   O22 1958   0.567   3.132   6.765  0.5900  0.4989  0.2922
   16DOPE   C22 1959   0.583   3.358   6.668  0.3412  0.2177  0.2159
   16DOPE   H2R 1960   0.664   3.423   6.707 -0.1155  1.8426 -1.4194
   16DOPE   H2S 1961   0.487   3.412   6.655 -0.6391 -1.6455 -0.6202
   16DOPE    C3 1962   0.330   3.207   6.985  0.8920  0.0625  0.0421
   16DOPE    HX 1963   0.271   3.301   6.979 -0.0472 -0.4480  0.8943
   16DOPE    HY 1964   0.303   3.156   7.080 -0.0442 -0.2043 -0.3477
   16DOPE   O31 1965   0.293   3.121   6.872  0.4570 -0.7669 -0.3279
   16DOPE   C31 1966   0.311   2.991   6.893 -0.0709  0.0145  0.3446
   16DOPE   O32 1967   0.351   2.943   6.995 -0.0989  0.0232 -0.0315
   16DOPE   C32 1968   0.281   2.913   6.763 -0.0371  0.5032  0.3595
   16DOPE   H2X 1969   0.170   2.907   6.758 -0.2235  0.3837  3.1759
   16DOPE   H2Y 1970   0.331   2.967   6.680 -1.2441  1.5181  0.2636
   16DOPE   C23 1971   0.629   3.299   6.529  0.7105 -0.6427 -0.2606
   16DOPE   H3R 1972   0.627   3.187   6.532  1.3946 -0.6447  0.7377
   16DOPE   H3S 1973   0.734   3.332   6.513  0.5621 -0.0451 -0.0228
   16DOPE   C24 1974   0.550   3.351   6.408  0.9498  0.0731  0.1381
   16DOPE   H4R 1975   0.545   3.462   6.417 -1.3692 -0.1110  2.3881
   16DOPE   H4S 1976   0.446   3.314   6.418  0.4557  1.2689 -0.3456
   16DOPE   C25 1977   0.615   3.321   6.275  0.0562 -0.1663  0.3202
   16DOPE   H5R 1978   0.704   3.385   6.262  0.1044 -0.1229  0.8264
   16DOPE   H5S 1979   0.550   3.363   6.195  0.0637  0.3693  0.5885
   16DOPE   C26 1980   0.644   3.175   6.246 -0.2196  0.1979 -0.0653
   16DOPE   H6R 1981   0.558   3.107   6.267  1.0749 -0.8622  2.0936
   16DOPE   H6S 1982   0.726   3.141   6.313 -0.8413 -0.1525  0.5324
   16DOPE   C27 1983   0.680   3.143   6.101  0.0508 -0.3970  0.6431
   16DOPE   H7R 1984   0.778   3.193   6.080 -0.3255 -0.1759 -0.6679
   16DOPE   H7S 1985   0.606   3.204   6.044 -0.6902 -1.1853  0.7528
   16DOPE   C28 1986   0.679   2.992   6.066  0.2838 -0.2786  0.1181
   16DOPE   H8R 1987   0.576   2.957   6.086 -0.4061  1.0825 -0.8532
   16DOPE   H8S 1988   0.748   2.940   6.135  1.9605 -0.0712 -1.3169
   16DOPE   C29 1989   0.694   2.968   5.916 -0.6338 -0.7861  0.2453
   16DOPE   H9R 1990   0.660   3.046   5.848  0.1807 -0.5459  0.1008
   16DOPE  C210 1991   0.752   2.858   5.862  1.3760  0.3376 -0.3831
   16DOPE  H10R 1992   0.730   2.845   5.755 -0.4648  1.2997 -0.1475
   16DOPE  C211 1993   0.807   2.734   5.923 -0.4657  0.4540 -0.4612
   16DOPE  H11R 1994   0.741   2.648   5.899  2.2497 -2.0185  0.3125
   16DOPE  H11S 1995   0.824   2.739   6.032  1.8654 -2.8686 -0.5218
   16DOPE  C212 1996   0.946   2.695   5.859  0.7904  0.2738 -0.1980
   16DOPE  H12R 1997   0.969   2.593   5.895  2.1476  0.4856 -0.4290
   16DOPE  H12S 1998   1.034   2.760   5.874 -0.0125  0.8602  2.5194
   16DOPE  C213 1999   0.937   2.672   5.706 -0.2492  0.2458 -0.4139
   16DOPE  H13R 2000   0.920   2.763   5.645 -3.2160 -1.1130 -1.7846
   16DOPE  H13S 2001   0.864   2.594   5.678  0.9652  0.0640 -3.3802
   16DOPE  C214 2002   1.063   2.608   5.651 -0.0719 -0.0265  0.0714
   16DOPE  H14R 2003   1.077   2.503   5.683 -1.6317 -0.4589 -0.5644
   16DOPE  H14S 2004   1.153   2.649   5.702 -0.9152  0.5209  1.1554
   16DOPE  C215 2005   1.068   2.620   5.492  0.6812  0.4070  0.0880
   16DOPE  H15R 2006   1.024   2.717   5.461 -0.7035  0.1841  1.2281
   16DOPE  H15S 2007   1.014   2.528   5.462 -0.6841  1.6282 -1.3846
   16DOPE  C216 2008   1.213   2.609   5.438  0.0147 -0.6664  0.1817
   16DOPE  H16R 2009   1.268   2.523   5.482  0.1809  0.5726  2.5347
   16DOPE  H16S 2010   1.261   2.705   5.469 -3.6221  2.2337 -2.2634
   16DOPE  C217 2011   1.226   2.612   5.282 -0.5357 -0.7261  0.3481
   16DOPE  H17R 2012   1.183   2.708   5.247  0.4852 -0.3847  0.0146
   16DOPE  H17S 2013   1.168   2.529   5.235  1.4137 -1.7599 -0.3570
   16DOPE  C218 2014   1.380   2.596   5.253 -0.5957 -0.0281  0.7856
   16DOPE  H18R 2015   1.409   2.570   5.149  1.2125 -2.0166  1.7056
   16DOPE  H18S 2016   1.423   2.526   5.328  0.1920  0.2335  0.5819
   16DOPE  H18T 2017   1.415   2.700   5.272 -0.4950  0.8637 -3.4513
   16DOPE   C33 2018   0.322   2.765   6.747 -0.2000  0.4483 -1.0076
   16DOPE   H3X 2019   0.283   2.709   6.834  0.5691  1.4144 -0.0172
   16DOPE   H3Y 2020   0.433   2.763   6.743 -0.2336  0.0507 -2.5567
   16DOPE   C34 2021   0.273   2.692   6.620  0.1181 -0.1409  0.4394
   16DOPE   H4X 2022   0.315   2.589   6.615  0.0285 -0.1833  0.5362
   16DOPE   H4Y 2023   0.163   2.680   6.625  0.1047 -1.3809 -1.5719
   16DOPE   C35 2024   0.296   2.769   6.489 -0.2969  0.5873  0.1623
   16DOPE   H5X 2025   0.391   2.823   6.507 -0.0098  0.0214  0.3475
   16DOPE   H5Y 2026   0.217   2.846   6.474  0.7324  1.4271 -1.1751
   16DOPE   C36 2027   0.302   2.676   6.372 -0.6271  0.6145  0.3455
   16DOPE   H6X 2028   0.219   2.602   6.372  0.9832 -1.4556 -3.0680
   16DOPE   H6Y 2029   0.393   2.615   6.391 -1.1913 -0.8553 -1.4195
   16DOPE   C37 2030   0.313   2.749   6.231 -0.3734 -0.8505  0.0339
   16DOPE   H7X 2031   0.230   2.820   6.215 -0.0709 -0.5016  0.0033
   16DOPE   H7Y 2032   0.410   2.804   6.231  0.3817 -2.1150 -0.9526
   16DOPE   C38 2033   0.313   2.643   6.114  0.2060 -0.5727 -0.0575
   16DOPE   H8X 2034   0.211   2.598   6.116 -0.7806  1.4579 -0.7056
   16DOPE   H8Y 2035   0.388   2.569   6.148 -0.9405 -1.8430 -0.1885
   16DOPE   C39 2036   0.353   2.695   5.979 -0.0009 -0.1190  0.4831
   16DOPE   H9X 2037   0.462   2.692   5.967  0.0478  0.8044  0.5678
   16DOPE  C310 2038   0.281   2.726   5.871  0.0729  0.4995  0.7899
   16DOPE  H10X 2039   0.327   2.780   5.787  0.6223  0.6722  1.1927
   16DOPE  C311 2040   0.132   2.716   5.855  0.6849  0.3214 -0.3217
   16DOPE  H11X 2041   0.092   2.644   5.930 -2.4152  0.4432 -1.7149
   16DOPE  H11Y 2042   0.083   2.813   5.880  0.1105 -0.3821  1.4766
   16DOPE  C312 2043   0.089   2.668   5.714  0.1676 -0.2633 -0.0160
   16DOPE  H12X 2044   0.132   2.570   5.684  1.6651  0.0088  1.1361
   16DOPE  H12Y 2045   0.122   2.741   5.638 -1.5303  0.5600 -0.0216
   16DOPE  C313 2046  -0.057   2.648   5.687  0.3064  0.0997  0.0962
   16DOPE  H13X 2047  -0.110   2.581   5.758  2.2231 -0.7146  0.8187
   16DOPE  H13Y 2048  -0.112   2.743   5.703 -0.2002 -0.2820  0.7248
   16DOPE  C314 2049  -0.087   2.616   5.540 -0.2392 -0.5076  0.5509
   16DOPE  H14X 2050  -0.032   2.696   5.485  0.6992 -2.4915 -1.5781
   16DOPE  H14Y 2051  -0.194   2.619   5.511 -0.6644 -1.8980  1.8370
   16DOPE  C315 2052  -0.029   2.482   5.481  0.2484 -0.4775  0.0007
   16DOPE  H15X 2053  -0.066   2.392   5.535 -3.8639 -0.2187 -1.9789
   16DOPE  H15Y 2054   0.081   2.478   5.486  0.4665  2.5704 -0.3191
   16DOPE  C316 2055  -0.065   2.462   5.329  0.0006 -0.1240 -0.5373
   16DOPE  H16X 2056  -0.013   2.548   5.282  0.4361  0.3954  0.8461
   16DOPE  H16Y 2057  -0.175   2.471   5.319 -0.2845  0.7601  2.4288
   16DOPE  C317 2058  -0.009   2.330   5.274  0.0325 -0.0542  0.2789
   16DOPE  H17X 2059   0.100   2.346   5.255  0.1355 -0.8585  0.1574
   16DOPE  H17Y 2060  -0.009   2.255   5.356  1.1312 -1.3106 -0.8322
   16DOPE  C318 2061  -0.074   2.274   5.145 -0.4671  0.0658 -0.4156
   16DOPE  H18X 2062  -0.181   2.254   5.167  0.0514 -0.5062  1.8974
   16DOPE  H18Y 2063  -0.060   2.350   5.066 -0.3236 -0.0671 -0.5206
   16DOPE  H18Z 2064  -0.038   2.174   5.112 -0.6840  0.8158 -3.1464
   17DOPE     N 2065   4.185   0.233   7.269 -0.1100  0.1328 -0.0688
   17DOPE   HN1 2066   4.241   0.151   7.299  0.4533  0.4568 -0.2217
   17DOPE   HN2 2067   4.118   0.192   7.200 -0.7048  1.0718 -0.0590
   17DOPE   HN3 2068   4.244   0.293   7.207  0.7857  1.3121  1.8536
   17DOPE   C12 2069   4.108   0.306   7.376  0.4345 -0.3233  0.2229
   17DOPE  H12A 2070   4.037   0.374   7.323 -0.8287 -0.6532  1.4251
   17DOPE  H12B 2071   4.176   0.369   7.437  0.5629 -1.0164  0.8112
   17DOPE   C11 2072   4.036   0.195   7.456 -0.3347 -0.9680 -0.3962
   17DOPE  H11A 2073   3.981   0.242   7.540 -0.0808 -0.0708 -0.7196
   17DOPE  H11B 2074   4.102   0.119   7.503 -1.3007 -1.3156  0.4429
   17DOPE     P 2075   3.797   0.183   7.345  0.0975 -0.0051 -0.1029
   17DOPE   O13 2076   3.816   0.328   7.317 -1.1359 -0.1356  0.1010
   17DOPE   O14 2077   3.710   0.131   7.452 -0.1230  0.2252  0.3800
   17DOPE   O11 2078   3.753   0.102   7.217 -0.3457  0.1080 -0.1915
   17DOPE   O12 2079   3.942   0.122   7.381  0.0323 -0.3223 -0.3793
   17DOPE    C1 2080   3.769  -0.032   7.202  0.5170  0.1984 -0.0996
   17DOPE    HA 2081   3.675  -0.070   7.157 -1.3982  3.7763  0.4973
   17DOPE    HB 2082   3.787  -0.094   7.293  0.2036 -0.6509 -0.6039
   17DOPE    C2 2083   3.883  -0.082   7.107  0.8220 -0.6017 -0.2100
   17DOPE    HS 2084   3.978  -0.063   7.160 -0.6397  1.1657  1.9667
   17DOPE   O21 2085   3.882  -0.011   6.983  0.4220  0.3783 -0.2441
   17DOPE   C21 2086   3.953   0.102   6.985  1.0043 -0.1705 -0.1135
   17DOPE   O22 2087   4.031   0.135   7.071 -0.0038  0.3454  0.0251
   17DOPE   C22 2088   3.939   0.184   6.854  0.7880 -0.5090  0.1453
   17DOPE   H2R 2089   4.030   0.248   6.848  1.5529 -1.5476  0.5133
   17DOPE   H2S 2090   3.853   0.254   6.852  1.7386  0.6931 -1.6478
   17DOPE    C3 2091   3.860  -0.233   7.078  0.6083  0.3032 -0.1126
   17DOPE    HX 2092   3.769  -0.251   7.017  0.9403 -0.9178 -0.2825
   17DOPE    HY 2093   3.858  -0.292   7.173 -0.0511 -1.6605 -1.2746
   17DOPE   O31 2094   3.965  -0.283   6.992 -0.6857  0.4821  0.3452
   17DOPE   C31 2095   4.003  -0.416   7.003  0.3579 -0.2200  0.4048
   17DOPE   O32 2096   3.970  -0.487   7.097 -0.3023 -0.9241  0.1343
   17DOPE   C32 2097   4.109  -0.452   6.909  0.0856  0.5821 -0.0465
   17DOPE   H2X 2098   4.183  -0.372   6.886 -0.1746  0.4131 -1.6016
   17DOPE   H2Y 2099   4.161  -0.536   6.960 -1.2499 -0.7483 -0.7984
   17DOPE   C23 2100   3.926   0.103   6.723  0.4821  0.4255  0.6836
   17DOPE   H3R 2101   3.916   0.178   6.641 -1.4737 -0.2908  0.2131
   17DOPE   H3S 2102   3.827   0.056   6.738 -0.1988  1.4039 -0.5673
   17DOPE   C24 2103   4.031  -0.000   6.703 -0.5072  0.2084 -0.5068
   17DOPE   H4R 2104   4.020  -0.081   6.778  0.9140  0.4722  0.0159
   17DOPE   H4S 2105   4.133   0.041   6.721  1.3356 -4.7291  2.6136
   17DOPE   C25 2106   4.042  -0.073   6.559  0.4169  0.0662 -0.1949
   17DOPE   H5R 2107   4.065   0.001   6.479  2.0062  0.7224  0.8172
   17DOPE   H5S 2108   3.944  -0.124   6.548  0.3292  0.2237 -0.1622
   17DOPE   C26 2109   4.156  -0.178   6.568  0.3372  0.5626  0.1918
   17DOPE   H6R 2110   4.135  -0.260   6.497  0.5802 -0.9085  1.7523
   17DOPE   H6S 2111   4.165  -0.216   6.672  0.6377  0.2603  0.0561
   17DOPE   C27 2112   4.285  -0.127   6.521 -0.5773  0.5527  0.9253
   17DOPE   H7R 2113   4.366  -0.197   6.549 -0.7586  0.2577  0.7198
   17DOPE   H7S 2114   4.311  -0.034   6.576  1.5509 -0.1279  1.1666
   17DOPE   C28 2115   4.288  -0.106   6.365  0.2152 -0.5320 -0.8236
   17DOPE   H8R 2116   4.384  -0.053   6.346  1.1396 -1.5427  0.8243
   17DOPE   H8S 2117   4.197  -0.049   6.336 -1.0675 -2.4665 -0.7640
   17DOPE   C29 2118   4.306  -0.234   6.289 -0.6173  0.0515 -0.5136
   17DOPE   H9R 2119   4.227  -0.310   6.300 -0.2165 -0.2508  0.3906
   17DOPE  C210 2120   4.409  -0.274   6.216  0.0469 -0.9720  0.1826
   17DOPE  H10R 2121   4.413  -0.376   6.174  1.5005 -1.3079  1.0720
   17DOPE  C211 2122   4.532  -0.195   6.195 -0.0181  0.6659 -0.3382
   17DOPE  H11R 2123   4.618  -0.251   6.152 -1.1028 -0.3010 -1.3091
   17DOPE  H11S 2124   4.574  -0.143   6.284  1.1101  2.6202 -1.9114
   17DOPE  C212 2125   4.509  -0.095   6.081 -0.1010 -0.1979  0.6708
   17DOPE  H12R 2126   4.585  -0.017   6.103  1.9740 -1.4378 -1.6575
   17DOPE  H12S 2127   4.406  -0.053   6.087  0.6872  2.0435 -0.3053
   17DOPE  C213 2128   4.528  -0.138   5.936  1.0256 -0.3530 -0.5060
   17DOPE  H13R 2129   4.445  -0.212   5.930  1.0023 -0.8944  3.6591
   17DOPE  H13S 2130   4.629  -0.183   5.926  1.8363  1.3140 -0.1961
   17DOPE  C214 2131   4.526  -0.018   5.845 -0.1321  0.0032  0.2770
   17DOPE  H14R 2132   4.616   0.040   5.873  0.2372  0.0918 -1.0221
   17DOPE  H14S 2133   4.443   0.056   5.848  1.2895  1.6119  1.0679
   17DOPE  C215 2134   4.557  -0.067   5.695 -1.0486  0.1916 -0.4112
   17DOPE  H15R 2135   4.535   0.021   5.631 -0.3949  1.0362  0.4909
   17DOPE  H15S 2136   4.497  -0.158   5.673 -0.1293 -0.7294  0.7129
   17DOPE  C216 2137   4.702  -0.109   5.677 -0.1559 -0.3475  0.0537
   17DOPE  H16R 2138   4.732  -0.206   5.722 -0.3038 -0.8303 -0.8510
   17DOPE  H16S 2139   4.771  -0.038   5.727  0.7399 -2.9156  2.7086
   17DOPE  C217 2140   4.750  -0.103   5.532 -0.3479 -0.3891  0.2219
   17DOPE  H17R 2141   4.860  -0.120   5.525 -0.3369 -0.8856  1.3967
   17DOPE  H17S 2142   4.738   0.002   5.497 -0.8593 -0.6885 -0.5136
   17DOPE  C218 2143   4.681  -0.198   5.435  0.2126 -0.5206 -0.2863
   17DOPE  H18R 2144   4.714  -0.304   5.439 -1.0465 -0.8889  2.1378
   17DOPE  H18S 2145   4.717  -0.157   5.338 -0.6056  2.4283  0.5681
   17DOPE  H18T 2146   4.572  -0.181   5.428  0.2802 -0.1058 -0.3194
   17DOPE   C33 2147   4.063  -0.501   6.770  0.4125  0.1872  0.4912
   17DOPE   H3X 2148   4.015  -0.431   6.698 -0.2827 -0.5872  0.1840
   17DOPE   H3Y 2149   3.983  -0.574   6.796  0.9495 -0.5509  0.0926
   17DOPE   C34 2150   4.185  -0.573   6.704  0.2884 -0.7118 -0.4288
   17DOPE   H4X 2151   4.258  -0.491   6.687 -1.1366  0.2436 -2.4177
   17DOPE   H4Y 2152   4.227  -0.651   6.771  1.0834  1.9593  2.3751
   17DOPE   C35 2153   4.146  -0.636   6.575  0.6700 -0.0667  0.6787
   17DOPE   H5X 2154   4.043  -0.677   6.589  0.5664 -0.1956 -0.3459
   17DOPE   H5Y 2155   4.205  -0.731   6.573 -2.2367 -2.0127 -0.1219
   17DOPE   C36 2156   4.166  -0.550   6.444  0.4171  0.2516 -0.1169
   17DOPE   H6X 2157   4.274  -0.527   6.429  1.3430 -3.6788 -0.4774
   17DOPE   H6Y 2158   4.103  -0.459   6.447 -1.0728 -0.7641  0.2446
   17DOPE   C37 2159   4.123  -0.617   6.308  0.0756  0.4217  0.0215
   17DOPE   H7X 2160   4.185  -0.710   6.306 -0.2076  0.2442 -1.4065
   17DOPE   H7Y 2161   4.017  -0.637   6.332  0.3815 -0.9962  0.3371
   17DOPE   C38 2162   4.136  -0.532   6.185  0.0069  0.2468 -0.7074
   17DOPE   H8X 2163   4.241  -0.518   6.152 -0.6914  1.4452 -2.6022
   17DOPE   H8Y 2164   4.086  -0.434   6.196  0.5787  0.4362  0.2643
   17DOPE   C39 2165   4.079  -0.606   6.065  0.1233  0.0433 -0.9319
   17DOPE   H9X 2166   4.012  -0.691   6.081 -0.2206  0.0726 -2.0889
   17DOPE  C310 2167   4.107  -0.570   5.938  0.0891  0.5761  0.5925
   17DOPE  H10X 2168   4.074  -0.647   5.866  2.2361 -0.1303  0.3132
   17DOPE  C311 2169   4.198  -0.461   5.882 -0.3797  0.3735 -0.0024
   17DOPE  H11X 2170   4.218  -0.378   5.954  1.5367  0.6792 -0.8291
   17DOPE  H11Y 2171   4.300  -0.496   5.857 -0.4162  0.1110  0.2080
   17DOPE  C312 2172   4.136  -0.401   5.753  0.2310 -0.3598  0.6534
   17DOPE  H12X 2173   4.041  -0.345   5.765  0.1730  0.7517 -3.3922
   17DOPE  H12Y 2174   4.111  -0.489   5.690  2.5840 -0.2888 -0.5278
   17DOPE  C313 2175   4.243  -0.326   5.671 -0.1155 -0.1651  0.1945
   17DOPE  H13X 2176   4.269  -0.234   5.728 -2.9790 -0.5293  2.2732
   17DOPE  H13Y 2177   4.337  -0.384   5.659 -1.4129 -2.0323 -1.5298
   17DOPE  C314 2178   4.183  -0.285   5.536  0.1738 -0.0061 -0.3847
   17DOPE  H14X 2179   4.078  -0.247   5.542  0.2145  0.5401 -2.3259
   17DOPE  H14Y 2180   4.166  -0.372   5.469  0.5850 -0.6451  0.3324
   17DOPE  C315 2181   4.264  -0.189   5.453 -0.8404 -0.2012  0.0328
   17DOPE  H15X 2182   4.368  -0.222   5.433 -0.8412  0.1114 -0.5237
   17DOPE  H15Y 2183   4.281  -0.101   5.519  2.3573  1.7284 -2.9950
   17DOPE  C316 2184   4.194  -0.148   5.319  0.3218  0.2381 -0.5361
   17DOPE  H16X 2185   4.090  -0.113   5.336  0.7701  1.9306 -1.0215
   17DOPE  H16Y 2186   4.184  -0.247   5.270  1.1371 -0.2191  0.2012
   17DOPE  C317 2187   4.269  -0.036   5.244  0.0307 -0.2815  0.3889
   17DOPE  H17X 2188   4.373  -0.072   5.227 -0.7083 -1.3308 -2.5349
   17DOPE  H17Y 2189   4.234  -0.021   5.140  0.7352  0.0535  0.1910
   17DOPE  C318 2190   4.249   0.099   5.309  0.3905  0.1767  0.5198
   17DOPE  H18X 2191   4.300   0.187   5.264 -0.1379  0.5252  0.5897
   17DOPE  H18Y 2192   4.142   0.131   5.308  0.0039 -1.0846 -0.7425
   17DOPE  H18Z 2193   4.283   0.098   5.415 -0.3068  5.9975  1.1537
   18DOPE     N 2194   0.286   3.573   7.609 -0.3537  0.3279  0.9011
   18DOPE   HN1 2195   0.383   3.546   7.587 -0.9416 -1.9042  0.8505
   18DOPE   HN2 2196   0.278   3.652   7.676  2.0643  2.5537 -1.1713
   18DOPE   HN3 2197   0.246   3.488   7.653  0.7794 -1.3081 -1.0687
   18DOPE   C12 2198   0.203   3.595   7.481 -0.3656  0.6623  0.0856
   18DOPE  H12A 2199   0.100   3.561   7.503 -0.2596  0.5904  0.4843
   18DOPE  H12B 2200   0.245   3.540   7.394 -2.4925  2.2803 -2.0948
   18DOPE   C11 2201   0.195   3.746   7.447  0.1327  0.6124 -0.6626
   18DOPE  H11A 2202   0.121   3.751   7.365  0.9524 -1.1923 -1.5662
   18DOPE  H11B 2203   0.296   3.784   7.421 -0.3228  1.6159 -1.0281
   18DOPE     P 2204   0.108   3.969   7.542  0.0414 -0.2489  0.3398
   18DOPE   O13 2205   0.213   4.047   7.478  0.5914 -0.1458  0.4178
   18DOPE   O14 2206   0.061   4.021   7.673 -0.3998 -0.2635  0.5514
   18DOPE   O11 2207  -0.009   3.974   7.445 -0.5520 -0.3055  0.2446
   18DOPE   O12 2208   0.148   3.815   7.562  0.0770 -0.7947 -0.1321
   18DOPE    C1 2209  -0.126   3.892   7.472  0.1860 -0.6065 -0.1030
   18DOPE    HA 2210  -0.184   3.939   7.555  0.9320  0.3555 -0.1163
   18DOPE    HB 2211  -0.105   3.788   7.504  0.6189 -0.3335  0.5212
   18DOPE    C2 2212  -0.214   3.879   7.341 -0.4163  0.1734 -0.4411
   18DOPE    HS 2213  -0.317   3.853   7.375  0.0763  1.4617  2.3644
   18DOPE   O21 2214  -0.149   3.789   7.251  0.5337  0.0876 -0.5533
   18DOPE   C21 2215  -0.167   3.663   7.274 -0.5295  1.2311  0.0123
   18DOPE   O22 2216  -0.244   3.618   7.355  0.2706  0.4566 -0.1049
   18DOPE   C22 2217  -0.082   3.570   7.193 -0.7793 -0.4355 -0.1025
   18DOPE   H2R 2218  -0.068   3.476   7.251 -1.4266 -0.5889 -0.1814
   18DOPE   H2S 2219   0.015   3.615   7.163 -0.0705 -1.6758  0.2516
   18DOPE    C3 2220  -0.219   4.017   7.275  0.3085  0.0669 -0.1177
   18DOPE    HX 2221  -0.116   4.049   7.248 -0.0517  0.6302 -0.8415
   18DOPE    HY 2222  -0.249   4.096   7.347  2.8387  1.5056 -0.5386
   18DOPE   O31 2223  -0.321   4.010   7.168 -0.3943 -0.4846  0.1313
   18DOPE   C31 2224  -0.271   4.021   7.042 -0.1688  0.0198 -0.6041
   18DOPE   O32 2225  -0.156   4.014   7.008 -0.6336 -0.3695 -0.2734
   18DOPE   C32 2226  -0.393   4.002   6.949  0.9627 -0.3787 -0.1450
   18DOPE   H2X 2227  -0.423   3.896   6.934  1.6780 -0.7616  0.9901
   18DOPE   H2Y 2228  -0.483   4.050   6.993  1.6833 -1.4190  2.6803
   18DOPE   C23 2229  -0.151   3.520   7.061  0.1003 -0.3634  0.1611
   18DOPE   H3R 2230  -0.180   3.600   6.989 -1.7646 -1.3881 -0.2990
   18DOPE   H3S 2231  -0.248   3.470   7.084 -2.3844  3.0522 -1.8302
   18DOPE   C24 2232  -0.057   3.427   6.986  0.1997 -1.2751  0.5615
   18DOPE   H4R 2233  -0.070   3.322   7.020 -0.3103 -0.4623  3.1675
   18DOPE   H4S 2234   0.049   3.461   6.992 -0.5227  2.7850 -3.9005
   18DOPE   C25 2235  -0.098   3.422   6.834 -0.3797 -0.2876  0.2039
   18DOPE   H5R 2236  -0.125   3.525   6.802  0.0879 -0.0665  0.5053
   18DOPE   H5S 2237  -0.170   3.342   6.805  1.6690 -1.3975 -2.2183
   18DOPE   C26 2238   0.036   3.398   6.756  0.1387  0.2357 -0.1606
   18DOPE   H6R 2239   0.076   3.296   6.769  0.6789  0.3440 -0.9092
   18DOPE   H6S 2240   0.121   3.458   6.797  0.8724  0.0944 -1.4402
   18DOPE   C27 2241   0.020   3.426   6.608 -0.3406  0.2327  0.3981
   18DOPE   H7R 2242  -0.005   3.533   6.594  1.6854  0.5678 -1.1196
   18DOPE   H7S 2243  -0.067   3.367   6.570  0.2053 -0.5260  0.3053
   18DOPE   C28 2244   0.153   3.408   6.523  0.3586  0.4381 -0.5054
   18DOPE   H8R 2245   0.234   3.456   6.582 -0.6992  1.5388  0.1058
   18DOPE   H8S 2246   0.141   3.474   6.434  2.2103  3.1726  1.0932
   18DOPE   C29 2247   0.180   3.265   6.492  0.5738 -0.2672 -1.0858
   18DOPE   H9R 2248   0.225   3.218   6.581 -1.5061 -1.2712 -0.5001
   18DOPE  C210 2249   0.165   3.198   6.382 -0.2059 -0.5221  0.5826
   18DOPE  H10R 2250   0.191   3.091   6.385  1.1635 -0.2066  0.5630
   18DOPE  C211 2251   0.106   3.250   6.248 -0.1763  0.1589  0.1584
   18DOPE  H11R 2252   0.140   3.351   6.216 -2.8526  1.0514 -0.1032
   18DOPE  H11S 2253  -0.004   3.258   6.265  0.0435  1.8546  0.9846
   18DOPE  C212 2254   0.126   3.159   6.129 -0.3823  0.7929  0.0954
   18DOPE  H12R 2255   0.073   3.206   6.043  2.4435  1.2926 -1.5136
   18DOPE  H12S 2256   0.101   3.054   6.156  3.7276 -1.3345 -3.0747
   18DOPE  C213 2257   0.279   3.158   6.091 -0.4594 -0.7918 -1.3264
   18DOPE  H13R 2258   0.343   3.101   6.161 -1.5748  1.4817  1.7808
   18DOPE  H13S 2259   0.321   3.259   6.076  1.1314 -1.4950 -1.8295
   18DOPE  C214 2260   0.304   3.092   5.953  0.6709 -0.2155  0.4156
   18DOPE  H14R 2261   0.238   3.003   5.942 -0.0409  0.5355 -2.1717
   18DOPE  H14S 2262   0.404   3.045   5.951  1.2268  0.9239 -1.8373
   18DOPE  C215 2263   0.292   3.193   5.837 -0.2791  0.2668 -1.0414
   18DOPE  H15R 2264   0.363   3.275   5.864  0.5419 -1.0919  1.1628
   18DOPE  H15S 2265   0.191   3.240   5.833 -1.0981 -1.2355  0.8028
   18DOPE  C216 2266   0.321   3.132   5.700 -0.4574 -0.5781  0.0990
   18DOPE  H16R 2267   0.417   3.077   5.705  0.5805  1.1319 -0.3816
   18DOPE  H16S 2268   0.341   3.217   5.633  1.9501 -0.1405  1.2631
   18DOPE  C217 2269   0.205   3.040   5.651 -0.4381  0.3222 -0.0488
   18DOPE  H17R 2270   0.106   3.085   5.678 -0.3571  0.5601 -0.1424
   18DOPE  H17S 2271   0.223   2.951   5.715  1.8026  1.6083  1.2180
   18DOPE  C218 2272   0.220   2.997   5.503 -0.1225 -0.1583 -0.4317
   18DOPE  H18R 2273   0.220   3.085   5.436  0.6604 -0.4776 -0.8592
   18DOPE  H18S 2274   0.138   2.927   5.477  0.6964 -0.9566 -0.9223
   18DOPE  H18T 2275   0.319   2.947   5.493  1.4999  2.2460  1.9690
   18DOPE   C33 2276  -0.358   4.052   6.811 -0.3576  0.0569 -0.1328
   18DOPE   H3X 2277  -0.258   4.014   6.782 -0.7990 -0.4344 -1.0468
   18DOPE   H3Y 2278  -0.354   4.163   6.810  0.3166  0.2208  3.8928
   18DOPE   C34 2279  -0.456   3.993   6.706 -0.4876 -0.1846 -0.1295
   18DOPE   H4X 2280  -0.433   3.887   6.683  0.4125  0.4506 -2.4584
   18DOPE   H4Y 2281  -0.560   4.002   6.745 -0.6997 -0.1910 -0.6857
   18DOPE   C35 2282  -0.449   4.062   6.568  1.0949  0.4692  0.0408
   18DOPE   H5X 2283  -0.480   4.168   6.555  0.6011  0.0558 -2.5596
   18DOPE   H5Y 2284  -0.529   4.007   6.515  0.4308  0.0573  1.4201
   18DOPE   C36 2285  -0.310   4.049   6.506 -0.3781  0.6785 -0.0417
   18DOPE   H6X 2286  -0.272   3.948   6.531 -1.8247 -0.5042 -2.2945
   18DOPE   H6Y 2287  -0.245   4.119   6.564 -1.1058 -0.0168  1.6849
   18DOPE   C37 2288  -0.296   4.091   6.362  0.3067 -0.5362  0.8670
   18DOPE   H7X 2289  -0.354   4.038   6.283 -1.0977  0.2335  1.3565
   18DOPE   H7Y 2290  -0.315   4.200   6.356  2.9800 -0.0866 -1.6307
   18DOPE   C38 2291  -0.146   4.086   6.317  0.1617 -0.2193 -0.2350
   18DOPE   H8X 2292  -0.110   3.982   6.329  2.2479  0.5909  0.9081
   18DOPE   H8Y 2293  -0.093   4.146   6.395 -1.1040  1.7186 -0.7734
   18DOPE   C39 2294  -0.126   4.136   6.181  0.4739 -0.4238  0.1405
   18DOPE   H9X 2295  -0.088   4.239   6.170 -0.3515 -0.2276 -1.0098
   18DOPE  C310 2296  -0.152   4.073   6.062 -0.1276  0.2304  0.3305
   18DOPE  H10X 2297  -0.122   4.126   5.971 -0.4834 -0.1806 -0.0300
   18DOPE  C311 2298  -0.206   3.931   6.049  0.0687  0.8137 -0.6626
   18DOPE  H11X 2299  -0.196   3.873   6.143  0.5112 -0.0343 -1.2248
   18DOPE  H11Y 2300  -0.311   3.937   6.012 -0.5985 -1.0574  0.7599
   18DOPE  C312 2301  -0.126   3.846   5.942  0.9358  0.2917  0.1504
   18DOPE  H12X 2302  -0.153   3.738   5.943  1.4278  0.1713  0.6776
   18DOPE  H12Y 2303  -0.017   3.854   5.962  1.6675 -1.3249 -2.6550
   18DOPE  C313 2304  -0.138   3.894   5.803 -0.3918 -0.4275  0.6832
   18DOPE  H13X 2305  -0.230   3.951   5.780  1.2644  0.9429 -3.5454
   18DOPE  H13Y 2306  -0.064   3.973   5.780  0.0480 -1.4628 -1.7226
   18DOPE  C314 2307  -0.120   3.783   5.700 -0.0350  0.6789  0.0983
   18DOPE  H14X 2308  -0.196   3.701   5.698  2.4694 -1.8176  0.7882
   18DOPE  H14Y 2309  -0.029   3.724   5.724 -0.6900  0.3233  1.9430
   18DOPE  C315 2310  -0.109   3.829   5.555 -0.1795 -0.2992 -0.9824
   18DOPE  H15X 2311  -0.207   3.877   5.535 -0.9083 -2.0330 -1.7460
   18DOPE  H15Y 2312  -0.088   3.742   5.490  0.4062  0.6591 -2.1164
   18DOPE  C316 2313   0.007   3.922   5.523 -0.6853 -0.1541 -0.1128
   18DOPE  H16X 2314   0.099   3.864   5.548 -0.8228 -0.0871  0.5653
   18DOPE  H16Y 2315  -0.003   4.012   5.587 -0.1125  1.1325 -1.7608
   18DOPE  C317 2316   0.010   3.956   5.373  0.0386  0.3755 -0.2586
   18DOPE  H17X 2317   0.022   3.857   5.323 -2.7679  0.5351 -1.3959
   18DOPE  H17Y 2318  -0.082   4.003   5.334  0.6729  0.4151 -1.7895
   18DOPE  C318 2319   0.124   4.057   5.351  0.5136 -0.5844  0.2162
   18DOPE  H18X 2320   0.135   4.085   5.244 -1.0015 -0.4742  0.0684
   18DOPE  H18Y 2321   0.096   4.147   5.409 -0.8939 -0.1832 -1.0263
   18DOPE  H18Z 2322   0.228   4.028   5.379  0.1517  0.3663  2.7752
   19DOPE     N 2323   6.139   4.785   7.863 -0.9921 -0.4378  0.2654
   19DOPE   HN1 2324   6.078   4.803   7.780  2.1886  3.9042 -1.5489
   19DOPE   HN2 2325   6.113   4.837   7.949  0.4403 -2.7946  2.2486
   19DOPE   HN3 2326   6.224   4.840   7.838 -0.7845 -0.1955  1.4760
   19DOPE   C12 2327   6.158   4.642   7.887 -0.7918  0.3431 -1.3849
   19DOPE  H12A 2328   6.220   4.641   7.980 -2.7870 -1.1719  0.0189
   19DOPE  H12B 2329   6.227   4.606   7.808 -0.1569 -0.3242 -0.5619
   19DOPE   C11 2330   6.027   4.559   7.909  0.3271  0.1059 -0.7988
   19DOPE  H11A 2331   5.966   4.599   7.994 -1.0471 -0.3194 -1.5585
   19DOPE  H11B 2332   6.055   4.461   7.953 -0.5102 -0.7217 -2.0554
   19DOPE     P 2333   5.919   4.413   7.717  0.0783  0.0477 -0.0196
   19DOPE   O13 2334   5.832   4.320   7.796 -0.3916 -0.2582 -0.3672
   19DOPE   O14 2335   6.060   4.370   7.693 -0.2757  1.3934  0.7598
   19DOPE   O11 2336   5.850   4.445   7.578  0.2469  0.4947 -0.1255
   19DOPE   O12 2337   5.940   4.553   7.789 -0.5178 -0.6997  0.1900
   19DOPE    C1 2338   5.857   4.583   7.526 -0.3050 -1.1766  0.2271
   19DOPE    HA 2339   5.937   4.647   7.570  0.6964 -2.8316  0.9123
   19DOPE    HB 2340   5.759   4.633   7.539 -1.6103 -4.0633  2.5666
   19DOPE    C2 2341   5.879   4.581   7.376  0.2715 -0.4077  0.5940
   19DOPE    HS 2342   5.796   4.523   7.331 -0.1220 -1.4544  2.5861
   19DOPE   O21 2343   6.006   4.523   7.337 -0.8446 -0.2758 -0.4133
   19DOPE   C21 2344   6.013   4.392   7.331  0.6553 -0.4175  1.3425
   19DOPE   O22 2345   5.918   4.317   7.324 -0.0027 -0.0656 -0.3647
   19DOPE   C22 2346   6.162   4.345   7.324 -0.4029 -0.3079 -0.1809
   19DOPE   H2R 2347   6.170   4.308   7.428 -1.7855  3.4647  1.4512
   19DOPE   H2S 2348   6.239   4.424   7.309 -1.5555  0.6744 -1.1485
   19DOPE    C3 2349   5.856   4.730   7.324 -0.6982 -0.2558 -0.2407
   19DOPE    HX 2350   5.922   4.807   7.371 -0.9688 -0.3512  0.3021
   19DOPE    HY 2351   5.758   4.759   7.367 -0.3765  2.2004 -1.0092
   19DOPE   O31 2352   5.866   4.743   7.178  0.2785  0.2577  0.0116
   19DOPE   C31 2353   5.750   4.759   7.116 -1.0755 -0.0050 -0.3412
   19DOPE   O32 2354   5.644   4.749   7.171 -0.0335 -1.0055 -0.4773
   19DOPE   C32 2355   5.778   4.774   6.969  0.1170  0.6964  0.3599
   19DOPE   H2X 2356   5.845   4.861   6.952  1.7609 -0.7273 -0.8526
   19DOPE   H2Y 2357   5.835   4.682   6.943 -1.1232  0.6196 -2.4992
   19DOPE   C23 2358   6.191   4.236   7.216  0.2980 -0.4153  0.5622
   19DOPE   H3R 2359   6.110   4.162   7.200  0.3478 -0.7996  1.9223
   19DOPE   H3S 2360   6.284   4.185   7.249 -0.0901 -1.4289  0.1121
   19DOPE   C24 2361   6.220   4.290   7.073  0.5094  0.1518  0.3812
   19DOPE   H4R 2362   6.281   4.213   7.021 -0.7812  0.1697 -1.2672
   19DOPE   H4S 2363   6.280   4.382   7.083  0.9054  0.1136 -1.2914
   19DOPE   C25 2364   6.099   4.331   6.996 -0.0400 -0.1081  0.7220
   19DOPE   H5R 2365   6.059   4.427   7.036  0.2072 -0.2100  1.2200
   19DOPE   H5S 2366   6.025   4.248   7.003  1.4865 -1.6960 -0.8978
   19DOPE   C26 2367   6.129   4.344   6.847 -0.2057  0.2199 -0.1742
   19DOPE   H6R 2368   6.166   4.248   6.805 -0.2991  0.1871 -0.1804
   19DOPE   H6S 2369   6.209   4.420   6.831 -0.7306  0.3325 -2.6545
   19DOPE   C27 2370   6.012   4.397   6.769 -0.5848 -0.2558 -0.3104
   19DOPE   H7R 2371   5.969   4.488   6.815 -0.0206  0.9720 -2.0745
   19DOPE   H7S 2372   5.930   4.322   6.769  1.2820 -2.4498 -1.4755
   19DOPE   C28 2373   6.037   4.432   6.621 -0.0124 -0.4419 -0.1910
   19DOPE   H8R 2374   6.080   4.339   6.579  1.7247  0.4377 -0.4803
   19DOPE   H8S 2375   6.113   4.513   6.617 -1.9327  1.4209 -0.9917
   19DOPE   C29 2376   5.916   4.483   6.550 -0.2169 -0.3079  0.6532
   19DOPE   H9R 2377   5.846   4.551   6.601 -0.9556 -0.1659 -0.5204
   19DOPE  C210 2378   5.862   4.440   6.435  0.3557  0.4982  0.2685
   19DOPE  H10R 2379   5.774   4.488   6.391  0.1692 -0.2048 -0.1418
   19DOPE  C211 2380   5.905   4.327   6.346  0.0958 -0.6705 -0.5319
   19DOPE  H11R 2381   5.816   4.262   6.329 -0.5138 -0.0151  0.0981
   19DOPE  H11S 2382   5.990   4.276   6.397 -0.1244 -1.1379 -0.6215
   19DOPE  C212 2383   5.938   4.383   6.215 -0.6541 -0.1759 -0.2149
   19DOPE  H12R 2384   6.019   4.458   6.224 -1.0380 -0.0286  2.8395
   19DOPE  H12S 2385   5.845   4.427   6.171 -0.2238  2.2097  1.0796
   19DOPE  C213 2386   5.993   4.275   6.115  0.1263  0.1858  0.4016
   19DOPE  H13R 2387   5.926   4.188   6.100  1.5293 -0.4839 -2.4685
   19DOPE  H13S 2388   6.088   4.229   6.150 -0.0769  0.5659  1.4898
   19DOPE  C214 2389   6.003   4.330   5.970 -1.1893  0.0720 -0.1577
   19DOPE  H14R 2390   6.094   4.277   5.932 -0.3779  0.2504  1.4387
   19DOPE  H14S 2391   6.037   4.436   5.980  2.6946 -0.9756 -0.5825
   19DOPE  C215 2392   5.885   4.301   5.871 -0.7885 -0.5055 -0.3003
   19DOPE  H15R 2393   5.799   4.364   5.903 -2.1265 -1.1265 -2.4714
   19DOPE  H15S 2394   5.853   4.196   5.889 -0.1514 -0.5584  0.6285
   19DOPE  C216 2395   5.923   4.305   5.724 -1.0770  0.8591 -0.2232
   19DOPE  H16R 2396   6.009   4.241   5.694 -0.6911  0.7224  1.0719
   19DOPE  H16S 2397   5.956   4.408   5.696 -0.9318  1.0647  0.6646
   19DOPE  C217 2398   5.816   4.257   5.630  0.2396  0.0455  0.0451
   19DOPE  H17R 2399   5.728   4.322   5.653  1.8258  1.9577  1.0101
   19DOPE  H17S 2400   5.803   4.150   5.657 -0.1232 -0.3580 -1.5990
   19DOPE  C218 2401   5.848   4.263   5.486  0.1938 -0.4761 -0.2279
   19DOPE  H18R 2402   5.762   4.272   5.416 -0.1774  2.5813  0.4497
   19DOPE  H18S 2403   5.915   4.180   5.456  0.7927  0.1565 -0.6883
   19DOPE  H18T 2404   5.908   4.353   5.460  0.3392 -0.5378 -0.1005
   19DOPE   C33 2405   5.661   4.792   6.862 -0.0220  0.2972  0.3184
   19DOPE   H3X 2406   5.607   4.886   6.885 -0.3002 -0.0552  1.1582
   19DOPE   H3Y 2407   5.592   4.705   6.869  1.3711 -0.9082 -0.3357
   19DOPE   C34 2408   5.727   4.805   6.724  0.5450 -0.5540 -0.1263
   19DOPE   H4X 2409   5.783   4.900   6.716  2.6201 -1.6750  0.5527
   19DOPE   H4Y 2410   5.795   4.722   6.696  2.8032  1.5821 -1.3623
   19DOPE   C35 2411   5.617   4.818   6.619  0.3533  0.2095 -0.3088
   19DOPE   H5X 2412   5.539   4.887   6.659 -0.5689 -0.0739 -1.5536
   19DOPE   H5Y 2413   5.566   4.722   6.597 -0.9527  0.9653 -0.6597
   19DOPE   C36 2414   5.654   4.890   6.486 -0.6012  0.0376 -0.2352
   19DOPE   H6X 2415   5.714   4.976   6.521 -2.4178 -0.3708  4.5653
   19DOPE   H6Y 2416   5.565   4.920   6.426 -0.1001  2.7629  0.2887
   19DOPE   C37 2417   5.734   4.799   6.386 -0.0637  0.1876 -0.5431
   19DOPE   H7X 2418   5.834   4.786   6.434 -0.6330 -0.1984  0.5648
   19DOPE   H7Y 2419   5.689   4.699   6.370  2.0767 -1.0606  0.8141
   19DOPE   C38 2420   5.740   4.883   6.254  0.1453  0.4626  0.0385
   19DOPE   H8X 2421   5.773   4.989   6.267 -0.4644  0.4620  1.7633
   19DOPE   H8Y 2422   5.632   4.887   6.231  0.4751 -0.5631 -1.9334
   19DOPE   C39 2423   5.825   4.820   6.146  0.7426 -0.3679  1.0454
   19DOPE   H9X 2424   5.928   4.859   6.144  0.5422  0.2061  1.4996
   19DOPE  C310 2425   5.781   4.727   6.059  0.4235 -0.4130  0.3818
   19DOPE  H10X 2426   5.848   4.693   5.979  2.2493  1.1496  1.1970
   19DOPE  C311 2427   5.637   4.672   6.062  0.4792  0.2619  0.4104
   19DOPE  H11X 2428   5.642   4.565   6.031 -0.8664 -0.0406  1.1872
   19DOPE  H11Y 2429   5.608   4.655   6.168  1.2569 -1.3084  0.4079
   19DOPE  C312 2430   5.533   4.753   5.984  0.2582  0.2623  0.0911
   19DOPE  H12X 2431   5.513   4.852   6.031 -0.7263 -0.0274  0.3019
   19DOPE  H12Y 2432   5.435   4.701   5.977 -0.6552  2.0353 -1.3606
   19DOPE  C313 2433   5.577   4.781   5.836  0.5750 -0.2146 -0.0192
   19DOPE  H13X 2434   5.660   4.855   5.836 -1.2922  1.9817 -0.6974
   19DOPE  H13Y 2435   5.606   4.681   5.796  0.7827 -1.2706  2.5480
   19DOPE  C314 2436   5.470   4.848   5.744  0.0762 -0.3535  0.3344
   19DOPE  H14X 2437   5.454   4.954   5.776  0.6181 -0.8812  2.4944
   19DOPE  H14Y 2438   5.370   4.802   5.759 -0.1068  0.4381  1.6993
   19DOPE  C315 2439   5.502   4.857   5.599 -0.5137 -1.0661 -0.4871
   19DOPE  H15X 2440   5.506   4.751   5.566  2.2619 -1.3535  0.5545
   19DOPE  H15Y 2441   5.604   4.898   5.585 -1.5419  0.9954 -2.7081
   19DOPE  C316 2442   5.393   4.939   5.525 -0.4953  0.0177 -0.3986
   19DOPE  H16X 2443   5.289   4.913   5.554 -1.3999  2.2471 -1.4224
   19DOPE  H16Y 2444   5.401   4.902   5.420 -1.5143 -0.1389 -0.4274
   19DOPE  C317 2445   5.416   5.092   5.523  0.2728  0.2763  0.0499
   19DOPE  H17X 2446   5.422   5.120   5.631  3.1755 -1.2223  0.3679
   19DOPE  H17Y 2447   5.509   5.133   5.478  1.2705 -1.5736  0.2966
   19DOPE  C318 2448   5.298   5.163   5.465  0.3270  0.4975 -0.3555
   19DOPE  H18X 2449   5.304   5.272   5.486  0.1305  0.9719 -2.5179
   19DOPE  H18Y 2450   5.277   5.138   5.359  0.5350  4.0381 -1.3841
   19DOPE  H18Z 2451   5.208   5.124   5.516 -0.5835  1.6142 -1.0574
   20DOPE     N 2452   6.628   5.592   7.978 -0.0708  0.1392  0.2754
   20DOPE   HN1 2453   6.588   5.497   7.992  0.9577  0.0124  3.1481
   20DOPE   HN2 2454   6.669   5.595   7.883 -0.3322 -3.1151 -0.0426
   20DOPE   HN3 2455   6.715   5.598   8.036  1.2181 -0.1181 -1.5641
   20DOPE   C12 2456   6.541   5.714   8.010 -0.3554  0.1299 -0.3582
   20DOPE  H12A 2457   6.525   5.707   8.120 -0.8307  0.8310 -0.3755
   20DOPE  H12B 2458   6.446   5.700   7.953  0.5425  0.2045 -1.9373
   20DOPE   C11 2459   6.613   5.844   7.965 -0.3150  0.3722  0.0230
   20DOPE  H11A 2460   6.704   5.850   8.028  0.5323 -0.6013 -1.0496
   20DOPE  H11B 2461   6.561   5.941   7.981  1.5521  0.8088  4.9389
   20DOPE     P 2462   6.568   5.860   7.704 -0.0300 -0.4059  0.2363
   20DOPE   O13 2463   6.615   5.992   7.657 -0.5933 -0.5147 -0.2075
   20DOPE   O14 2464   6.427   5.846   7.730  0.6346 -0.0890 -0.4301
   20DOPE   O11 2465   6.597   5.741   7.610 -0.4169  0.1581 -0.1287
   20DOPE   O12 2466   6.660   5.829   7.833 -0.1739 -0.1760 -0.3124
   20DOPE    C1 2467   6.507   5.710   7.502 -0.4385 -0.4072 -0.5939
   20DOPE    HA 2468   6.405   5.753   7.514 -0.6624 -0.1561 -2.8265
   20DOPE    HB 2469   6.493   5.600   7.502 -0.6392 -0.4086 -2.1783
   20DOPE    C2 2470   6.574   5.719   7.363  0.4679  0.4271 -0.8352
   20DOPE    HS 2471   6.598   5.823   7.330  2.2058  0.5596  0.6444
   20DOPE   O21 2472   6.491   5.658   7.263 -0.2533 -0.0863  0.3329
   20DOPE   C21 2473   6.373   5.718   7.233 -0.1929  0.0493  0.1467
   20DOPE   O22 2474   6.342   5.828   7.276 -0.1277 -0.2234 -0.4059
   20DOPE   C22 2475   6.298   5.637   7.134  0.0556 -0.1076  1.3302
   20DOPE   H2R 2476   6.228   5.564   7.180 -0.6664 -0.6978 -0.6244
   20DOPE   H2S 2477   6.365   5.572   7.074 -0.4527  0.9018 -0.3981
   20DOPE    C3 2478   6.717   5.647   7.353 -0.0757  0.2402 -0.4313
   20DOPE    HX 2479   6.709   5.547   7.401  2.1574  0.5914  0.8056
   20DOPE    HY 2480   6.793   5.697   7.416  1.5175 -2.0541 -0.4124
   20DOPE   O31 2481   6.751   5.616   7.213 -0.6847  0.1665  0.1368
   20DOPE   C31 2482   6.808   5.715   7.147 -0.0154 -1.0644 -0.8928
   20DOPE   O32 2483   6.826   5.827   7.189 -0.0792  0.6867  1.2075
   20DOPE   C32 2484   6.831   5.662   7.006  0.0347  0.0749 -0.5691
   20DOPE   H2X 2485   6.860   5.555   7.014  0.5554  0.0793 -2.1396
   20DOPE   H2Y 2486   6.730   5.654   6.960 -0.4291  1.6245  0.0801
   20DOPE   C23 2487   6.215   5.721   7.032 -0.3009  0.0017  0.0036
   20DOPE   H3R 2488   6.176   5.817   7.071  2.2925  1.6064 -1.1168
   20DOPE   H3S 2489   6.120   5.674   7.000 -0.6061 -0.2607  1.2150
   20DOPE   C24 2490   6.299   5.759   6.908 -0.4452  0.1657  0.1343
   20DOPE   H4R 2491   6.341   5.671   6.856  0.6241  1.0788 -0.5929
   20DOPE   H4S 2492   6.385   5.824   6.935 -1.2102  2.2584 -2.0473
   20DOPE   C25 2493   6.209   5.823   6.797 -0.6959 -0.5389 -0.2141
   20DOPE   H5R 2494   6.158   5.914   6.834  1.1721 -0.5035  2.5963
   20DOPE   H5S 2495   6.126   5.750   6.783 -0.8456 -0.8794  2.0581
   20DOPE   C26 2496   6.284   5.873   6.671 -0.3760  0.5478 -0.0128
   20DOPE   H6R 2497   6.357   5.796   6.638  1.6989  2.4100 -0.0151
   20DOPE   H6S 2498   6.349   5.959   6.699  1.1193 -0.2710 -0.8868
   20DOPE   C27 2499   6.203   5.905   6.548 -0.5972  0.0886 -0.2874
   20DOPE   H7R 2500   6.103   5.939   6.583 -0.8449 -1.6633  0.8405
   20DOPE   H7S 2501   6.178   5.820   6.480 -0.4498 -0.3569  0.2165
   20DOPE   C28 2502   6.261   6.022   6.470  0.2906 -0.6832 -0.4245
   20DOPE   H8R 2503   6.192   6.041   6.386  1.8232  1.7674 -1.2235
   20DOPE   H8S 2504   6.359   5.980   6.437  0.3079 -1.3240  0.3890
   20DOPE   C29 2505   6.270   6.154   6.544 -0.1392 -0.2128 -0.0521
   20DOPE   H9R 2506   6.325   6.144   6.639  0.2620  3.0931  0.1760
   20DOPE  C210 2507   6.224   6.278   6.530 -0.3629  0.2073 -0.2572
   20DOPE  H10R 2508   6.241   6.346   6.615  2.0922  0.0363 -0.5188
   20DOPE  C211 2509   6.138   6.327   6.418  0.4370  0.2568 -0.0652
   20DOPE  H11R 2510   6.053   6.376   6.471 -0.6010  0.3218 -1.7135
   20DOPE  H11S 2511   6.089   6.247   6.360 -2.9621  1.5885  0.7254
   20DOPE  C212 2512   6.220   6.423   6.326 -0.0555 -0.1107  0.5852
   20DOPE  H12R 2513   6.156   6.434   6.236 -0.2280 -0.0751  0.7134
   20DOPE  H12S 2514   6.315   6.369   6.307 -0.5237 -1.3480  1.5839
   20DOPE  C213 2515   6.232   6.564   6.375 -0.1952 -0.4318 -0.0280
   20DOPE  H13R 2516   6.275   6.561   6.477  2.4178  1.7492 -0.9339
   20DOPE  H13S 2517   6.135   6.617   6.387  1.5794  2.9781  0.4906
   20DOPE  C214 2518   6.317   6.657   6.284 -0.2543 -0.1475 -0.1361
   20DOPE  H14R 2519   6.248   6.690   6.203 -0.8134  0.0317  0.4007
   20DOPE  H14S 2520   6.412   6.616   6.244  0.1503  0.8083 -0.2001
   20DOPE  C215 2521   6.354   6.788   6.353 -0.0158  0.0440 -0.0345
   20DOPE  H15R 2522   6.259   6.807   6.407 -0.6161 -2.0230 -0.2954
   20DOPE  H15S 2523   6.389   6.867   6.283 -0.3719 -0.5008 -0.8532
   20DOPE  C216 2524   6.462   6.768   6.461 -0.7489  0.2614  0.0514
   20DOPE  H16R 2525   6.539   6.707   6.409 -3.0582 -1.4547 -1.5811
   20DOPE  H16S 2526   6.421   6.711   6.548  0.2264 -1.3811 -0.5154
   20DOPE  C217 2527   6.528   6.891   6.511  0.1817 -0.0846  0.3173
   20DOPE  H17R 2528   6.453   6.958   6.558  0.1047  1.7379 -2.1922
   20DOPE  H17S 2529   6.596   6.941   6.439 -0.0773  0.0140  0.1380
   20DOPE  C218 2530   6.624   6.879   6.630  0.5431 -0.7257  0.4724
   20DOPE  H18R 2531   6.672   6.979   6.645 -0.0069  0.3420 -3.6398
   20DOPE  H18S 2532   6.705   6.810   6.599  1.8053  1.1586 -0.6843
   20DOPE  H18T 2533   6.572   6.829   6.714 -0.3108 -0.2030  0.2630
   20DOPE   C33 2534   6.949   5.739   6.931  0.9761  0.3938  0.4171
   20DOPE   H3X 2535   6.945   5.847   6.955  2.6503  0.4168  0.7064
   20DOPE   H3Y 2536   6.925   5.718   6.824  1.0206  0.9228  0.3003
   20DOPE   C34 2537   7.087   5.682   6.947  0.3614  0.2007 -0.2206
   20DOPE   H4X 2538   7.127   5.709   7.047 -0.6270  1.6733 -0.1931
   20DOPE   H4Y 2539   7.094   5.571   6.935 -0.3560  0.0130  0.9467
   20DOPE   C35 2540   7.187   5.747   6.848 -0.7626  0.5202 -0.6834
   20DOPE   H5X 2541   7.286   5.697   6.862 -1.2214 -0.7937 -1.8299
   20DOPE   H5Y 2542   7.190   5.854   6.875  1.3946  0.4296 -0.3262
   20DOPE   C36 2543   7.171   5.732   6.702 -0.5160 -0.6612  0.1369
   20DOPE   H6X 2544   7.082   5.785   6.662 -1.4749 -2.1801  0.1474
   20DOPE   H6Y 2545   7.163   5.622   6.689  2.1766 -0.9164  0.0655
   20DOPE   C37 2546   7.301   5.773   6.629  0.2279 -0.0538  0.1286
   20DOPE   H7X 2547   7.307   5.881   6.654 -0.8097  0.3535 -1.2562
   20DOPE   H7Y 2548   7.387   5.726   6.682  0.3770 -0.1139 -0.1688
   20DOPE   C38 2549   7.311   5.727   6.483 -0.1292 -0.2300  0.1115
   20DOPE   H8X 2550   7.265   5.625   6.482  0.8288 -0.9537  4.8788
   20DOPE   H8Y 2551   7.415   5.707   6.450  0.1660 -1.0290  1.4410
   20DOPE   C39 2552   7.233   5.814   6.381  0.3363  1.1799 -0.4382
   20DOPE   H9X 2553   7.128   5.834   6.409 -0.3343 -0.2062 -1.7513
   20DOPE  C310 2554   7.274   5.868   6.269  0.6976 -0.3068  0.3100
   20DOPE  H10X 2555   7.199   5.933   6.221  0.8541 -1.2717 -1.3318
   20DOPE  C311 2556   7.409   5.855   6.206 -0.0427 -0.1240 -0.7321
   20DOPE  H11X 2557   7.466   5.943   6.244  1.3280 -0.6564 -1.4665
   20DOPE  H11Y 2558   7.459   5.763   6.241 -0.2455 -0.0812 -0.3158
   20DOPE  C312 2559   7.405   5.862   6.056  0.0372 -0.8375  0.0923
   20DOPE  H12X 2560   7.325   5.791   6.026  0.0566 -0.4331 -0.9304
   20DOPE  H12Y 2561   7.502   5.816   6.027  1.4905  0.2365  2.8241
   20DOPE  C313 2562   7.398   6.006   6.000 -0.7068 -0.4171  0.6304
   20DOPE  H13X 2563   7.305   6.055   6.036 -0.2342  0.9773  0.0202
   20DOPE  H13Y 2564   7.484   6.067   6.034 -0.8401 -0.8961  1.8923
   20DOPE  C314 2565   7.382   6.010   5.846 -0.1952  0.3601  0.1315
   20DOPE  H14X 2566   7.456   5.931   5.820 -2.6118 -1.3240 -2.2208
   20DOPE  H14Y 2567   7.424   6.105   5.807  2.2471 -0.6200  0.1688
   20DOPE  C315 2568   7.246   5.974   5.796  0.1388 -0.3202  0.3673
   20DOPE  H15X 2569   7.166   6.049   5.812 -0.8218 -0.6154 -2.4990
   20DOPE  H15Y 2570   7.208   5.880   5.841  1.5514 -0.6910  0.8595
   20DOPE  C316 2571   7.242   5.941   5.644 -0.8043 -0.7846 -0.6386
   20DOPE  H16X 2572   7.307   5.855   5.621  0.9775  1.0487 -3.0111
   20DOPE  H16Y 2573   7.294   6.029   5.599 -0.5695 -1.8979 -2.6497
   20DOPE  C317 2574   7.104   5.918   5.595 -0.3331 -0.0855 -0.4055
   20DOPE  H17X 2575   7.060   5.863   5.681  0.6160 -1.0629 -0.5249
   20DOPE  H17Y 2576   7.042   6.009   5.579 -0.2233 -0.2065 -1.5733
   20DOPE  C318 2577   7.103   5.840   5.462  0.2523  0.3256 -0.2898
   20DOPE  H18X 2578   6.999   5.827   5.423  0.0716 -0.3769  0.3817
   20DOPE  H18Y 2579   7.154   5.885   5.375 -1.6495 -0.4504 -1.8796
   20DOPE  H18Z 2580   7.146   5.738   5.479  1.0053  0.5720 -0.6897
   21DOPE     N 2581   3.324   0.310   7.698 -0.1662  0.0209 -0.2316
   21DOPE   HN1 2582   3.359   0.407   7.687  2.1614  0.0738  5.0281
   21DOPE   HN2 2583   3.273   0.293   7.787 -1.5266 -2.8963 -1.4566
   21DOPE   HN3 2584   3.419   0.268   7.706  0.6046  1.3835 -1.5441
   21DOPE   C12 2585   3.238   0.270   7.577  0.0346  0.7265  0.4972
   21DOPE  H12A 2586   3.131   0.295   7.594 -0.1246 -0.5279  1.3785
   21DOPE  H12B 2587   3.250   0.161   7.565  1.5079  1.0050 -1.0293
   21DOPE   C11 2588   3.294   0.334   7.446 -0.4388 -0.6740  0.3682
   21DOPE  H11A 2589   3.256   0.261   7.372 -2.3624  1.2494 -0.6376
   21DOPE  H11B 2590   3.404   0.331   7.459 -0.4219  1.2328  0.9967
   21DOPE     P 2591   3.119   0.495   7.348 -0.3455 -0.1195 -0.5978
   21DOPE   O13 2592   3.094   0.639   7.369  0.1246 -0.1303  0.9690
   21DOPE   O14 2593   3.015   0.397   7.383 -0.6226 -0.3224  0.1220
   21DOPE   O11 2594   3.166   0.462   7.202 -0.0548 -0.0378  0.1494
   21DOPE   O12 2595   3.248   0.458   7.425 -0.1556 -0.0840 -0.4580
   21DOPE    C1 2596   3.179   0.346   7.127 -0.0724  0.1196  0.0936
   21DOPE    HA 2597   3.091   0.282   7.146  0.4192 -0.3206  0.9937
   21DOPE    HB 2598   3.271   0.292   7.160 -0.7335 -0.7406  0.5505
   21DOPE    C2 2599   3.177   0.376   6.979 -0.3720 -0.1648 -0.0916
   21DOPE    HS 2600   3.151   0.280   6.928 -0.7594 -0.2558  0.2719
   21DOPE   O21 2601   3.303   0.445   6.948  0.1990 -0.5300  0.1681
   21DOPE   C21 2602   3.365   0.389   6.848  0.1199 -1.3420 -0.0481
   21DOPE   O22 2603   3.354   0.275   6.808  0.2652 -0.0150 -0.0953
   21DOPE   C22 2604   3.461   0.497   6.791 -0.4003  1.0332 -0.0549
   21DOPE   H2R 2605   3.500   0.553   6.878 -2.7122  1.3458  0.8699
   21DOPE   H2S 2606   3.394   0.565   6.732 -3.6910  0.3835  2.6277
   21DOPE    C3 2607   3.057   0.464   6.942  0.0425  0.7638 -0.3191
   21DOPE    HX 2608   3.062   0.558   7.001 -2.6706  0.5701  0.3918
   21DOPE    HY 2609   2.972   0.411   6.990  0.2252 -0.9360 -1.7942
   21DOPE   O31 2610   3.038   0.487   6.799  0.1066  0.2300  0.0435
   21DOPE   C31 2611   2.941   0.418   6.750 -0.2281  0.7822 -0.6640
   21DOPE   O32 2612   2.874   0.333   6.809  0.2163  0.5385  0.4182
   21DOPE   C32 2613   2.923   0.454   6.611 -0.1540 -0.1888 -0.3966
   21DOPE   H2X 2614   2.814   0.453   6.589  0.0786 -2.1300 -1.6601
   21DOPE   H2Y 2615   2.968   0.555   6.599 -2.0004  0.9857  1.8649
   21DOPE   C23 2616   3.577   0.432   6.713 -0.2590  0.2276  0.4756
   21DOPE   H3R 2617   3.646   0.370   6.774  1.6717  0.0297 -1.7508
   21DOPE   H3S 2618   3.640   0.519   6.685 -0.4686 -0.2571 -1.6808
   21DOPE   C24 2619   3.543   0.366   6.578 -0.2085  0.3305  0.8252
   21DOPE   H4R 2620   3.542   0.448   6.503 -0.1228 -0.4077  0.0059
   21DOPE   H4S 2621   3.442   0.319   6.576  0.2205 -0.6877  1.6472
   21DOPE   C25 2622   3.650   0.265   6.524 -0.4370 -0.5670  0.9414
   21DOPE   H5R 2623   3.666   0.173   6.585  1.5349 -1.1294 -0.3366
   21DOPE   H5S 2624   3.739   0.331   6.520 -0.3590 -0.7535 -1.0373
   21DOPE   C26 2625   3.628   0.220   6.381  0.5516  0.2562  0.5435
   21DOPE   H6R 2626   3.572   0.299   6.327 -0.0546  0.4669  1.4465
   21DOPE   H6S 2627   3.555   0.136   6.381  2.5694 -1.5794 -0.2814
   21DOPE   C27 2628   3.746   0.179   6.294 -0.0859 -0.0941 -0.8591
   21DOPE   H7R 2629   3.838   0.242   6.299 -0.3092  0.1460  1.3101
   21DOPE   H7S 2630   3.698   0.193   6.195 -1.0548 -1.5308 -0.6244
   21DOPE   C28 2631   3.796   0.036   6.304  0.6491 -0.6373 -0.7858
   21DOPE   H8R 2632   3.840   0.039   6.406 -1.9904  0.8943  0.3883
   21DOPE   H8S 2633   3.882   0.010   6.238 -0.5472 -0.7657 -2.3410
   21DOPE   C29 2634   3.688  -0.066   6.304 -0.6599 -0.3438  0.6036
   21DOPE   H9R 2635   3.618  -0.077   6.388  0.3791 -3.9459  1.1840
   21DOPE  C210 2636   3.660  -0.150   6.200 -0.5024 -0.8865  0.2104
   21DOPE  H10R 2637   3.579  -0.222   6.218 -0.0176 -1.4719  0.0918
   21DOPE  C211 2638   3.718  -0.165   6.060 -0.0212  0.3738  0.0738
   21DOPE  H11R 2639   3.748  -0.267   6.028 -1.6749  0.2517 -1.2257
   21DOPE  H11S 2640   3.805  -0.096   6.060 -0.1770  0.5730 -0.0359
   21DOPE  C212 2641   3.633  -0.110   5.948 -0.2128  0.2830  0.0371
   21DOPE  H12R 2642   3.610  -0.001   5.960 -0.3816  0.4017 -1.2613
   21DOPE  H12S 2643   3.530  -0.150   5.959 -0.4438  1.0686  0.9910
   21DOPE  C213 2644   3.696  -0.126   5.808 -0.0266  0.1204  0.0433
   21DOPE  H13R 2645   3.710  -0.235   5.789 -0.7994 -0.0398  0.3488
   21DOPE  H13S 2646   3.797  -0.082   5.822  0.8936 -1.9505  0.3069
   21DOPE  C214 2647   3.605  -0.071   5.685 -0.3025  0.4187 -0.0335
   21DOPE  H14R 2648   3.633   0.030   5.646  0.7843 -0.0617 -0.5470
   21DOPE  H14S 2649   3.501  -0.071   5.725 -0.3031  0.4316 -0.0346
   21DOPE  C215 2650   3.611  -0.174   5.566 -0.0631  0.5026 -0.0286
   21DOPE  H15R 2651   3.546  -0.261   5.587 -1.4933  1.1158 -1.7230
   21DOPE  H15S 2652   3.714  -0.213   5.548  1.1389  2.4193  2.1503
   21DOPE  C216 2653   3.563  -0.115   5.428 -0.1365 -0.2041  0.4300
   21DOPE  H16R 2654   3.617  -0.024   5.395  0.2910 -0.9213 -0.9439
   21DOPE  H16S 2655   3.455  -0.091   5.419 -0.1851 -1.1771 -3.6120
   21DOPE  C217 2656   3.595  -0.212   5.313  0.3415 -0.5909 -0.4516
   21DOPE  H17R 2657   3.703  -0.232   5.297  0.3733 -0.2153 -0.7264
   21DOPE  H17S 2658   3.561  -0.154   5.224  0.1550  0.0092  0.0089
   21DOPE  C218 2659   3.522  -0.347   5.320  0.2213  0.7177 -0.0798
   21DOPE  H18R 2660   3.413  -0.330   5.305 -0.1992 -1.9548 -0.5565
   21DOPE  H18S 2661   3.519  -0.397   5.419  0.5189  2.3949  0.8134
   21DOPE  H18T 2662   3.560  -0.413   5.239  0.0952 -0.8979  1.1418
   21DOPE   C33 2663   2.992   0.348   6.523  0.1273  0.5246 -0.2621
   21DOPE   H3X 2664   2.955   0.358   6.418  0.0774  0.8886 -0.2108
   21DOPE   H3Y 2665   2.975   0.245   6.561  0.3080  1.2322  1.8446
   21DOPE   C34 2666   3.138   0.367   6.503 -0.2674  0.1786 -0.3789
   21DOPE   H4X 2667   3.153   0.476   6.484 -1.1518  0.3828  0.0142
   21DOPE   H4Y 2668   3.200   0.344   6.593 -0.7000 -0.1369 -0.1602
   21DOPE   C35 2669   3.202   0.280   6.393  0.1126  0.1182 -0.8708
   21DOPE   H5X 2670   3.218   0.179   6.436  0.8506  0.9297  0.8605
   21DOPE   H5Y 2671   3.300   0.330   6.373  0.2687  0.7058  1.1936
   21DOPE   C36 2672   3.118   0.266   6.263  0.1869  0.6465 -0.4263
   21DOPE   H6X 2673   3.091   0.368   6.228  0.6791  0.2258 -2.1307
   21DOPE   H6Y 2674   3.022   0.212   6.275  0.9882 -0.8620 -0.5453
   21DOPE   C37 2675   3.211   0.215   6.144  0.6359 -0.2743 -0.1144
   21DOPE   H7X 2676   3.280   0.302   6.134 -0.6989  0.7863 -0.5541
   21DOPE   H7Y 2677   3.264   0.123   6.176 -1.6896 -2.2357 -1.5165
   21DOPE   C38 2678   3.135   0.193   6.010  1.2562  0.0238  0.2098
   21DOPE   H8X 2679   3.068   0.278   5.986  0.3186 -1.1525 -1.5931
   21DOPE   H8Y 2680   3.065   0.109   6.027  0.1750  0.8601 -0.0299
   21DOPE   C39 2681   3.235   0.170   5.896  0.3418  0.0510 -0.7737
   21DOPE   H9X 2682   3.340   0.205   5.899  0.8177 -1.3428 -0.2387
   21DOPE  C310 2683   3.213   0.085   5.791  0.1819 -0.3129  0.2944
   21DOPE  H10X 2684   3.289   0.076   5.712 -0.5470  1.0753 -0.6006
   21DOPE  C311 2685   3.092   0.002   5.764 -1.0508  0.2265  0.2969
   21DOPE  H11X 2686   3.120  -0.103   5.742  0.5547  0.4813  0.9938
   21DOPE  H11Y 2687   3.010   0.012   5.839 -0.2018  0.7134  1.1755
   21DOPE  C312 2688   3.025   0.072   5.642  0.0816 -0.2312 -0.5471
   21DOPE  H12X 2689   3.012   0.182   5.653  1.8180  0.1667 -2.0730
   21DOPE  H12Y 2690   2.918   0.040   5.635 -0.2209  0.9628 -1.8691
   21DOPE  C313 2691   3.079   0.032   5.504  0.0982  0.2347 -0.2488
   21DOPE  H13X 2692   3.050   0.106   5.427  1.8780  1.1632 -0.0762
   21DOPE  H13Y 2693   3.190   0.035   5.508  0.1023 -0.4007  0.2139
   21DOPE  C314 2694   3.024  -0.103   5.459 -0.4014  0.5136 -0.4346
   21DOPE  H14X 2695   2.915  -0.098   5.481 -0.7680  1.8664 -2.3244
   21DOPE  H14Y 2696   3.061  -0.186   5.521 -1.7131  0.2875  0.0803
   21DOPE  C315 2697   3.041  -0.135   5.308  0.5017 -0.1070 -0.1633
   21DOPE  H15X 2698   3.151  -0.133   5.289  0.3169 -1.2981 -1.5712
   21DOPE  H15Y 2699   2.988  -0.054   5.255 -2.9104 -1.7315  0.5139
   21DOPE  C316 2700   2.995  -0.275   5.264  0.0623  0.2257 -0.3983
   21DOPE  H16X 2701   2.899  -0.289   5.319 -0.1552  3.2260  0.1668
   21DOPE  H16Y 2702   3.076  -0.342   5.299  0.7367 -0.9349 -3.7890
   21DOPE  C317 2703   2.976  -0.286   5.111 -0.4467 -0.1259  0.4770
   21DOPE  H17X 2704   2.952  -0.388   5.073 -0.3401 -0.1127  0.3692
   21DOPE  H17Y 2705   2.887  -0.228   5.081 -0.4155 -0.6758 -0.7673
   21DOPE  C318 2706   3.091  -0.242   5.019  0.4741 -0.1183  0.3224
   21DOPE  H18X 2707   3.132  -0.145   5.054  1.4490 -0.0228 -0.9883
   21DOPE  H18Y 2708   3.169  -0.320   5.006 -0.6992 -1.2954  0.1304
   21DOPE  H18Z 2709   3.047  -0.224   4.918  1.5488  2.2994  0.2325
   22DOPE     N 2710   5.635   4.911   7.971 -0.7610 -0.1420  0.5949
   22DOPE   HN1 2711   5.653   4.890   8.072  0.7607  1.1701  0.6408
   22DOPE   HN2 2712   5.642   5.014   7.958  0.4456 -0.3595 -0.7286
   22DOPE   HN3 2713   5.534   4.895   7.951 -1.0221  0.8404  1.0393
   22DOPE   C12 2714   5.731   4.826   7.890  0.1024 -0.7914 -0.7646
   22DOPE  H12A 2715   5.705   4.719   7.905  1.2416 -1.2065 -1.5722
   22DOPE  H12B 2716   5.832   4.836   7.934 -0.1841 -0.0680 -0.2712
   22DOPE   C11 2717   5.729   4.865   7.740 -0.2185 -0.1986  0.0031
   22DOPE  H11A 2718   5.624   4.875   7.705 -0.3904 -0.1937  0.5150
   22DOPE  H11B 2719   5.777   4.784   7.681 -2.3541 -0.9795 -0.7351
   22DOPE     P 2720   5.925   5.016   7.648 -0.1153  0.0166 -0.4291
   22DOPE   O13 2721   6.013   4.901   7.649 -0.0666 -0.2198 -0.2650
   22DOPE   O14 2722   5.983   5.149   7.677  0.1333  0.0066 -0.0818
   22DOPE   O11 2723   5.869   5.026   7.499 -0.4658 -0.1600 -0.2509
   22DOPE   O12 2724   5.786   4.995   7.728  0.1968 -0.0854 -0.0830
   22DOPE    C1 2725   5.735   5.067   7.477  0.3816 -0.5001  0.2197
   22DOPE    HA 2726   5.706   5.146   7.550  1.5374  1.7922 -1.6721
   22DOPE    HB 2727   5.666   4.982   7.497  0.0222 -0.0332  1.0133
   22DOPE    C2 2728   5.718   5.120   7.331  0.7936  0.6386  0.1411
   22DOPE    HS 2729   5.707   5.030   7.267 -2.4080  1.0581 -0.1000
   22DOPE   O21 2730   5.832   5.195   7.286  0.2449 -0.2052  0.2659
   22DOPE   C21 2731   5.866   5.168   7.162 -0.9272  0.0506 -0.1092
   22DOPE   O22 2732   5.812   5.085   7.089  0.2172 -0.0200  0.0566
   22DOPE   C22 2733   6.000   5.239   7.145  0.2957  0.2205  0.2107
   22DOPE   H2R 2734   6.062   5.179   7.077  1.2775  2.8355 -1.3533
   22DOPE   H2S 2735   6.046   5.262   7.244 -1.8328  0.1460  1.2804
   22DOPE    C3 2736   5.586   5.205   7.312 -0.6226 -0.5540  0.5678
   22DOPE    HX 2737   5.584   5.281   7.392  2.0668 -0.1947  0.3757
   22DOPE    HY 2738   5.496   5.144   7.333 -0.7154 -0.2502  1.0541
   22DOPE   O31 2739   5.577   5.273   7.185 -0.0725  0.7738  0.4660
   22DOPE   C31 2740   5.504   5.205   7.092 -0.2891 -0.7999  0.3197
   22DOPE   O32 2741   5.425   5.114   7.111 -0.3193 -0.0525 -0.8333
   22DOPE   C32 2742   5.554   5.261   6.953  0.1773  0.0917 -0.8545
   22DOPE   H2X 2743   5.499   5.356   6.932 -1.4605 -0.8242 -0.8863
   22DOPE   H2Y 2744   5.662   5.278   6.968 -0.0922  0.7458  0.5806
   22DOPE   C23 2745   6.001   5.383   7.083 -0.1569 -0.5264  0.0173
   22DOPE   H3R 2746   6.098   5.437   7.092 -0.7886  0.9264 -1.4910
   22DOPE   H3S 2747   5.926   5.441   7.142 -1.4403 -0.5655 -1.5248
   22DOPE   C24 2748   5.962   5.391   6.940  0.3510  0.5823  0.8765
   22DOPE   H4R 2749   5.958   5.493   6.896  1.2852  0.2079 -0.1025
   22DOPE   H4S 2750   5.865   5.338   6.928  1.1676 -0.7111 -0.2654
   22DOPE   C25 2751   6.067   5.308   6.863  0.4087  0.0222  0.4862
   22DOPE   H5R 2752   6.030   5.204   6.852 -0.3900  0.2003  1.4336
   22DOPE   H5S 2753   6.169   5.304   6.907  0.1588 -0.6967  1.0149
   22DOPE   C26 2754   6.071   5.357   6.717  0.1945  0.2322 -0.2244
   22DOPE   H6R 2755   6.086   5.466   6.701 -0.2691  0.4441  0.7190
   22DOPE   H6S 2756   5.974   5.344   6.664  0.0416 -1.6015  0.4300
   22DOPE   C27 2757   6.191   5.296   6.639 -0.5615  0.2217  0.7423
   22DOPE   H7R 2758   6.200   5.185   6.646  0.5903  0.3126  0.9582
   22DOPE   H7S 2759   6.288   5.334   6.677 -0.4233  0.1204  0.4978
   22DOPE   C28 2760   6.177   5.335   6.483 -0.2403 -0.1371 -0.1041
   22DOPE   H8R 2761   6.201   5.443   6.476 -1.3632  0.0661 -1.1708
   22DOPE   H8S 2762   6.071   5.322   6.454  0.4545 -0.5914 -2.6174
   22DOPE   C29 2763   6.273   5.248   6.400 -0.2128 -0.1911 -0.3066
   22DOPE   H9R 2764   6.376   5.250   6.439  0.4514  0.5423 -1.9756
   22DOPE  C210 2765   6.241   5.169   6.299 -0.3510 -0.2887  0.2945
   22DOPE  H10R 2766   6.321   5.113   6.248 -1.8072 -0.4534 -1.9609
   22DOPE  C211 2767   6.103   5.153   6.243  0.0308  0.0725 -0.1537
   22DOPE  H11R 2768   6.020   5.168   6.315 -0.2740  0.4379 -0.5777
   22DOPE  H11S 2769   6.087   5.048   6.212 -1.2782  0.3066 -0.3498
   22DOPE  C212 2770   6.055   5.260   6.132 -0.2074  0.0460  0.0948
   22DOPE  H12R 2771   6.128   5.344   6.141 -0.4088  0.5804 -2.4504
   22DOPE  H12S 2772   5.949   5.293   6.134 -0.3472 -0.3709 -0.2146
   22DOPE  C213 2773   6.074   5.206   5.984  0.1987  0.1838  0.5845
   22DOPE  H13R 2774   5.999   5.129   5.956  0.4756 -0.1687  0.7989
   22DOPE  H13S 2775   6.176   5.161   5.991 -0.1528 -0.7130  0.2059
   22DOPE  C214 2776   6.067   5.317   5.867 -0.0624  0.0135 -0.1527
   22DOPE  H14R 2777   5.968   5.365   5.880 -0.7881 -1.5549  0.5045
   22DOPE  H14S 2778   6.067   5.257   5.774 -4.1656 -0.7448  0.1352
   22DOPE  C215 2779   6.186   5.414   5.866 -0.0270 -0.6408  0.4145
   22DOPE  H15R 2780   6.277   5.359   5.834 -0.4720 -1.1571  0.0014
   22DOPE  H15S 2781   6.199   5.458   5.967  4.4136  0.0953 -0.2730
   22DOPE  C216 2782   6.161   5.522   5.756  0.1985 -0.3377 -0.0168
   22DOPE  H16R 2783   6.066   5.572   5.785  0.4509  0.6941 -0.8845
   22DOPE  H16S 2784   6.156   5.478   5.654  1.6654 -1.4530  0.3758
   22DOPE  C217 2785   6.280   5.626   5.758  0.1306  0.0767  0.3429
   22DOPE  H17R 2786   6.296   5.669   5.859 -2.7844  0.6846  0.6403
   22DOPE  H17S 2787   6.248   5.704   5.684  1.7421  0.3592 -0.0955
   22DOPE  C218 2788   6.416   5.569   5.718 -0.3710  0.6823  0.8739
   22DOPE  H18R 2789   6.454   5.526   5.813 -1.1471 -2.7452 -0.1946
   22DOPE  H18S 2790   6.474   5.657   5.683 -1.3591  1.0761  0.1745
   22DOPE  H18T 2791   6.399   5.482   5.650  1.0246 -0.5193  1.9916
   22DOPE   C33 2792   5.535   5.159   6.842 -0.1348  0.0724 -0.1089
   22DOPE   H3X 2793   5.433   5.115   6.848  0.5908 -1.6050  0.7433
   22DOPE   H3Y 2794   5.600   5.071   6.864 -0.5528 -0.1512  0.2478
   22DOPE   C34 2795   5.553   5.214   6.698 -0.8136 -0.2641  0.9845
   22DOPE   H4X 2796   5.498   5.142   6.633  1.7486 -0.9907 -0.5429
   22DOPE   H4Y 2797   5.509   5.315   6.688  0.3454  0.2354  0.7094
   22DOPE   C35 2798   5.701   5.225   6.645 -0.5919  0.0919  0.3865
   22DOPE   H5X 2799   5.741   5.124   6.668  0.0399  0.2513  0.0112
   22DOPE   H5Y 2800   5.746   5.311   6.700  1.5250  1.1800 -2.7713
   22DOPE   C36 2801   5.707   5.253   6.497  0.0107  0.0642  0.0811
   22DOPE   H6X 2802   5.614   5.220   6.446 -1.4685  0.4080  2.4180
   22DOPE   H6Y 2803   5.793   5.194   6.457  0.4137  0.4913  0.3045
   22DOPE   C37 2804   5.727   5.396   6.459  0.2067 -0.0288 -0.3632
   22DOPE   H7X 2805   5.656   5.457   6.518  1.4196 -1.4919  2.8277
   22DOPE   H7Y 2806   5.827   5.419   6.502  0.9932 -0.3281 -1.9354
   22DOPE   C38 2807   5.729   5.425   6.304 -0.8517 -0.0699  0.0097
   22DOPE   H8X 2808   5.639   5.374   6.264  0.4432 -1.6455 -1.0575
   22DOPE   H8Y 2809   5.811   5.366   6.257 -0.0552  1.9721 -1.2878
   22DOPE   C39 2810   5.729   5.573   6.275  0.7169  0.6188 -0.1431
   22DOPE   H9X 2811   5.623   5.595   6.253  0.0717 -1.8886  0.0916
   22DOPE  C310 2812   5.830   5.667   6.289  0.2506  0.1101  0.3604
   22DOPE  H10X 2813   5.808   5.772   6.269 -1.0567 -0.1045  0.6063
   22DOPE  C311 2814   5.968   5.631   6.330 -1.0891  0.0747  0.3694
   22DOPE  H11X 2815   5.988   5.656   6.437  0.8474 -2.4283  0.6986
   22DOPE  H11Y 2816   5.993   5.523   6.331  0.0926  0.2666  3.2612
   22DOPE  C312 2817   6.071   5.691   6.230 -0.4314 -0.1131 -0.1173
   22DOPE  H12X 2818   6.077   5.802   6.235 -3.5421  0.1312 -0.1827
   22DOPE  H12Y 2819   6.042   5.662   6.127  0.0792  1.2638 -0.6703
   22DOPE  C313 2820   6.211   5.632   6.253 -0.2464  0.4813  0.1475
   22DOPE  H13X 2821   6.241   5.641   6.360  0.5316  0.7156 -0.0821
   22DOPE  H13Y 2822   6.207   5.525   6.225 -1.9490  1.0065 -1.8850
   22DOPE  C314 2823   6.326   5.718   6.180  0.6875  0.3487 -0.1687
   22DOPE  H14X 2824   6.322   5.814   6.236  0.6801  0.0310  0.3808
   22DOPE  H14Y 2825   6.277   5.730   6.081  0.5235  0.6824 -0.0502
   22DOPE  C315 2826   6.463   5.651   6.195  0.9568 -0.3649  0.5909
   22DOPE  H15X 2827   6.505   5.638   6.297  0.8180  0.5945  0.7795
   22DOPE  H15Y 2828   6.542   5.705   6.138 -0.9066  1.4860 -0.3345
   22DOPE  C316 2829   6.461   5.503   6.140 -0.3380  0.3655  0.6152
   22DOPE  H16X 2830   6.405   5.502   6.044  1.8380  1.5102 -0.7301
   22DOPE  H16Y 2831   6.419   5.433   6.216  1.9485 -2.4408 -0.5560
   22DOPE  C317 2832   6.602   5.436   6.109  0.3159  0.1587  0.5779
   22DOPE  H17X 2833   6.639   5.484   6.016 -0.8469  1.1985  0.6149
   22DOPE  H17Y 2834   6.671   5.475   6.186  2.5845 -1.5739 -0.4632
   22DOPE  C318 2835   6.587   5.285   6.090 -0.3708 -0.0727  0.3018
   22DOPE  H18X 2836   6.512   5.260   6.013  0.4715  0.8129 -0.8451
   22DOPE  H18Y 2837   6.686   5.241   6.067 -0.5369  0.0817 -0.7719
   22DOPE  H18Z 2838   6.548   5.250   6.188 -0.6487 -0.0878  0.1855
   23DOPE     N 2839   4.900   7.326   7.373 -0.0819 -0.1218  0.1350
   23DOPE   HN1 2840   4.889   7.384   7.288  1.6902 -0.2122 -0.1837
   23DOPE   HN2 2841   4.991   7.358   7.411 -1.0069  1.1480  1.4245
   23DOPE   HN3 2842   4.914   7.225   7.355  0.7218  0.0844 -0.4302
   23DOPE   C12 2843   4.793   7.346   7.477 -0.0645 -0.0778 -0.8129
   23DOPE  H12A 2844   4.702   7.305   7.427 -0.2356  2.0698 -2.3841
   23DOPE  H12B 2845   4.783   7.456   7.479 -1.4968 -0.1457  2.1607
   23DOPE   C11 2846   4.819   7.297   7.617  0.2998 -0.1490  0.1963
   23DOPE  H11A 2847   4.858   7.193   7.613  2.3202  0.4657  1.9612
   23DOPE  H11B 2848   4.725   7.296   7.675  0.3387 -0.5522  0.2609
   23DOPE     P 2849   4.949   7.380   7.835  0.9890 -0.5544 -0.0728
   23DOPE   O13 2850   4.968   7.243   7.883  0.6462  0.7367 -0.1203
   23DOPE   O14 2851   4.831   7.455   7.888  0.0752  0.5296  0.0460
   23DOPE   O11 2852   5.088   7.459   7.856  1.1715 -0.2482 -0.5076
   23DOPE   O12 2853   4.924   7.374   7.678  0.0861 -0.0869  0.1573
   23DOPE    C1 2854   5.094   7.586   7.792  0.5062 -0.2913 -0.2843
   23DOPE    HA 2855   5.166   7.643   7.854 -1.7293 -0.2185  2.4462
   23DOPE    HB 2856   4.997   7.637   7.809  0.8055  0.0783  0.3776
   23DOPE    C2 2857   5.145   7.580   7.645 -0.2685  0.3265  0.6938
   23DOPE    HS 2858   5.056   7.564   7.581 -0.1814  1.1896  0.3428
   23DOPE   O21 2859   5.256   7.482   7.632 -0.0130 -0.5744  1.0593
   23DOPE   C21 2860   5.245   7.401   7.532  0.6090  0.2523 -0.1810
   23DOPE   O22 2861   5.162   7.410   7.442  0.0897  0.2999 -0.2429
   23DOPE   C22 2862   5.356   7.299   7.538 -0.3067  0.2561  0.4490
   23DOPE   H2R 2863   5.338   7.246   7.635 -1.3197 -0.7417 -0.2593
   23DOPE   H2S 2864   5.449   7.358   7.524  0.5985 -1.2879 -0.3972
   23DOPE    C3 2865   5.191   7.717   7.591 -0.3660  0.4882  0.1064
   23DOPE    HX 2866   5.287   7.745   7.639 -0.2173  0.0617  0.0640
   23DOPE    HY 2867   5.122   7.802   7.610  0.5004  1.2178  0.0170
   23DOPE   O31 2868   5.224   7.716   7.450  0.3985  0.0415 -0.2216
   23DOPE   C31 2869   5.116   7.723   7.375  0.7163  0.2626  0.3852
   23DOPE   O32 2870   5.003   7.685   7.405  0.0471 -0.2884 -0.6179
   23DOPE   C32 2871   5.166   7.750   7.232  0.5273 -0.3267  0.3336
   23DOPE   H2X 2872   5.177   7.860   7.221 -1.2528 -0.1480  0.1210
   23DOPE   H2Y 2873   5.261   7.695   7.216  0.2685 -1.1679  1.5997
   23DOPE   C23 2874   5.354   7.188   7.426 -0.2776 -0.2433 -0.0928
   23DOPE   H3R 2875   5.249   7.158   7.406 -0.1763 -0.5433 -0.1709
   23DOPE   H3S 2876   5.403   7.093   7.456  0.4965  0.4208  0.8370
   23DOPE   C24 2877   5.426   7.238   7.300  0.2500 -0.0907 -0.4446
   23DOPE   H4R 2878   5.530   7.275   7.313  0.9080 -2.1957  0.8187
   23DOPE   H4S 2879   5.357   7.320   7.270  0.0794 -0.4439 -1.0239
   23DOPE   C25 2880   5.429   7.139   7.189 -0.5875  0.2546  0.0227
   23DOPE   H5R 2881   5.334   7.084   7.206  0.1517 -0.4347  2.1970
   23DOPE   H5S 2882   5.529   7.090   7.195 -1.1668 -1.0077 -0.2166
   23DOPE   C26 2883   5.420   7.209   7.054  0.0099  0.1476  0.1171
   23DOPE   H6R 2884   5.509   7.275   7.041 -0.8108  1.0357 -1.2762
   23DOPE   H6S 2885   5.324   7.265   7.048 -0.8082 -1.2557 -0.5339
   23DOPE   C27 2886   5.427   7.118   6.930 -0.0782 -0.3406 -0.2565
   23DOPE   H7R 2887   5.400   7.176   6.839  0.4243  0.5806  0.1605
   23DOPE   H7S 2888   5.357   7.032   6.938 -3.1971  2.0804  0.6911
   23DOPE   C28 2889   5.576   7.094   6.906 -0.4223  0.4233  0.4700
   23DOPE   H8R 2890   5.628   7.055   6.996 -0.9264 -0.2654  0.4642
   23DOPE   H8S 2891   5.625   7.188   6.873  1.6548  0.5780  3.5445
   23DOPE   C29 2892   5.603   6.978   6.808  0.5748 -0.3494  0.3958
   23DOPE   H9R 2893   5.610   6.883   6.863  2.0364 -1.8021 -2.1139
   23DOPE  C210 2894   5.637   6.993   6.678  0.7692 -0.1274 -0.4474
   23DOPE  H10R 2895   5.664   6.903   6.621  2.3642  1.3565 -2.1679
   23DOPE  C211 2896   5.659   7.118   6.592 -0.4433 -0.3228  0.2984
   23DOPE  H11R 2897   5.639   7.211   6.650 -0.0958 -1.0363  1.6180
   23DOPE  H11S 2898   5.604   7.132   6.496  1.6491  1.4297 -0.7309
   23DOPE  C212 2899   5.810   7.141   6.568 -0.4045  0.3049  0.0556
   23DOPE  H12R 2900   5.882   7.094   6.638 -0.4560 -0.1522 -0.1956
   23DOPE  H12S 2901   5.832   7.250   6.561  1.2445  0.0865  1.3118
   23DOPE  C213 2902   5.848   7.089   6.432 -0.0061  0.2809 -0.9193
   23DOPE  H13R 2903   5.779   7.133   6.356 -3.2066  0.9077  2.0767
   23DOPE  H13S 2904   5.842   6.978   6.425  0.5717  0.3527 -3.9865
   23DOPE  C214 2905   5.994   7.121   6.399  0.8651  0.3456  0.1901
   23DOPE  H14R 2906   6.065   7.069   6.467  1.0071  1.2697  0.7563
   23DOPE  H14S 2907   6.007   7.229   6.423  1.9522  0.4255 -0.6683
   23DOPE  C215 2908   6.033   7.092   6.252  0.8971 -0.2942  0.6319
   23DOPE  H15R 2909   5.991   6.992   6.226 -0.8669  0.5086  0.2713
   23DOPE  H15S 2910   6.142   7.082   6.232  0.5660 -0.7203 -1.1419
   23DOPE  C216 2911   5.980   7.210   6.162  0.0068  1.1706  0.5723
   23DOPE  H16R 2912   6.047   7.299   6.167 -0.7863  1.7707  0.7086
   23DOPE  H16S 2913   5.882   7.249   6.197 -1.1598  1.1326 -2.3979
   23DOPE  C217 2914   5.958   7.181   6.012  0.0308 -0.5896  0.2723
   23DOPE  H17R 2915   5.884   7.100   5.994  1.5789 -1.6776 -1.5651
   23DOPE  H17S 2916   6.052   7.148   5.964  0.6402  1.4856 -0.0861
   23DOPE  C218 2917   5.903   7.309   5.949  0.3448 -0.2314 -0.9275
   23DOPE  H18R 2918   5.876   7.293   5.842  1.8860  0.4387 -1.4389
   23DOPE  H18S 2919   5.968   7.397   5.968 -0.8895  0.2745  1.2572
   23DOPE  H18T 2920   5.810   7.329   6.006 -0.2456 -2.4796 -0.9921
   23DOPE   C33 2921   5.060   7.701   7.123 -0.3567 -0.4742  0.0393
   23DOPE   H3X 2922   4.959   7.707   7.171  0.4018 -0.7121  1.7567
   23DOPE   H3Y 2923   5.065   7.590   7.118 -1.9898 -0.9448  4.1377
   23DOPE   C34 2924   5.065   7.772   6.990 -0.2074 -0.2481 -0.5410
   23DOPE   H4X 2925   5.087   7.881   6.990  0.2792 -0.3323  0.5999
   23DOPE   H4Y 2926   5.160   7.742   6.942  0.2955  0.2582  0.1081
   23DOPE   C35 2927   4.944   7.734   6.910  0.5806  0.0156  0.0659
   23DOPE   H5X 2928   4.854   7.769   6.965  1.7431  1.5762  1.0748
   23DOPE   H5Y 2929   4.927   7.626   6.897  1.2435 -0.2203  1.0213
   23DOPE   C36 2930   4.936   7.802   6.774 -0.1291 -0.7591  0.5720
   23DOPE   H6X 2931   4.838   7.768   6.733 -0.5632  1.1402 -0.1229
   23DOPE   H6Y 2932   5.020   7.772   6.708 -1.6113 -0.3743 -1.6084
   23DOPE   C37 2933   4.926   7.951   6.774  0.4863  0.3119 -0.2451
   23DOPE   H7X 2934   4.866   7.985   6.861 -1.6921  0.7393 -1.8252
   23DOPE   H7Y 2935   5.028   7.994   6.779 -0.6382  3.5535 -2.1713
   23DOPE   C38 2936   4.879   7.990   6.633  0.4668  1.0088 -0.5841
   23DOPE   H8X 2937   4.929   7.923   6.560 -0.1620 -1.0565  0.7886
   23DOPE   H8Y 2938   4.908   8.094   6.608 -0.3096  1.0097 -1.5617
   23DOPE   C39 2939   4.729   7.987   6.610  0.1094  0.5951  0.6360
   23DOPE   H9X 2940   4.669   8.052   6.676  1.2622  0.6642  1.6356
   23DOPE  C310 2941   4.665   7.905   6.522  0.3999 -0.1141  0.7341
   23DOPE  H10X 2942   4.556   7.914   6.506  0.3653  0.4345  1.2709
   23DOPE  C311 2943   4.724   7.805   6.425  0.3467 -0.0506 -0.5962
   23DOPE  H11X 2944   4.748   7.854   6.329  2.2263  0.6061  0.1629
   23DOPE  H11Y 2945   4.809   7.749   6.469 -1.1884 -1.7841  0.3303
   23DOPE  C312 2946   4.626   7.699   6.365 -0.0079  0.0252 -0.1688
   23DOPE  H12X 2947   4.569   7.643   6.442  2.9281 -1.4920  1.0777
   23DOPE  H12Y 2948   4.684   7.629   6.301  0.1763 -0.2908  0.3401
   23DOPE  C313 2949   4.518   7.744   6.266 -0.0447 -0.6117 -0.3697
   23DOPE  H13X 2950   4.453   7.658   6.240  0.3684 -0.8067 -0.7734
   23DOPE  H13Y 2951   4.460   7.804   6.339 -0.7236 -1.3775 -0.2613
   23DOPE  C314 2952   4.569   7.818   6.140 -0.7032  0.8856 -0.6246
   23DOPE  H14X 2953   4.657   7.768   6.095  0.1316  1.2966  0.4872
   23DOPE  H14Y 2954   4.613   7.914   6.175 -1.4350  0.7393  0.8188
   23DOPE  C315 2955   4.452   7.840   6.042  0.5395 -0.1109 -0.5257
   23DOPE  H15X 2956   4.404   7.933   6.079 -0.4837 -0.0037 -2.0351
   23DOPE  H15Y 2957   4.385   7.753   6.056 -0.2823  0.6812  0.6485
   23DOPE  C316 2958   4.504   7.858   5.896  0.5290 -0.0819 -0.3811
   23DOPE  H16X 2959   4.567   7.775   5.856 -0.9288  0.2231 -3.6620
   23DOPE  H16Y 2960   4.572   7.945   5.899  2.4217 -1.5230  1.3843
   23DOPE  C317 2961   4.391   7.883   5.801 -0.1689  0.1052  0.0635
   23DOPE  H17X 2962   4.327   7.794   5.820 -0.5807  0.1925 -0.8859
   23DOPE  H17Y 2963   4.338   7.977   5.828 -1.1792 -0.3416 -0.3196
   23DOPE  C318 2964   4.425   7.898   5.655  0.6264 -0.4902 -0.2980
   23DOPE  H18X 2965   4.490   7.812   5.627  0.5261 -1.0465  1.0892
   23DOPE  H18Y 2966   4.331   7.902   5.596 -0.7943  0.6275  1.8928
   23DOPE  H18Z 2967   4.475   7.996   5.637 -0.4738  0.2976  0.7606
   24DOPE     N 2968   6.113   6.009   7.482 -1.0298 -0.4201 -0.2669
   24DOPE   HN1 2969   6.115   5.967   7.387 -1.0557 -0.6917 -0.1477
   24DOPE   HN2 2970   6.079   5.933   7.544 -0.7975 -1.2599 -1.1596
   24DOPE   HN3 2971   6.055   6.095   7.493 -0.0377  0.1725  0.4299
   24DOPE   C12 2972   6.255   6.042   7.525  0.3591 -0.3498  0.1762
   24DOPE  H12A 2973   6.316   5.956   7.493 -0.7121 -0.9371 -0.3489
   24DOPE  H12B 2974   6.248   6.049   7.636  0.0471  1.9970  0.0657
   24DOPE   C11 2975   6.313   6.163   7.459 -0.2365  0.0986  0.5957
   24DOPE  H11A 2976   6.333   6.143   7.352  1.2235 -1.4999  1.1219
   24DOPE  H11B 2977   6.420   6.172   7.489  0.4211  0.9840 -1.8205
   24DOPE     P 2978   6.221   6.419   7.427 -0.4498 -0.1185 -0.4185
   24DOPE   O13 2979   6.309   6.516   7.494  0.1123  0.4141 -0.2079
   24DOPE   O14 2980   6.077   6.455   7.422  0.2750 -0.1668 -0.6903
   24DOPE   O11 2981   6.280   6.395   7.274  0.0249 -0.1181  0.2356
   24DOPE   O12 2982   6.231   6.276   7.492  0.4711 -0.6739 -0.0760
   24DOPE    C1 2983   6.195   6.348   7.175  0.3168 -0.7429 -0.2039
   24DOPE    HA 2984   6.104   6.408   7.153  0.4975 -0.6051 -0.5778
   24DOPE    HB 2985   6.152   6.250   7.207  0.2623 -0.8781 -0.6830
   24DOPE    C2 2986   6.263   6.356   7.036 -0.1959  0.4784 -0.1771
   24DOPE    HS 2987   6.194   6.316   6.959  2.9670 -1.3066 -2.3126
   24DOPE   O21 2988   6.390   6.279   7.045  0.2446 -0.1803 -0.0394
   24DOPE   C21 2989   6.372   6.149   7.059  0.9600  0.9405 -0.1365
   24DOPE   O22 2990   6.266   6.089   7.058 -0.4820 -0.2281  0.5610
   24DOPE   C22 2991   6.508   6.097   7.072 -0.3806 -0.1908  0.3666
   24DOPE   H2R 2992   6.505   5.987   7.083 -0.8972 -0.2414 -0.2549
   24DOPE   H2S 2993   6.552   6.135   7.167  1.2704  0.7358 -0.7273
   24DOPE    C3 2994   6.304   6.503   7.003 -0.0974 -0.0786  0.4989
   24DOPE    HX 2995   6.363   6.540   7.090  0.5951  0.6527 -0.2735
   24DOPE    HY 2996   6.213   6.565   6.995  0.8270  1.5373  1.8944
   24DOPE   O31 2997   6.368   6.516   6.875  0.3402 -0.2552 -0.4928
   24DOPE   C31 2998   6.500   6.507   6.876  0.4480 -0.3445  0.4190
   24DOPE   O32 2999   6.579   6.473   6.962 -0.1074  0.3439 -0.0477
   24DOPE   C32 3000   6.551   6.535   6.736 -0.6411 -0.1434  0.3802
   24DOPE   H2X 3001   6.465   6.550   6.668 -1.5198 -2.2035  0.9673
   24DOPE   H2Y 3002   6.592   6.638   6.737 -1.7171  0.3752 -2.0308
   24DOPE   C23 3003   6.597   6.129   6.943 -0.0885 -0.6535  0.0456
   24DOPE   H3R 3004   6.703   6.117   6.975 -0.0193 -0.0142  0.0815
   24DOPE   H3S 3005   6.585   6.236   6.915 -1.0905 -0.8319 -0.2511
   24DOPE   C24 3006   6.558   6.041   6.826 -0.1961  0.3018 -0.6144
   24DOPE   H4R 3007   6.496   6.102   6.757  0.5643  1.7125 -0.0730
   24DOPE   H4S 3008   6.507   5.949   6.863  1.6569 -0.2726  0.6468
   24DOPE   C25 3009   6.678   5.978   6.755  0.2762 -0.2086 -0.2827
   24DOPE   H5R 3010   6.694   5.881   6.807 -0.7591 -0.1682  0.1460
   24DOPE   H5S 3011   6.770   6.036   6.779 -0.8307  1.6836 -0.3652
   24DOPE   C26 3012   6.665   5.943   6.605  0.2688 -0.5172  0.8180
   24DOPE   H6R 3013   6.642   6.040   6.556 -2.2629  0.1665  3.0827
   24DOPE   H6S 3014   6.584   5.866   6.598  1.1932 -1.4509  0.1098
   24DOPE   C27 3015   6.787   5.871   6.541 -0.0744 -0.1464 -0.7036
   24DOPE   H7R 3016   6.808   5.790   6.615  1.9966  1.1877  0.2460
   24DOPE   H7S 3017   6.876   5.937   6.535  0.0350 -0.1558  0.4900
   24DOPE   C28 3018   6.755   5.836   6.397  0.0958 -0.7177 -0.7065
   24DOPE   H8R 3019   6.750   5.934   6.344 -1.6393  1.3768  2.9359
   24DOPE   H8S 3020   6.655   5.788   6.387 -0.0721 -0.0813 -2.6544
   24DOPE   C29 3021   6.854   5.736   6.349  0.2344  0.1722 -0.9815
   24DOPE   H9R 3022   6.873   5.652   6.417  0.5652  1.5674  0.7392
   24DOPE  C210 3023   6.921   5.747   6.234 -0.2615 -0.2560  0.1122
   24DOPE  H10R 3024   7.009   5.683   6.220 -0.5783 -0.7242  0.2702
   24DOPE  C211 3025   6.915   5.864   6.132 -0.2747  1.1413 -0.0895
   24DOPE  H11R 3026   7.015   5.893   6.092 -0.2815  0.4064 -0.6662
   24DOPE  H11S 3027   6.873   5.959   6.172 -1.6602  1.4118 -2.0627
   24DOPE  C212 3028   6.826   5.827   6.005 -0.3046 -0.5649 -0.8276
   24DOPE  H12R 3029   6.727   5.790   6.039 -1.1345  0.8273 -1.6390
   24DOPE  H12S 3030   6.877   5.744   5.952  1.0237 -2.5885  3.1772
   24DOPE  C213 3031   6.816   5.946   5.910  0.1504  0.3798  0.5440
   24DOPE  H13R 3032   6.919   5.984   5.893  0.1637 -0.2144 -0.7780
   24DOPE  H13S 3033   6.748   6.026   5.948 -0.6564 -0.0157 -0.0406
   24DOPE  C214 3034   6.750   5.893   5.781  0.3014 -0.2412 -0.8754
   24DOPE  H14R 3035   6.686   5.804   5.798  1.3225 -0.4490  2.6724
   24DOPE  H14S 3036   6.835   5.864   5.716 -1.0374 -3.3215 -1.4208
   24DOPE  C215 3037   6.668   6.009   5.718  0.2373 -0.0521 -0.5352
   24DOPE  H15R 3038   6.728   6.101   5.700  1.5497 -0.6782  0.4496
   24DOPE  H15S 3039   6.581   6.026   5.785  0.4894 -0.8493  0.0090
   24DOPE  C216 3040   6.607   5.975   5.578  0.3705  0.0781 -0.2559
   24DOPE  H16R 3041   6.528   5.898   5.592  0.7795 -0.2284  0.4181
   24DOPE  H16S 3042   6.693   5.937   5.519  0.8078 -0.8091  0.9153
   24DOPE  C217 3043   6.524   6.098   5.522  0.0988 -0.0009 -0.2506
   24DOPE  H17R 3044   6.602   6.172   5.494 -0.3050  0.4029 -0.3183
   24DOPE  H17S 3045   6.462   6.151   5.598  1.1761 -1.6183  1.8578
   24DOPE  C218 3046   6.445   6.071   5.393 -0.0871  0.2290  0.2686
   24DOPE  H18R 3047   6.361   5.999   5.410 -0.2355  0.0964 -0.9635
   24DOPE  H18S 3048   6.503   6.026   5.309 -0.6081 -0.1802  0.1225
   24DOPE  H18T 3049   6.397   6.166   5.363 -1.9590 -0.9190 -0.5512
   24DOPE   C33 3050   6.638   6.422   6.680 -0.0601  0.0207  0.7539
   24DOPE   H3X 3051   6.586   6.326   6.701 -2.0958  1.3851  2.2906
   24DOPE   H3Y 3052   6.731   6.418   6.741 -0.8456  0.4338  2.0089
   24DOPE   C34 3053   6.662   6.421   6.529  0.1235  0.3755 -0.1785
   24DOPE   H4X 3054   6.572   6.384   6.476 -0.4123  1.8246 -0.3301
   24DOPE   H4Y 3055   6.683   6.524   6.492  1.4532 -0.5503 -2.2132
   24DOPE   C35 3056   6.783   6.332   6.472  0.5242  1.2735  0.2763
   24DOPE   H5X 3057   6.763   6.232   6.515 -1.3291  0.5791 -2.0362
   24DOPE   H5Y 3058   6.876   6.381   6.510  1.6118 -0.9547  0.6688
   24DOPE   C36 3059   6.778   6.325   6.318 -0.4521  0.3825 -0.1063
   24DOPE   H6X 3060   6.770   6.430   6.283 -0.1357  1.4370  2.7570
   24DOPE   H6Y 3061   6.685   6.271   6.290 -1.9426  1.5500  2.2559
   24DOPE   C37 3062   6.919   6.275   6.263  0.0375  0.1362 -0.6649
   24DOPE   H7X 3063   6.989   6.352   6.301 -0.2366  1.2845 -2.3713
   24DOPE   H7Y 3064   6.944   6.180   6.314  0.1920  0.6944  0.3317
   24DOPE   C38 3065   6.937   6.252   6.117  0.3688  0.0107  0.8532
   24DOPE   H8X 3066   6.862   6.184   6.071  1.5351 -0.7658  0.0374
   24DOPE   H8Y 3067   7.031   6.193   6.108  0.5208  0.5141 -2.2924
   24DOPE   C39 3068   6.941   6.366   6.030  1.1377 -1.1165  0.1457
   24DOPE   H9X 3069   6.849   6.425   6.040  2.7113  1.1440  2.6214
   24DOPE  C310 3070   7.038   6.410   5.955 -0.8738 -0.4530 -0.0804
   24DOPE  H10X 3071   7.021   6.503   5.898 -1.6508 -0.1781  0.5789
   24DOPE  C311 3072   7.180   6.357   5.933 -0.2689 -0.8423 -0.4318
   24DOPE  H11X 3073   7.215   6.346   6.037 -1.8301  0.1997  0.2461
   24DOPE  H11Y 3074   7.186   6.257   5.885 -0.3618 -0.0706 -2.1281
   24DOPE  C312 3075   7.286   6.456   5.864  0.1570 -0.0989 -0.2873
   24DOPE  H12X 3076   7.377   6.392   5.867  0.0042 -0.2993  1.9820
   24DOPE  H12Y 3077   7.292   6.551   5.922 -1.8587 -1.1814  1.8524
   24DOPE  C313 3078   7.265   6.465   5.714 -0.2093  0.1930 -0.2099
   24DOPE  H13X 3079   7.290   6.367   5.669  0.4614  0.3794 -0.2508
   24DOPE  H13Y 3080   7.159   6.493   5.696 -0.4114  0.3665  1.1017
   24DOPE  C314 3081   7.356   6.575   5.642  0.0210 -0.6909 -0.5725
   24DOPE  H14X 3082   7.460   6.536   5.630 -0.4474 -1.7171 -1.4062
   24DOPE  H14Y 3083   7.367   6.666   5.705 -1.5147 -0.1796 -1.0094
   24DOPE  C315 3084   7.302   6.632   5.508  0.7014 -0.2660  0.1768
   24DOPE  H15X 3085   7.215   6.695   5.535  3.0284  3.2792  0.2289
   24DOPE  H15Y 3086   7.263   6.549   5.446  0.5499 -0.0068 -0.0808
   24DOPE  C316 3087   7.410   6.709   5.427  0.6257 -0.6316 -0.0132
   24DOPE  H16X 3088   7.488   6.630   5.416  2.0444  0.5521  1.0892
   24DOPE  H16Y 3089   7.452   6.784   5.498 -0.1692  0.2090 -0.4092
   24DOPE  C317 3090   7.368   6.767   5.291 -0.5110 -0.1810 -0.3604
   24DOPE  H17X 3091   7.268   6.810   5.315 -0.7752 -1.9313  2.1077
   24DOPE  H17Y 3092   7.431   6.855   5.266 -1.0078  0.5183  0.7507
   24DOPE  C318 3093   7.350   6.663   5.184 -0.2880  0.3211 -0.2286
   24DOPE  H18X 3094   7.295   6.576   5.226 -0.9233  0.6071 -0.4538
   24DOPE  H18Y 3095   7.306   6.694   5.087  0.0938  0.8172 -0.2432
   24DOPE  H18Z 3096   7.451   6.637   5.145  0.1817  1.4809  0.1756
   25DOPE     N 3097   6.775   6.493   7.324  0.1666 -1.0384  0.1208
   25DOPE   HN1 3098   6.770   6.581   7.380 -0.1674 -1.0822  0.1611
   25DOPE   HN2 3099   6.678   6.459   7.310 -0.9474  1.7954  0.4106
   25DOPE   HN3 3100   6.833   6.422   7.373  0.5695  0.0874  1.3541
   25DOPE   C12 3101   6.839   6.529   7.194  0.3779 -0.2390  0.3796
   25DOPE  H12A 3102   6.932   6.588   7.210 -0.0488  0.3937  0.5523
   25DOPE  H12B 3103   6.768   6.589   7.134 -2.7264 -2.4893  1.5507
   25DOPE   C11 3104   6.870   6.406   7.107  0.0655 -0.9533  0.2466
   25DOPE  H11A 3105   6.926   6.446   7.019  1.3457 -1.1880  0.9283
   25DOPE  H11B 3106   6.775   6.357   7.076 -1.1316  0.5842  1.3577
   25DOPE     P 3107   7.112   6.318   7.185 -0.1141  0.2349  0.1533
   25DOPE   O13 3108   7.157   6.184   7.224  0.3666 -0.0950 -0.5407
   25DOPE   O14 3109   7.165   6.438   7.256  0.3438 -0.2300 -0.5446
   25DOPE   O11 3110   7.149   6.347   7.032 -0.1724  0.2260  0.5350
   25DOPE   O12 3111   6.950   6.314   7.180  0.3665 -0.2465 -0.0452
   25DOPE    C1 3112   7.111   6.255   6.927 -0.1633 -0.2354 -0.1389
   25DOPE    HA 3113   7.006   6.221   6.942 -0.5671  1.3373  0.8184
   25DOPE    HB 3114   7.186   6.173   6.935  0.9891  0.9647  3.8491
   25DOPE    C2 3115   7.145   6.304   6.783  0.0721  0.0554  0.2903
   25DOPE    HS 3116   7.253   6.327   6.797  0.0737  0.2886 -0.0935
   25DOPE   O21 3117   7.055   6.409   6.746  0.0744 -0.7206  0.5871
   25DOPE   C21 3118   7.118   6.501   6.674  0.6612  0.8593  0.8342
   25DOPE   O22 3119   7.236   6.507   6.643  0.2758  0.4297  0.6541
   25DOPE   C22 3120   7.014   6.607   6.627 -0.2419 -0.1508  0.4262
   25DOPE   H2R 3121   7.038   6.698   6.686 -0.7362 -0.5921  1.3451
   25DOPE   H2S 3122   6.908   6.579   6.645 -1.8274  1.3993 -4.8839
   25DOPE    C3 3123   7.134   6.181   6.682  0.1112 -0.2112  0.2421
   25DOPE    HX 3124   7.026   6.156   6.687  0.0417  0.2845  1.5525
   25DOPE    HY 3125   7.194   6.095   6.720  1.3762  1.1838  1.5518
   25DOPE   O31 3126   7.159   6.218   6.549  0.2340 -0.4837 -0.1054
   25DOPE   C31 3127   7.278   6.227   6.515 -0.1958 -0.9137 -0.3572
   25DOPE   O32 3128   7.374   6.207   6.588  0.4213  0.1151  0.3233
   25DOPE   C32 3129   7.281   6.252   6.367 -0.3413  0.5639  0.1903
   25DOPE   H2X 3130   7.228   6.165   6.322  0.2631  0.1872  0.1907
   25DOPE   H2Y 3131   7.218   6.342   6.350 -1.4438 -0.2630 -0.2934
   25DOPE   C23 3132   7.032   6.636   6.476 -0.3546  0.2582  0.4805
   25DOPE   H3R 3133   7.042   6.547   6.411 -1.3256 -0.0767  0.7732
   25DOPE   H3S 3134   7.137   6.669   6.487 -0.2419  0.1000 -0.0911
   25DOPE   C24 3135   6.930   6.739   6.421 -0.0628  0.6213 -0.3878
   25DOPE   H4R 3136   6.912   6.820   6.495 -0.6300  0.3262 -0.1985
   25DOPE   H4S 3137   6.831   6.691   6.408  0.2295 -0.0685 -0.0964
   25DOPE   C25 3138   6.974   6.806   6.289  0.2391  0.8437  0.1423
   25DOPE   H5R 3139   7.009   6.719   6.230  2.7252 -0.2509  2.9701
   25DOPE   H5S 3140   7.069   6.862   6.301  0.1608  0.9911  0.0736
   25DOPE   C26 3141   6.864   6.889   6.217 -0.5450 -0.7356  0.9551
   25DOPE   H6R 3142   6.836   6.975   6.282  1.2297  1.5524 -1.0586
   25DOPE   H6S 3143   6.783   6.814   6.207 -1.2091  0.0065  0.6208
   25DOPE   C27 3144   6.905   6.944   6.079  1.0483 -0.3375 -0.2721
   25DOPE   H7R 3145   6.993   7.009   6.097  0.6175  0.6973 -1.6663
   25DOPE   H7S 3146   6.827   7.010   6.034  1.5173  0.1319 -0.4064
   25DOPE   C28 3147   6.924   6.834   5.973  0.5797  0.9067  0.2207
   25DOPE   H8R 3148   6.896   6.888   5.880 -0.7180 -0.5076 -0.2613
   25DOPE   H8S 3149   6.857   6.745   5.977  0.2321  0.9920 -2.0812
   25DOPE   C29 3150   7.067   6.787   5.970 -0.5081  0.8671  0.0899
   25DOPE   H9R 3151   7.098   6.702   6.031 -2.4821 -1.2498 -1.6525
   25DOPE  C210 3152   7.161   6.834   5.882 -0.0357  0.1521 -0.5063
   25DOPE  H10R 3153   7.262   6.791   5.885  0.0182  0.2447 -0.9000
   25DOPE  C211 3154   7.147   6.934   5.772  0.3137  0.7203 -0.0586
   25DOPE  H11R 3155   7.042   6.956   5.741  0.3170  0.1236 -0.5175
   25DOPE  H11S 3156   7.181   6.887   5.677 -0.5764  1.8862 -0.9853
   25DOPE  C212 3157   7.219   7.059   5.780  0.3706 -0.2101 -0.0427
   25DOPE  H12R 3158   7.239   7.080   5.887  0.3093 -2.0202  0.3554
   25DOPE  H12S 3159   7.146   7.134   5.740  1.0749  1.8654  2.3268
   25DOPE  C213 3160   7.360   7.060   5.711  0.7118  0.3175 -0.1348
   25DOPE  H13R 3161   7.400   7.164   5.709  0.1383  0.6033  1.4694
   25DOPE  H13S 3162   7.359   7.024   5.606  0.2792 -0.7223  0.2135
   25DOPE  C214 3163   7.455   6.965   5.788 -0.3563 -0.0814 -0.3981
   25DOPE  H14R 3164   7.429   6.863   5.754 -1.4065  0.1709 -0.3694
   25DOPE  H14S 3165   7.439   6.969   5.898 -0.0516  0.0058 -0.3565
   25DOPE  C215 3166   7.603   6.988   5.756 -1.3192  0.2470 -0.5387
   25DOPE  H15R 3167   7.639   7.093   5.752  0.0351 -0.2282 -1.2038
   25DOPE  H15S 3168   7.619   6.960   5.650  2.8979  1.1843 -0.3275
   25DOPE  C216 3169   7.689   6.892   5.842 -0.1228 -0.7614 -0.0997
   25DOPE  H16R 3170   7.657   6.788   5.822  1.1957 -1.3346  0.6138
   25DOPE  H16S 3171   7.664   6.907   5.949 -2.3028  0.2021 -0.6989
   25DOPE  C217 3172   7.837   6.909   5.810 -0.7395  0.7082 -0.5466
   25DOPE  H17R 3173   7.871   7.006   5.852 -1.0101  0.8595 -0.6735
   25DOPE  H17S 3174   7.835   6.904   5.699  2.3830 -2.7242 -0.6618
   25DOPE  C218 3175   7.924   6.790   5.853 -0.0060 -0.5550 -0.4839
   25DOPE  H18R 3176   7.888   6.692   5.815  0.5605 -0.4984 -1.2121
   25DOPE  H18S 3177   7.930   6.788   5.964 -1.7662 -1.2253 -0.3808
   25DOPE  H18T 3178   8.019   6.792   5.795  0.4012  2.1747  0.1100
   25DOPE   C33 3179   7.428   6.263   6.303  0.6279  0.5244 -0.4313
   25DOPE   H3X 3180   7.406   6.243   6.196  0.4813  1.2307 -0.5447
   25DOPE   H3Y 3181   7.490   6.180   6.340  1.9120  2.3495  1.8062
   25DOPE   C34 3182   7.498   6.400   6.337  0.1117  0.3881  0.3838
   25DOPE   H4X 3183   7.427   6.472   6.292 -0.4827 -0.7048 -0.4976
   25DOPE   H4Y 3184   7.516   6.416   6.445  0.5693 -0.2329  0.4060
   25DOPE   C35 3185   7.632   6.414   6.259  0.1692 -0.1221 -0.2259
   25DOPE   H5X 3186   7.708   6.349   6.306 -0.3303  0.5413  1.5875
   25DOPE   H5Y 3187   7.678   6.514   6.277  1.6273 -1.1228  1.9440
   25DOPE   C36 3188   7.605   6.397   6.106  0.2122  0.7169 -0.1432
   25DOPE   H6X 3189   7.516   6.455   6.074  1.8200  3.0125 -0.7205
   25DOPE   H6Y 3190   7.579   6.292   6.081  0.9025  0.0239  1.8807
   25DOPE   C37 3191   7.716   6.447   6.010 -0.7703  0.4893  0.0818
   25DOPE   H7X 3192   7.747   6.547   6.049 -2.4210 -0.1403  3.3216
   25DOPE   H7Y 3193   7.792   6.366   6.012 -2.7256 -1.4095  1.1637
   25DOPE   C38 3194   7.669   6.452   5.859 -0.3802 -0.7194  0.9256
   25DOPE   H8X 3195   7.634   6.558   5.853 -0.1551 -0.6587  0.6738
   25DOPE   H8Y 3196   7.582   6.383   5.856  0.3520 -1.6442  0.4575
   25DOPE   C39 3197   7.771   6.404   5.760  0.2132  0.2696  1.0199
   25DOPE   H9X 3198   7.835   6.334   5.815 -2.1549 -2.0050  1.0899
   25DOPE  C310 3199   7.792   6.448   5.630 -0.1557  0.1647 -0.4626
   25DOPE  H10X 3200   7.871   6.406   5.566  1.1688 -0.4797  1.5019
   25DOPE  C311 3201   7.714   6.552   5.557  0.2256  0.9120  0.6892
   25DOPE  H11X 3202   7.630   6.498   5.507  1.1171 -0.4977  0.6542
   25DOPE  H11Y 3203   7.691   6.636   5.627  1.4669  1.7727  0.0901
   25DOPE  C312 3204   7.786   6.620   5.435  0.0750  0.0897 -0.1021
   25DOPE  H12X 3205   7.713   6.678   5.376 -1.5537 -0.0912  1.6486
   25DOPE  H12Y 3206   7.821   6.540   5.365  1.3336  0.7440 -0.2518
   25DOPE  C313 3207   7.895   6.721   5.471  0.3620  0.3067  0.3012
   25DOPE  H13X 3208   7.856   6.822   5.494 -1.9104 -0.0553 -1.6327
   25DOPE  H13Y 3209   7.944   6.686   5.565  1.0119 -3.5005 -1.2770
   25DOPE  C314 3210   8.008   6.729   5.373  0.0331  0.5652  0.5557
   25DOPE  H14X 3211   7.977   6.800   5.293 -1.5416  0.4367  1.0127
   25DOPE  H14Y 3212   8.018   6.635   5.313  0.1213  1.0225 -0.1664
   25DOPE  C315 3213   8.145   6.765   5.431 -0.6467 -0.5456 -0.0924
   25DOPE  H15X 3214   8.129   6.869   5.465 -0.1882 -0.7697  0.8486
   25DOPE  H15Y 3215   8.217   6.771   5.347 -0.4815 -0.5450  0.0492
   25DOPE  C316 3216   8.204   6.681   5.546 -0.0482 -0.1051  0.1243
   25DOPE  H16X 3217   8.241   6.582   5.512 -1.1558 -1.5548  2.8492
   25DOPE  H16Y 3218   8.135   6.671   5.633  2.6107  0.8224  2.4716
   25DOPE  C317 3219   8.335   6.741   5.599  0.0323 -0.3277 -0.3380
   25DOPE  H17X 3220   8.405   6.738   5.513  2.0111  0.6838  1.1600
   25DOPE  H17Y 3221   8.328   6.846   5.633  0.8961  0.1617 -1.5877
   25DOPE  C318 3222   8.393   6.660   5.713 -0.5977  0.4899  0.3267
   25DOPE  H18X 3223   8.328   6.669   5.802 -1.2550 -1.4132  0.0853
   25DOPE  H18Y 3224   8.396   6.550   5.695  0.7745  0.0592  2.7166
   25DOPE  H18Z 3225   8.496   6.694   5.735  0.5829 -1.0058 -2.3008
   26DOPE     N 3226   0.477   7.368   6.936  0.2846 -0.0325 -0.5236
   26DOPE   HN1 3227   0.422   7.280   6.941  0.5260 -0.1593 -0.0725
   26DOPE   HN2 3228   0.450   7.426   6.853  0.6216 -1.3777 -1.6120
   26DOPE   HN3 3229   0.577   7.343   6.924  0.6644 -0.4693  2.7973
   26DOPE   C12 3230   0.461   7.441   7.065 -0.3777 -0.0166 -0.4351
   26DOPE  H12A 3231   0.496   7.545   7.052 -2.9192  0.6951 -2.3428
   26DOPE  H12B 3232   0.523   7.402   7.149 -2.0146  0.3832  1.0358
   26DOPE   C11 3233   0.312   7.438   7.111 -0.6835  0.7093 -0.3746
   26DOPE  H11A 3234   0.248   7.448   7.020 -0.3717 -3.4048 -1.2138
   26DOPE  H11B 3235   0.303   7.513   7.192  0.6095 -0.2955  0.7323
   26DOPE     P 3236   0.160   7.252   7.203 -0.1031 -0.1439 -0.0115
   26DOPE   O13 3237   0.097   7.362   7.286 -0.3465  0.2503 -0.4345
   26DOPE   O14 3238   0.177   7.118   7.261  0.0454 -0.4179  0.3289
   26DOPE   O11 3239   0.073   7.237   7.069  0.4790 -0.3281  0.4486
   26DOPE   O12 3240   0.298   7.297   7.148 -0.3012 -0.0049 -0.2878
   26DOPE    C1 3241   0.093   7.130   6.976  0.5024 -0.4304  0.8563
   26DOPE    HA 3242   0.004   7.064   6.974 -0.5840  0.9846 -0.0339
   26DOPE    HB 3243   0.185   7.073   6.999  0.4352 -1.4796 -1.1856
   26DOPE    C2 3244   0.117   7.200   6.836 -0.1266  0.8105  0.6678
   26DOPE    HS 3245   0.211   7.258   6.843  1.8156 -1.8484 -1.2499
   26DOPE   O21 3246  -0.005   7.266   6.792 -0.1079 -0.1001 -0.0722
   26DOPE   C21 3247   0.006   7.398   6.794 -0.1421  0.5844  0.2698
   26DOPE   O22 3248   0.104   7.467   6.820 -0.4426  0.1610  0.2813
   26DOPE   C22 3249  -0.123   7.448   6.738  0.4737 -0.2723  0.6911
   26DOPE   H2R 3250  -0.187   7.464   6.827  1.5555  1.8816  1.1726
   26DOPE   H2S 3251  -0.163   7.371   6.669  2.1468 -0.2028 -0.4318
   26DOPE    C3 3252   0.155   7.109   6.717  0.8094  0.6023  0.9487
   26DOPE    HX 3253   0.078   7.031   6.699  0.1259  1.4531  0.0638
   26DOPE    HY 3254   0.248   7.050   6.733  0.6754 -0.4428 -1.5510
   26DOPE   O31 3255   0.171   7.183   6.601 -0.0008  0.0653 -0.0209
   26DOPE   C31 3256   0.275   7.245   6.570  0.1973 -0.4916 -0.3479
   26DOPE   O32 3257   0.370   7.256   6.648  0.2327  0.2075 -0.7151
   26DOPE   C32 3258   0.260   7.321   6.435 -0.3989  0.0608  0.0633
   26DOPE   H2X 3259   0.226   7.243   6.364  0.8844 -0.2381 -0.2478
   26DOPE   H2Y 3260   0.186   7.404   6.443 -1.9340 -1.0931 -1.5169
   26DOPE   C23 3261  -0.122   7.583   6.668 -0.0054  0.4353 -0.3306
   26DOPE   H3R 3262  -0.070   7.658   6.732 -3.6487  1.3323  1.9191
   26DOPE   H3S 3263  -0.226   7.622   6.666  0.0929  0.6779 -0.8248
   26DOPE   C24 3264  -0.054   7.589   6.527 -0.1721  0.5592 -0.4261
   26DOPE   H4R 3265   0.043   7.541   6.552  0.4922  0.6504 -2.6642
   26DOPE   H4S 3266  -0.058   7.698   6.505 -1.5609  0.6692  0.2620
   26DOPE   C25 3267  -0.124   7.507   6.415  0.1584  0.5564 -0.0260
   26DOPE   H5R 3268  -0.225   7.551   6.400 -0.4736 -0.8643 -0.0911
   26DOPE   H5S 3269  -0.144   7.404   6.450  1.5014  0.9066  1.9026
   26DOPE   C26 3270  -0.045   7.517   6.286 -0.4958  0.0368  0.8120
   26DOPE   H6R 3271   0.054   7.469   6.295 -0.5556 -0.0566  0.9884
   26DOPE   H6S 3272  -0.017   7.623   6.267  0.6495 -0.7363 -2.4110
   26DOPE   C27 3273  -0.122   7.450   6.169  0.1218  0.5883 -1.2340
   26DOPE   H7R 3274  -0.224   7.493   6.170 -1.1493 -2.2764 -1.3462
   26DOPE   H7S 3275  -0.123   7.341   6.188  0.2635  0.9189  1.0105
   26DOPE   C28 3276  -0.052   7.469   6.032 -0.4912  0.2069 -0.3188
   26DOPE   H8R 3277   0.053   7.434   6.032 -0.2606  0.8952 -0.5805
   26DOPE   H8S 3278  -0.045   7.576   6.002  0.4371  0.4415  0.6771
   26DOPE   C29 3279  -0.123   7.394   5.921  0.1297 -1.0079  0.2358
   26DOPE   H9R 3280  -0.152   7.293   5.951 -0.1444 -1.0069 -0.0134
   26DOPE  C210 3281  -0.169   7.445   5.801  0.1561 -0.4195  0.7540
   26DOPE  H10R 3282  -0.231   7.383   5.734  1.4102 -1.0391  0.1218
   26DOPE  C211 3283  -0.162   7.587   5.753  0.4266  0.0605 -0.3508
   26DOPE  H11R 3284  -0.166   7.653   5.843 -1.8843  0.1521 -0.4650
   26DOPE  H11S 3285  -0.250   7.615   5.691  0.6056 -0.0020 -0.6325
   26DOPE  C212 3286  -0.028   7.622   5.678 -0.2011  0.2979 -0.3002
   26DOPE  H12R 3287   0.052   7.608   5.754 -1.2679  2.1243  1.2561
   26DOPE  H12S 3288  -0.038   7.733   5.670  1.3543  0.6294  1.4304
   26DOPE  C213 3289  -0.012   7.537   5.553  0.5650  0.0630 -1.0280
   26DOPE  H13R 3290  -0.100   7.543   5.485 -0.9820  0.4235  0.9304
   26DOPE  H13S 3291   0.002   7.430   5.578 -0.4153  0.2741  0.5442
   26DOPE  C214 3292   0.090   7.588   5.459 -0.1467 -0.0922 -0.3290
   26DOPE  H14R 3293   0.056   7.685   5.417 -0.8476  0.3452  1.2125
   26DOPE  H14S 3294   0.107   7.518   5.374  0.9768 -0.1981 -0.0276
   26DOPE  C215 3295   0.223   7.633   5.530  0.2706  0.8613 -0.3556
   26DOPE  H15R 3296   0.275   7.546   5.574 -2.0252 -0.4632 -0.0786
   26DOPE  H15S 3297   0.190   7.704   5.609 -1.1593 -0.5267  0.3549
   26DOPE  C216 3298   0.317   7.699   5.433 -0.2574 -0.3900 -0.7664
   26DOPE  H16R 3299   0.269   7.786   5.385 -0.3086 -0.5080 -0.9290
   26DOPE  H16S 3300   0.335   7.619   5.358 -0.1084 -0.5003 -0.6142
   26DOPE  C217 3301   0.450   7.738   5.501 -0.0963 -0.4539  0.0305
   26DOPE  H17R 3302   0.481   7.640   5.543 -1.1719 -0.3198  1.2112
   26DOPE  H17S 3303   0.434   7.796   5.595  0.7538 -0.2529  0.0625
   26DOPE  C218 3304   0.572   7.814   5.427 -0.1157  0.2317  0.8378
   26DOPE  H18R 3305   0.625   7.738   5.366  0.5053 -1.2171  3.0679
   26DOPE  H18S 3306   0.642   7.856   5.502  0.4401 -1.7411  1.4871
   26DOPE  H18T 3307   0.535   7.898   5.365  0.6384 -0.7321 -0.9922
   26DOPE   C33 3308   0.398   7.351   6.375  0.0173 -1.0481 -0.3375
   26DOPE   H3X 3309   0.460   7.259   6.372  1.1430 -0.3053 -0.4724
   26DOPE   H3Y 3310   0.442   7.429   6.441 -1.0192 -3.5211  3.6479
   26DOPE   C34 3311   0.391   7.409   6.229 -0.1679 -0.2586 -0.1318
   26DOPE   H4X 3312   0.496   7.397   6.195  0.3120  0.0183  1.1968
   26DOPE   H4Y 3313   0.329   7.336   6.171  0.9099 -0.0251 -1.6093
   26DOPE   C35 3314   0.344   7.551   6.206 -0.3329 -0.6811 -0.4150
   26DOPE   H5X 3315   0.401   7.638   6.247 -0.4807 -1.3282  1.2416
   26DOPE   H5Y 3316   0.246   7.543   6.258 -0.0817  0.8224  0.3744
   26DOPE   C36 3317   0.320   7.597   6.064  0.4848 -0.0876  0.4249
   26DOPE   H6X 3318   0.241   7.674   6.050  0.5021 -0.5195 -2.7484
   26DOPE   H6Y 3319   0.280   7.514   6.002 -0.6670  0.4423  0.4397
   26DOPE   C37 3320   0.439   7.653   5.986 -0.0772  0.7285  0.4606
   26DOPE   H7X 3321   0.413   7.754   5.949 -0.3501 -0.0310 -1.5640
   26DOPE   H7Y 3322   0.521   7.653   6.061 -1.6268  0.2209  2.2602
   26DOPE   C38 3323   0.468   7.561   5.864 -0.1297  0.6446 -0.2857
   26DOPE   H8X 3324   0.551   7.613   5.811 -0.6245 -0.0064 -1.7407
   26DOPE   H8Y 3325   0.379   7.549   5.798 -1.3213 -1.6541  1.6024
   26DOPE   C39 3326   0.514   7.422   5.890  1.1811  0.0164 -0.6935
   26DOPE   H9X 3327   0.548   7.411   5.994  1.2927  2.8355 -0.3603
   26DOPE  C310 3328   0.509   7.315   5.806 -0.4480 -0.1629 -0.0282
   26DOPE  H10X 3329   0.539   7.215   5.840 -0.3498 -0.9378 -2.2372
   26DOPE  C311 3330   0.461   7.315   5.663  0.5718 -0.1188 -0.2203
   26DOPE  H11X 3331   0.355   7.343   5.648  0.9492  1.6779  0.2395
   26DOPE  H11Y 3332   0.513   7.389   5.598  0.3824  0.7132  0.5465
   26DOPE  C312 3333   0.477   7.178   5.584 -0.1770 -0.7094  0.2198
   26DOPE  H12X 3334   0.393   7.114   5.619 -0.0693 -0.2957  1.2620
   26DOPE  H12Y 3335   0.568   7.124   5.617 -2.4345 -3.4007  2.6666
   26DOPE  C313 3336   0.473   7.184   5.431 -0.2889 -0.0314  0.7326
   26DOPE  H13X 3337   0.550   7.254   5.391  0.8758 -0.8910  1.4016
   26DOPE  H13Y 3338   0.480   7.084   5.384  0.6577  0.4941 -0.3114
   26DOPE  C314 3339   0.342   7.246   5.381  0.4340 -0.0675 -0.8563
   26DOPE  H14X 3340   0.355   7.355   5.364  0.9153 -0.2241 -1.5414
   26DOPE  H14Y 3341   0.267   7.222   5.460  2.5879  1.1694  1.7155
   26DOPE  C315 3342   0.287   7.178   5.248 -0.0482  0.5346  0.0148
   26DOPE  H15X 3343   0.188   7.214   5.213 -0.0981  0.8167  0.4338
   26DOPE  H15Y 3344   0.274   7.068   5.254  0.1136  0.2276 -3.4032
   26DOPE  C316 3345   0.383   7.207   5.130 -0.0009 -0.6767 -0.2360
   26DOPE  H16X 3346   0.485   7.177   5.163  0.2358  0.1312 -0.2150
   26DOPE  H16Y 3347   0.390   7.316   5.112  0.5685 -0.5142  0.8499
   26DOPE  C317 3348   0.367   7.118   5.005  0.1151 -0.0981 -0.4498
   26DOPE  H17X 3349   0.275   7.139   4.947 -0.3911 -1.1676 -0.0715
   26DOPE  H17Y 3350   0.453   7.147   4.942 -0.7300  2.8214 -0.3787
   26DOPE  C318 3351   0.378   6.964   5.033 -0.4271 -0.3027  0.1110
   26DOPE  H18X 3352   0.285   6.923   5.078  0.0005  0.2162  1.5494
   26DOPE  H18Y 3353   0.402   6.917   4.936 -0.7737 -1.7988  0.7189
   26DOPE  H18Z 3354   0.458   6.946   5.107 -1.0638  1.5335  1.3387
   27DOPE     N 3355   5.804   0.322   7.938  0.1009 -0.2886 -0.2485
   27DOPE   HN1 3356   5.735   0.354   7.867  0.9529  2.7987  0.1984
   27DOPE   HN2 3357   5.765   0.235   7.980  1.0340 -0.3219  0.5826
   27DOPE   HN3 3358   5.801   0.399   8.008 -0.2991 -0.1294 -0.4353
   27DOPE   C12 3359   5.944   0.312   7.882  0.7183 -0.4347 -0.2174
   27DOPE  H12A 3360   5.947   0.209   7.840 -0.7445 -1.3837  1.7966
   27DOPE  H12B 3361   6.015   0.318   7.967 -3.1213 -0.3328  3.2999
   27DOPE   C11 3362   5.970   0.419   7.773 -0.5733  0.3205  0.3540
   27DOPE  H11A 3363   5.892   0.423   7.694 -0.0465  0.7693 -0.1570
   27DOPE  H11B 3364   6.059   0.396   7.710 -1.4032  2.0068 -1.5754
   27DOPE     P 3365   5.890   0.658   7.829  0.3501 -0.3740  0.4196
   27DOPE   O13 3366   5.948   0.781   7.886 -0.2902 -0.3984  0.0577
   27DOPE   O14 3367   5.761   0.614   7.888  0.0868 -0.5037 -0.3286
   27DOPE   O11 3368   5.880   0.674   7.674  0.2382  0.2417  0.1450
   27DOPE   O12 3369   6.000   0.545   7.841 -0.7443  0.4042 -0.0648
   27DOPE    C1 3370   5.800   0.782   7.614 -0.3903  0.0953 -0.0062
   27DOPE    HA 3371   5.853   0.858   7.553 -0.2769  0.8325  0.9820
   27DOPE    HB 3372   5.733   0.829   7.690 -0.4263  0.2818 -0.1528
   27DOPE    C2 3373   5.707   0.723   7.497  0.1839  0.4031  0.5538
   27DOPE    HS 3374   5.642   0.640   7.531 -2.1769  2.3410  1.0546
   27DOPE   O21 3375   5.794   0.673   7.396 -0.1440 -0.3944  0.0584
   27DOPE   C21 3376   5.741   0.583   7.309 -0.5316 -0.4466  0.0748
   27DOPE   O22 3377   5.641   0.520   7.323 -0.3390  0.3637  0.1624
   27DOPE   C22 3378   5.852   0.557   7.197 -0.2513  0.7427 -0.1057
   27DOPE   H2R 3379   5.919   0.478   7.237 -0.7685  1.6498  2.7344
   27DOPE   H2S 3380   5.913   0.649   7.186  1.1242 -0.4248 -3.7543
   27DOPE    C3 3381   5.605   0.830   7.435 -0.4769  0.4539 -0.4970
   27DOPE    HX 3382   5.657   0.927   7.448  0.1664 -0.0312  0.7642
   27DOPE    HY 3383   5.518   0.834   7.504 -0.6223  0.7146 -0.6988
   27DOPE   O31 3384   5.586   0.808   7.287  0.3875 -0.2057  0.0728
   27DOPE   C31 3385   5.456   0.775   7.263 -0.4069 -0.7455  0.7582
   27DOPE   O32 3386   5.375   0.745   7.343  0.2845 -0.2102 -0.0717
   27DOPE   C32 3387   5.431   0.790   7.119  0.3221 -0.3136  0.2594
   27DOPE   H2X 3388   5.338   0.848   7.099  0.0311 -1.0356 -0.6114
   27DOPE   H2Y 3389   5.501   0.859   7.069  0.5508 -1.5847 -1.2714
   27DOPE   C23 3390   5.791   0.515   7.059  0.1824  0.3636  0.0540
   27DOPE   H3R 3391   5.742   0.596   7.002  3.1061  1.3702 -1.2253
   27DOPE   H3S 3392   5.711   0.439   7.075  0.6565 -0.1144  0.1916
   27DOPE   C24 3393   5.905   0.449   6.973 -0.5510 -0.1556 -0.9333
   27DOPE   H4R 3394   5.950   0.370   7.037  0.3987 -0.6790 -2.2040
   27DOPE   H4S 3395   5.980   0.530   6.961 -0.0708 -0.3964  0.2781
   27DOPE   C25 3396   5.862   0.384   6.847  0.4741  0.0650 -0.9980
   27DOPE   H5R 3397   5.782   0.437   6.791  0.7845  0.2984 -1.2261
   27DOPE   H5S 3398   5.819   0.287   6.876  0.5951  0.5039  0.7337
   27DOPE   C26 3399   5.980   0.365   6.751  0.0558  0.1830  0.2556
   27DOPE   H6R 3400   6.057   0.305   6.803  0.2020 -0.8508 -1.1156
   27DOPE   H6S 3401   6.005   0.464   6.707 -2.0344 -0.2576 -2.1299
   27DOPE   C27 3402   5.959   0.267   6.635  0.9007 -0.2470  0.1669
   27DOPE   H7R 3403   5.874   0.295   6.569 -0.0962 -0.9602  1.0901
   27DOPE   H7S 3404   5.938   0.160   6.657 -0.7834 -0.0934 -0.5520
   27DOPE   C28 3405   6.089   0.258   6.553  0.6025 -0.7133  0.1768
   27DOPE   H8R 3406   6.081   0.169   6.487 -1.4701  0.1366 -0.8100
   27DOPE   H8S 3407   6.162   0.236   6.633  0.0627 -0.3185  0.7828
   27DOPE   C29 3408   6.117   0.378   6.463 -0.2714 -0.3657  0.2151
   27DOPE   H9R 3409   6.172   0.458   6.515 -0.9961  2.2475 -2.6831
   27DOPE  C210 3410   6.078   0.394   6.330 -0.0452 -0.8088  0.2459
   27DOPE  H10R 3411   6.104   0.484   6.272  3.0891 -0.2224  2.2755
   27DOPE  C211 3412   5.990   0.294   6.258 -0.7783  0.5877 -0.0020
   27DOPE  H11R 3413   5.899   0.340   6.215 -1.4418 -1.1632 -0.5459
   27DOPE  H11S 3414   5.950   0.225   6.336  1.1143 -0.1927  0.3576
   27DOPE  C212 3415   6.060   0.211   6.146  0.5710  0.1118  0.2244
   27DOPE  H12R 3416   5.993   0.125   6.123  2.1938 -1.0102 -0.4732
   27DOPE  H12S 3417   6.160   0.175   6.179  0.7442  0.1208 -0.2953
   27DOPE  C213 3418   6.081   0.297   6.014  0.3921  0.2956  0.0769
   27DOPE  H13R 3419   6.134   0.387   6.052 -1.0141  1.1033  0.2050
   27DOPE  H13S 3420   5.983   0.320   5.966  0.1548 -1.5454 -0.3961
   27DOPE  C214 3421   6.182   0.222   5.922 -0.1546  0.2426 -0.0152
   27DOPE  H14R 3422   6.134   0.131   5.879  3.2813 -2.1005  0.7242
   27DOPE  H14S 3423   6.267   0.186   5.983  0.1095  1.8968  0.6586
   27DOPE  C215 3424   6.241   0.301   5.808  0.0765  0.6226 -0.0912
   27DOPE  H15R 3425   6.302   0.383   5.852  0.6706 -0.6460  1.5045
   27DOPE  H15S 3426   6.161   0.349   5.747 -0.5201 -1.3568 -0.9529
   27DOPE  C216 3427   6.338   0.215   5.729 -0.2106  0.3485 -0.7030
   27DOPE  H16R 3428   6.289   0.122   5.692 -0.6978  0.4852 -0.4186
   27DOPE  H16S 3429   6.409   0.177   5.806 -0.7089  2.2953  0.8004
   27DOPE  C217 3430   6.411   0.284   5.614  0.0798 -0.6922  0.2203
   27DOPE  H17R 3431   6.454   0.377   5.658  1.8162 -0.7006 -1.3292
   27DOPE  H17S 3432   6.333   0.307   5.539 -0.3517  0.2975  0.9384
   27DOPE  C218 3433   6.518   0.213   5.546 -0.5259 -0.0424  0.3323
   27DOPE  H18R 3434   6.586   0.167   5.621  0.0608 -2.6640 -1.6267
   27DOPE  H18S 3435   6.582   0.278   5.482 -0.8092 -1.3999 -1.4107
   27DOPE  H18T 3436   6.486   0.128   5.482 -2.0919  1.8598 -1.5668
   27DOPE   C33 3437   5.406   0.663   7.040  0.7057  0.0317  0.4720
   27DOPE   H3X 3438   5.334   0.604   7.100 -0.0362  2.2203  1.8465
   27DOPE   H3Y 3439   5.493   0.594   7.042 -0.8633 -2.1611 -1.4798
   27DOPE   C34 3440   5.361   0.673   6.892  0.5527 -0.7129 -0.7682
   27DOPE   H4X 3441   5.256   0.708   6.896  1.1323  1.0266  1.7542
   27DOPE   H4Y 3442   5.419   0.759   6.852 -0.3347  0.0921 -0.3367
   27DOPE   C35 3443   5.377   0.551   6.800 -0.8482 -0.0659 -0.1173
   27DOPE   H5X 3444   5.303   0.473   6.825  0.7480 -1.8719 -0.7662
   27DOPE   H5Y 3445   5.473   0.495   6.808 -0.1269  0.3411 -3.9141
   27DOPE   C36 3446   5.359   0.597   6.656 -0.7054  0.3169 -0.1719
   27DOPE   H6X 3447   5.440   0.666   6.624  1.0971 -1.3852  0.4892
   27DOPE   H6Y 3448   5.262   0.647   6.638 -0.4182  0.2867 -1.9702
   27DOPE   C37 3449   5.369   0.472   6.571  0.4973  0.2156  0.1362
   27DOPE   H7X 3450   5.475   0.438   6.567  0.4075 -0.0099 -0.3561
   27DOPE   H7Y 3451   5.311   0.382   6.601 -1.3504  0.5584 -2.1615
   27DOPE   C38 3452   5.336   0.483   6.423  0.6340 -0.7204 -0.2600
   27DOPE   H8X 3453   5.376   0.399   6.363  0.3924 -1.6204  0.8005
   27DOPE   H8Y 3454   5.378   0.576   6.379 -0.9428 -0.2538 -0.8651
   27DOPE   C39 3455   5.185   0.494   6.409  0.2838  0.4203 -0.1235
   27DOPE   H9X 3456   5.128   0.402   6.426  2.1234 -0.6416  0.6066
   27DOPE  C310 3457   5.123   0.602   6.353  0.8597 -0.3238  0.2407
   27DOPE  H10X 3458   5.014   0.593   6.347  0.8529 -0.0362 -0.1010
   27DOPE  C311 3459   5.177   0.730   6.297  0.3372 -0.3805 -0.1169
   27DOPE  H11X 3460   5.123   0.808   6.355 -0.8282 -1.2691  0.0341
   27DOPE  H11Y 3461   5.284   0.750   6.318 -0.3734  0.7646  3.0859
   27DOPE  C312 3462   5.147   0.748   6.146  0.0249 -1.3914  0.0506
   27DOPE  H12X 3463   5.038   0.748   6.125 -0.4783  1.3401  2.0023
   27DOPE  H12Y 3464   5.201   0.680   6.078 -0.2622 -0.0941 -1.5464
   27DOPE  C313 3465   5.181   0.883   6.081  0.2525  0.4206  0.4504
   27DOPE  H13X 3466   5.159   0.969   6.148  2.1233  1.4453 -0.1618
   27DOPE  H13Y 3467   5.291   0.874   6.066  0.2612  0.3584  0.5575
   27DOPE  C314 3468   5.117   0.912   5.948 -0.2737 -0.1071  0.2609
   27DOPE  H14X 3469   5.007   0.910   5.961 -0.4396  1.0559 -0.8463
   27DOPE  H14Y 3470   5.143   0.833   5.874 -3.0085 -0.9132  0.0428
   27DOPE  C315 3471   5.146   1.051   5.889 -0.2387  0.0484  0.1505
   27DOPE  H15X 3472   5.245   1.042   5.838  0.2867  0.8256  1.0048
   27DOPE  H15Y 3473   5.174   1.118   5.972 -0.6834 -1.4331  1.5521
   27DOPE  C316 3474   5.037   1.110   5.805  0.0429  0.0118 -0.2431
   27DOPE  H16X 3475   4.937   1.110   5.854  0.2040 -0.5216  0.0965
   27DOPE  H16Y 3476   5.023   1.038   5.722 -3.1733  0.3665 -0.1457
   27DOPE  C317 3477   5.067   1.253   5.754  0.0716  1.2531  0.1986
   27DOPE  H17X 3478   5.176   1.272   5.766  0.8152 -2.3419  0.2209
   27DOPE  H17Y 3479   5.043   1.250   5.646  0.1648  0.1810  0.2004
   27DOPE  C318 3480   4.984   1.354   5.825 -1.0537  0.2030 -0.1439
   27DOPE  H18X 3481   5.043   1.447   5.812  1.7140 -1.5791 -0.9871
   27DOPE  H18Y 3482   4.896   1.361   5.757  0.6439 -1.5744 -2.7215
   27DOPE  H18Z 3483   4.962   1.336   5.932  0.8177  0.0403  0.2379
   28DOPE     N 3484   0.618   5.830   6.993 -0.3026 -0.7893 -0.5664
   28DOPE   HN1 3485   0.632   5.728   6.976  1.8132 -0.7937  0.8484
   28DOPE   HN2 3486   0.707   5.870   7.029  0.0507 -1.6426 -0.4746
   28DOPE   HN3 3487   0.553   5.849   7.071  3.2095  2.3502  1.9663
   28DOPE   C12 3488   0.585   5.918   6.873  0.1826 -0.1857 -0.3471
   28DOPE  H12A 3489   0.483   5.891   6.840  0.8253 -2.2021 -0.8479
   28DOPE  H12B 3490   0.657   5.885   6.795  1.1909  0.6075  0.2103
   28DOPE   C11 3491   0.602   6.066   6.897 -0.1939 -0.1343  0.6437
   28DOPE  H11A 3492   0.598   6.121   6.800  0.5819  0.9840  1.2237
   28DOPE  H11B 3493   0.702   6.089   6.939  0.4239 -2.0069  0.2775
   28DOPE     P 3494   0.515   6.285   7.005  0.8181 -0.3204 -0.3665
   28DOPE   O13 3495   0.654   6.308   7.051  0.5011  0.3492 -0.5564
   28DOPE   O14 3496   0.394   6.333   7.075  0.5807 -0.1154 -0.9626
   28DOPE   O11 3497   0.503   6.350   6.857 -0.1937 -0.2722  0.1973
   28DOPE   O12 3498   0.493   6.133   6.971  0.0829 -0.9592  0.3968
   28DOPE    C1 3499   0.372   6.374   6.798 -0.1419  0.2515 -0.5241
   28DOPE    HA 3500   0.311   6.440   6.863 -1.7358 -2.4215  0.8962
   28DOPE    HB 3501   0.317   6.278   6.784  0.3172 -0.1439  0.2782
   28DOPE    C2 3502   0.377   6.443   6.652 -0.0404  0.2911 -0.4101
   28DOPE    HS 3503   0.277   6.466   6.611 -0.2942  0.4421  0.2791
   28DOPE   O21 3504   0.463   6.373   6.559  0.2421  0.0826 -0.4415
   28DOPE   C21 3505   0.403   6.263   6.517  0.1002 -0.1720 -0.5649
   28DOPE   O22 3506   0.303   6.210   6.554  0.1460 -1.1165  0.1509
   28DOPE   C22 3507   0.490   6.202   6.396 -0.6084  0.3511  0.9512
   28DOPE   H2R 3508   0.587   6.174   6.443  0.0415 -0.5526 -0.8612
   28DOPE   H2S 3509   0.508   6.287   6.328  0.8341 -0.3756  0.3958
   28DOPE    C3 3510   0.434   6.583   6.667 -0.2777 -0.3596 -0.6508
   28DOPE    HX 3511   0.541   6.571   6.697 -0.7808 -2.3667  0.5659
   28DOPE    HY 3512   0.379   6.635   6.749 -0.2990 -1.0575 -0.2087
   28DOPE   O31 3513   0.408   6.654   6.537  0.2592  0.3878  0.1050
   28DOPE   C31 3514   0.512   6.704   6.492 -0.0047 -0.2686  1.0889
   28DOPE   O32 3515   0.616   6.722   6.550  0.1415  0.2525  0.3589
   28DOPE   C32 3516   0.497   6.745   6.344 -0.1955 -0.4990  0.1462
   28DOPE   H2X 3517   0.407   6.705   6.292  0.2483  2.1054 -2.9166
   28DOPE   H2Y 3518   0.482   6.855   6.346 -1.5506 -0.6412 -0.7835
   28DOPE   C23 3519   0.424   6.085   6.312  0.6614 -0.0522 -0.3699
   28DOPE   H3R 3520   0.319   6.120   6.301  1.5120  1.9865 -2.9578
   28DOPE   H3S 3521   0.429   5.987   6.364  0.7770  1.2035  2.1338
   28DOPE   C24 3522   0.482   6.070   6.169  0.0472 -0.0087 -0.1788
   28DOPE   H4R 3523   0.545   5.978   6.172  0.1096 -0.0116 -1.0877
   28DOPE   H4S 3524   0.542   6.159   6.140 -1.9818  0.7475 -2.4821
   28DOPE   C25 3525   0.358   6.065   6.076  0.3314  0.2252  0.1813
   28DOPE   H5R 3526   0.295   6.156   6.088 -0.9758 -0.7335  0.8468
   28DOPE   H5S 3527   0.291   5.985   6.115  1.8558 -0.5803  1.2573
   28DOPE   C26 3528   0.377   6.038   5.925 -0.2611 -0.0785 -0.3569
   28DOPE   H6R 3529   0.445   5.951   5.911 -0.5060 -0.4416  0.6148
   28DOPE   H6S 3530   0.428   6.126   5.880 -0.1912  0.3532  0.5513
   28DOPE   C27 3531   0.240   6.036   5.844 -0.5775 -0.0700 -0.1950
   28DOPE   H7R 3532   0.186   6.133   5.847 -0.7689 -0.1803 -0.0576
   28DOPE   H7S 3533   0.190   5.963   5.910  0.5339  0.7000  1.5728
   28DOPE   C28 3534   0.247   5.970   5.707  0.1488  0.4419  0.3515
   28DOPE   H8R 3535   0.146   5.954   5.663  0.4066  0.6887 -0.3480
   28DOPE   H8S 3536   0.275   5.864   5.727  1.3521  0.4735 -1.0212
   28DOPE   C29 3537   0.347   6.030   5.610 -0.3456  0.1390  0.2280
   28DOPE   H9R 3538   0.452   6.033   5.645 -0.9859  0.2837  2.2401
   28DOPE  C210 3539   0.309   6.092   5.495 -0.3836 -0.4053  0.0091
   28DOPE  H10R 3540   0.382   6.118   5.417  0.2023 -3.6802 -0.7017
   28DOPE  C211 3541   0.165   6.111   5.453  0.1209  0.2002 -0.4182
   28DOPE  H11R 3542   0.154   6.216   5.419 -1.2862  1.1393  2.5744
   28DOPE  H11S 3543   0.094   6.097   5.537 -0.1570 -0.7377 -0.7921
   28DOPE  C212 3544   0.110   6.005   5.351 -0.3222  0.4258 -0.3700
   28DOPE  H12R 3545   0.088   5.910   5.404  0.7068  1.4284  2.0279
   28DOPE  H12S 3546   0.191   5.973   5.281  0.5955  3.9995 -1.1604
   28DOPE  C213 3547  -0.015   6.057   5.283 -0.1039  0.7429 -0.6746
   28DOPE  H13R 3548   0.011   6.158   5.246  0.8644  1.6333  2.2295
   28DOPE  H13S 3549  -0.089   6.081   5.361  2.3023 -0.2746  2.1004
   28DOPE  C214 3550  -0.065   5.968   5.165 -0.1901 -0.1778 -0.3152
   28DOPE  H14R 3551  -0.111   5.873   5.201  1.2652 -0.1290  1.9062
   28DOPE  H14S 3552   0.025   5.932   5.111 -0.9990 -2.0408 -0.4940
   28DOPE  C215 3553  -0.165   6.037   5.072 -0.2683 -0.5457  0.0426
   28DOPE  H15R 3554  -0.120   6.118   5.010  0.7306 -1.0513  0.0985
   28DOPE  H15S 3555  -0.236   6.090   5.138  1.3314  3.5325 -1.1813
   28DOPE  C216 3556  -0.247   5.938   4.991  0.6053  0.0462  0.7145
   28DOPE  H16R 3557  -0.335   5.995   4.953  1.5848  0.7534 -0.5949
   28DOPE  H16S 3558  -0.279   5.848   5.046 -0.4859  0.1790  0.3342
   28DOPE  C217 3559  -0.173   5.902   4.864 -0.8395  0.5577 -0.5266
   28DOPE  H17R 3560  -0.068   5.875   4.885 -0.9558  1.4299  1.4637
   28DOPE  H17S 3561  -0.157   5.999   4.813  2.2257  0.4284  0.0188
   28DOPE  C218 3562  -0.260   5.814   4.775  0.7560 -0.1269  0.3709
   28DOPE  H18R 3563  -0.262   5.707   4.807 -1.7724 -0.6454 -1.2528
   28DOPE  H18S 3564  -0.215   5.808   4.674  0.9334  0.7698  0.3896
   28DOPE  H18T 3565  -0.367   5.843   4.789  1.3508  0.6504  5.1286
   28DOPE   C33 3566   0.615   6.711   6.248  0.0814  0.0845  0.5712
   28DOPE   H3X 3567   0.713   6.707   6.300  0.9871 -0.3312 -1.0850
   28DOPE   H3Y 3568   0.617   6.786   6.167  2.9921  1.3042  1.6613
   28DOPE   C34 3569   0.607   6.569   6.180  0.3689 -0.3936  0.0060
   28DOPE   H4X 3570   0.599   6.484   6.252 -0.8475 -1.5866 -1.4678
   28DOPE   H4Y 3571   0.518   6.571   6.114  1.4410  1.4210 -1.4466
   28DOPE   C35 3572   0.733   6.545   6.092 -0.4837 -0.2057 -0.4332
   28DOPE   H5X 3573   0.830   6.546   6.146  0.3549  0.2885 -1.9077
   28DOPE   H5Y 3574   0.734   6.623   6.014  0.0167  0.4093  0.1775
   28DOPE   C36 3575   0.738   6.411   6.036 -0.3104  0.0926 -0.9806
   28DOPE   H6X 3576   0.707   6.334   6.110  2.6686 -0.4222 -0.1573
   28DOPE   H6Y 3577   0.845   6.389   6.016 -0.3343  0.3335 -1.4061
   28DOPE   C37 3578   0.656   6.396   5.908  0.4224  0.1033  0.2097
   28DOPE   H7X 3579   0.549   6.413   5.934 -0.0959 -0.9025 -1.1493
   28DOPE   H7Y 3580   0.696   6.457   5.825  0.8790 -2.1698 -1.3476
   28DOPE   C38 3581   0.665   6.252   5.842 -0.5163  0.2929  0.3400
   28DOPE   H8X 3582   0.585   6.249   5.765 -0.1819 -1.1754  0.0288
   28DOPE   H8Y 3583   0.643   6.187   5.929  1.6377  0.6648  1.2461
   28DOPE   C39 3584   0.794   6.215   5.772  0.5919 -0.3550 -0.5774
   28DOPE   H9X 3585   0.879   6.205   5.842 -1.4682  0.7981  2.2717
   28DOPE  C310 3586   0.817   6.176   5.645  0.0168 -0.0840  0.1344
   28DOPE  H10X 3587   0.913   6.137   5.608  0.5052 -2.3363  3.3254
   28DOPE  C311 3588   0.712   6.165   5.536  0.2876  0.0429 -0.6554
   28DOPE  H11X 3589   0.728   6.065   5.489 -0.6090 -0.1387 -0.5973
   28DOPE  H11Y 3590   0.612   6.164   5.584  0.6760 -1.9286  0.2249
   28DOPE  C312 3591   0.728   6.267   5.425 -0.7746  0.1771  0.0014
   28DOPE  H12X 3592   0.830   6.247   5.387 -1.6110 -0.9871 -1.7694
   28DOPE  H12Y 3593   0.737   6.372   5.461  0.2591  0.7958 -1.9258
   28DOPE  C313 3594   0.635   6.278   5.301 -0.1048 -0.0781 -0.2236
   28DOPE  H13X 3595   0.527   6.283   5.329 -0.7462  1.1676 -2.6500
   28DOPE  H13Y 3596   0.657   6.372   5.247  0.8747 -0.3901 -0.3863
   28DOPE  C314 3597   0.660   6.159   5.205  0.1893 -0.2067 -0.6381
   28DOPE  H14X 3598   0.617   6.073   5.260 -1.0189 -0.0276 -1.2729
   28DOPE  H14Y 3599   0.769   6.142   5.192  0.2987  0.0145 -0.0515
   28DOPE  C315 3600   0.589   6.175   5.071  0.0532 -0.0923 -0.3661
   28DOPE  H15X 3601   0.608   6.080   5.016 -1.1088 -0.8463  0.4970
   28DOPE  H15Y 3602   0.639   6.262   5.024  2.1984 -0.1696  1.5537
   28DOPE  C316 3603   0.439   6.195   5.076 -0.6851 -0.2434 -0.2844
   28DOPE  H16X 3604   0.413   6.287   5.132  1.0171  0.4669 -0.5714
   28DOPE  H16Y 3605   0.406   6.111   5.140  2.4606 -1.8121 -0.4937
   28DOPE  C317 3606   0.363   6.193   4.943 -0.2033 -0.3647 -0.1735
   28DOPE  H17X 3607   0.401   6.254   4.859  0.4497  0.6083  0.7900
   28DOPE  H17Y 3608   0.364   6.091   4.900  0.3427  0.5039 -2.3474
   28DOPE  C318 3609   0.230   6.240   4.979 -0.2152  0.1527  0.3228
   28DOPE  H18X 3610   0.248   6.344   5.015 -0.3961  0.4457 -0.4106
   28DOPE  H18Y 3611   0.156   6.250   4.896  0.8973  1.9460 -0.5148
   28DOPE  H18Z 3612   0.188   6.187   5.067  1.2090  1.3834  1.7892
   29DOPE     N 3613   1.030   0.579   7.306  0.1090 -0.9271  0.0770
   29DOPE   HN1 3614   0.990   0.674   7.314  0.3655 -0.6288 -1.8490
   29DOPE   HN2 3615   0.994   0.520   7.384 -0.7830  1.1244  1.3088
   29DOPE   HN3 3616   1.132   0.592   7.317 -0.1797  0.3447  1.6442
   29DOPE   C12 3617   0.995   0.516   7.173 -0.0076 -0.4233  0.8115
   29DOPE  H12A 3618   0.941   0.423   7.201  2.0344 -1.8436  0.2639
   29DOPE  H12B 3619   1.085   0.486   7.115 -0.4459  0.0252 -0.1270
   29DOPE   C11 3620   0.891   0.598   7.094  0.4319  0.3185 -0.2446
   29DOPE  H11A 3621   0.874   0.536   7.003  1.2948 -1.4908  0.7790
   29DOPE  H11B 3622   0.935   0.695   7.063 -1.3250  1.2569  0.0870
   29DOPE     P 3623   0.639   0.545   7.161  0.2641  0.2495 -0.1246
   29DOPE   O13 3624   0.543   0.601   7.259 -0.0121 -0.2626  0.5500
   29DOPE   O14 3625   0.674   0.402   7.176  0.2558 -0.0099  0.2710
   29DOPE   O11 3626   0.599   0.566   7.008 -0.0126 -0.2141  0.0092
   29DOPE   O12 3627   0.773   0.625   7.177 -0.3923  0.1616  0.1493
   29DOPE    C1 3628   0.469   0.526   6.952 -0.4035 -0.2166  0.1285
   29DOPE    HA 3629   0.381   0.586   6.983  0.3366  1.5449 -1.0066
   29DOPE    HB 3630   0.458   0.418   6.979 -1.1140  0.1939  1.6046
   29DOPE    C2 3631   0.477   0.525   6.797  0.5127  0.1459 -0.8444
   29DOPE    HS 3632   0.533   0.438   6.757 -0.9986  0.1151 -3.0837
   29DOPE   O21 3633   0.530   0.649   6.758 -0.0335  0.0352 -0.3541
   29DOPE   C21 3634   0.655   0.655   6.721 -0.5744 -0.7999 -0.3636
   29DOPE   O22 3635   0.735   0.568   6.707  0.5965  0.7470 -0.8452
   29DOPE   C22 3636   0.686   0.806   6.700 -0.0157 -0.0702  0.3307
   29DOPE   H2R 3637   0.738   0.836   6.794  1.5622  1.4948 -0.9691
   29DOPE   H2S 3638   0.602   0.879   6.694 -0.2545 -0.1884  1.8685
   29DOPE    C3 3639   0.333   0.508   6.737 -0.0558 -0.0607 -0.0268
   29DOPE    HX 3640   0.264   0.581   6.786  0.3263  1.4280 -1.5984
   29DOPE    HY 3641   0.307   0.404   6.763  1.0519  0.1378  2.1703
   29DOPE   O31 3642   0.333   0.511   6.596 -0.3078  0.2908 -0.4265
   29DOPE   C31 3643   0.208   0.491   6.553  0.0639 -0.2968  0.1249
   29DOPE   O32 3644   0.111   0.475   6.628 -0.2017  0.0757 -0.2184
   29DOPE   C32 3645   0.221   0.459   6.407 -1.2818 -0.1498  0.1008
   29DOPE   H2X 3646   0.285   0.543   6.372 -1.6842  0.8988  1.8124
   29DOPE   H2Y 3647   0.277   0.366   6.381 -5.2241 -2.4203 -1.0226
   29DOPE   C23 3648   0.775   0.832   6.582  0.0737  0.1855  0.4306
   29DOPE   H3R 3649   0.835   0.742   6.558  1.0312  0.8158  0.4134
   29DOPE   H3S 3650   0.843   0.910   6.623 -0.4279 -0.1143  1.8621
   29DOPE   C24 3651   0.696   0.865   6.453  0.3125 -0.3942 -0.5113
   29DOPE   H4R 3652   0.619   0.943   6.468  1.5877  0.5552  1.4803
   29DOPE   H4S 3653   0.659   0.768   6.415 -0.2880 -0.4499  0.2059
   29DOPE   C25 3654   0.792   0.912   6.347  0.0668 -0.0700  0.2417
   29DOPE   H5R 3655   0.863   0.831   6.323  0.0197  0.3188 -1.3357
   29DOPE   H5S 3656   0.849   0.997   6.391  1.7594 -1.0724  0.0596
   29DOPE   C26 3657   0.720   0.959   6.213 -0.5066 -0.2243 -1.6234
   29DOPE   H6R 3658   0.657   1.046   6.240  0.3038  0.4175 -1.7826
   29DOPE   H6S 3659   0.653   0.881   6.168 -1.9757  0.7287 -1.1673
   29DOPE   C27 3660   0.826   0.992   6.111 -0.4557  0.0711 -0.0679
   29DOPE   H7R 3661   0.873   0.892   6.097 -0.8830 -0.0651 -0.5486
   29DOPE   H7S 3662   0.908   1.053   6.153  2.4464 -3.2814 -0.4259
   29DOPE   C28 3663   0.780   1.050   5.974 -0.1848  0.2087  0.0879
   29DOPE   H8R 3664   0.714   0.976   5.924 -1.9664  0.8739  1.3338
   29DOPE   H8S 3665   0.872   1.056   5.912  0.0392  1.6943  0.5142
   29DOPE   C29 3666   0.715   1.186   5.968 -0.5000  0.3874 -0.1959
   29DOPE   H9R 3667   0.762   1.266   6.029 -1.3968 -0.6747  2.0117
   29DOPE  C210 3668   0.604   1.217   5.900  0.5040  0.1826  0.5702
   29DOPE  H10R 3669   0.561   1.318   5.908 -0.6826 -0.3303  0.8566
   29DOPE  C211 3670   0.525   1.127   5.807  0.4898  0.3231 -0.7337
   29DOPE  H11R 3671   0.418   1.149   5.824  0.8432  2.6166 -1.0719
   29DOPE  H11S 3672   0.549   1.022   5.832 -2.3465 -0.4555 -0.9714
   29DOPE  C212 3673   0.549   1.138   5.659  0.3805 -0.5566 -0.1934
   29DOPE  H12R 3674   0.503   1.054   5.602  0.7057 -0.8676 -0.0055
   29DOPE  H12S 3675   0.656   1.128   5.631 -0.0341 -2.9351 -1.2572
   29DOPE  C213 3676   0.494   1.265   5.606  0.5477  0.1515 -0.5115
   29DOPE  H13R 3677   0.519   1.354   5.668 -1.7675  0.2874  0.3620
   29DOPE  H13S 3678   0.383   1.256   5.613  0.5007 -1.5107 -2.5291
   29DOPE  C214 3679   0.536   1.290   5.461  0.1732  0.7707 -0.5667
   29DOPE  H14R 3680   0.508   1.193   5.415  1.2665 -0.5362  1.3686
   29DOPE  H14S 3681   0.645   1.309   5.453  0.4866 -0.2912  0.6815
   29DOPE  C215 3682   0.457   1.406   5.402  0.1545  0.3969 -0.3081
   29DOPE  H15R 3683   0.472   1.494   5.468 -0.8613 -0.4419  1.0976
   29DOPE  H15S 3684   0.353   1.369   5.401 -0.0117  0.7465 -3.0666
   29DOPE  C216 3685   0.503   1.431   5.257  0.1318  1.1128  0.6900
   29DOPE  H16R 3686   0.524   1.334   5.206 -1.9486  1.1230 -0.2709
   29DOPE  H16S 3687   0.601   1.483   5.251  0.4251  0.4875 -0.4064
   29DOPE  C217 3688   0.403   1.513   5.179  0.3163  0.1187  0.1496
   29DOPE  H17R 3689   0.396   1.601   5.247 -1.1991 -0.2505  0.5099
   29DOPE  H17S 3690   0.306   1.460   5.168 -1.3481  2.3645  2.5463
   29DOPE  C218 3691   0.471   1.573   5.055 -0.4559  0.0135  0.2970
   29DOPE  H18R 3692   0.560   1.634   5.081 -0.1215  0.3085 -1.4251
   29DOPE  H18S 3693   0.409   1.655   5.013 -0.2661 -0.5134 -1.0625
   29DOPE  H18T 3694   0.490   1.507   4.969 -1.2898 -2.2323  1.7448
   29DOPE   C33 3695   0.093   0.455   6.331 -0.6943 -0.0116 -0.2669
   29DOPE   H3X 3696   0.025   0.539   6.357 -1.0375 -0.4348  0.2451
   29DOPE   H3Y 3697   0.038   0.362   6.357  1.0895 -0.8213  0.7506
   29DOPE   C34 3698   0.126   0.472   6.185 -0.6715  0.1819 -0.1658
   29DOPE   H4X 3699   0.154   0.578   6.168  0.7946 -0.0184  0.8030
   29DOPE   H4Y 3700   0.211   0.405   6.157 -1.6673 -2.0439  1.7899
   29DOPE   C35 3701   0.005   0.425   6.095 -1.0669 -0.1323 -0.0582
   29DOPE   H5X 3702  -0.076   0.500   6.101 -0.8687  0.1268 -0.5606
   29DOPE   H5Y 3703  -0.020   0.321   6.122 -1.2209 -0.1488 -0.2665
   29DOPE   C36 3704   0.039   0.420   5.945  0.2307  0.1702  0.8346
   29DOPE   H6X 3705  -0.048   0.398   5.879 -0.2778  3.1239  0.3885
   29DOPE   H6Y 3706   0.105   0.331   5.938  0.6661  0.5807 -0.6272
   29DOPE   C37 3707   0.127   0.533   5.888 -0.0336 -0.0202 -0.4655
   29DOPE   H7X 3708   0.064   0.621   5.860  0.8580  1.1039  0.8918
   29DOPE   H7Y 3709   0.204   0.567   5.960  0.7889  0.0597 -1.3513
   29DOPE   C38 3710   0.192   0.494   5.754 -0.2380 -0.3404 -0.4109
   29DOPE   H8X 3711   0.101   0.468   5.695  0.0152  0.8121 -1.3435
   29DOPE   H8Y 3712   0.270   0.417   5.772 -0.0090 -0.0649 -0.2355
   29DOPE   C39 3713   0.259   0.612   5.688  0.3335  0.2491 -0.7393
   29DOPE   H9X 3714   0.316   0.672   5.761  2.1378  0.0044 -1.8934
   29DOPE  C310 3715   0.251   0.666   5.569 -0.1892  0.8241 -0.6047
   29DOPE  H10X 3716   0.306   0.757   5.541  0.8402  0.4408  0.1506
   29DOPE  C311 3717   0.168   0.605   5.460 -0.0336 -0.3477  0.3794
   29DOPE  H11X 3718   0.145   0.499   5.486 -3.0794  0.5137  1.6252
   29DOPE  H11Y 3719   0.068   0.652   5.456 -0.4837 -1.2828  0.2982
   29DOPE  C312 3720   0.241   0.626   5.326 -0.2412 -0.3544 -0.5443
   29DOPE  H12X 3721   0.350   0.611   5.340 -0.3380  0.5130  1.6290
   29DOPE  H12Y 3722   0.238   0.733   5.297  1.3933 -0.4518 -1.1525
   29DOPE  C313 3723   0.179   0.538   5.218 -0.3239 -0.1115 -0.0922
   29DOPE  H13X 3724   0.238   0.563   5.128  0.8357 -1.8094  0.1451
   29DOPE  H13Y 3725   0.182   0.429   5.241 -0.0804 -0.1456 -0.2826
   29DOPE  C314 3726   0.028   0.563   5.189 -0.2622  0.1626 -0.6437
   29DOPE  H14X 3727   0.020   0.674   5.192  0.1456  0.1764  1.2877
   29DOPE  H14Y 3728  -0.035   0.519   5.269 -3.0526 -1.7544 -3.6867
   29DOPE  C315 3729  -0.011   0.504   5.057  0.5386  0.4847  0.3339
   29DOPE  H15X 3730  -0.004   0.394   5.043 -2.2923  0.2936 -0.0641
   29DOPE  H15Y 3731   0.054   0.557   4.984  0.0906  1.1764  0.4267
   29DOPE  C316 3732  -0.156   0.541   5.004  0.1606 -0.1761  0.3209
   29DOPE  H16X 3733  -0.173   0.651   5.008  1.4774  0.0170  1.2509
   29DOPE  H16Y 3734  -0.234   0.484   5.060 -0.2510  0.8203  0.7885
   29DOPE  C317 3735  -0.169   0.507   4.852  0.8800 -0.4882 -0.2668
   29DOPE  H17X 3736  -0.099   0.559   4.783 -2.0789  0.0623 -3.0706
   29DOPE  H17Y 3737  -0.148   0.398   4.853  0.7954 -0.5127 -0.8355
   29DOPE  C318 3738  -0.313   0.508   4.797  0.2587  0.6136  0.6855
   29DOPE  H18X 3739  -0.324   0.495   4.687  0.4270  2.1774  0.4610
   29DOPE  H18Y 3740  -0.359   0.422   4.849 -0.0122  0.9585  1.0275
   29DOPE  H18Z 3741  -0.374   0.599   4.821  0.2541  0.8242 -0.0875
   30DOPE     N 3742   1.460   0.759   6.860 -0.0321 -0.3457 -0.2206
   30DOPE   HN1 3743   1.515   0.847   6.864  1.5165 -1.2533 -0.8022
   30DOPE   HN2 3744   1.530   0.685   6.838  1.7993  1.7909 -2.0997
   30DOPE   HN3 3745   1.392   0.764   6.782  0.2690  1.8005 -0.3985
   30DOPE   C12 3746   1.389   0.716   6.988 -0.7411 -0.4078 -0.7013
   30DOPE  H12A 3747   1.312   0.791   7.016 -0.3597  0.4228 -1.7819
   30DOPE  H12B 3748   1.459   0.722   7.073 -0.7156  0.6135 -0.7811
   30DOPE   C11 3749   1.329   0.576   6.961 -0.5828 -0.0399  0.4464
   30DOPE  H11A 3750   1.265   0.591   6.871  1.0403  1.6797 -0.4915
   30DOPE  H11B 3751   1.256   0.537   7.035 -0.5049  0.1839  0.6397
   30DOPE     P 3752   1.458   0.406   6.801  0.3257  0.2132 -0.0153
   30DOPE   O13 3753   1.325   0.360   6.745 -0.3481  0.3623  0.1916
   30DOPE   O14 3754   1.560   0.301   6.834 -0.2612 -0.7641  0.3513
   30DOPE   O11 3755   1.520   0.510   6.706 -0.1064 -0.1850  0.2549
   30DOPE   O12 3756   1.434   0.484   6.933 -0.3300  0.4773 -0.3013
   30DOPE    C1 3757   1.538   0.475   6.566 -0.2084 -0.3424  0.2286
   30DOPE    HA 3758   1.485   0.385   6.529 -0.9090  0.2947 -0.3828
   30DOPE    HB 3759   1.642   0.444   6.543 -0.5642 -0.4847 -1.3471
   30DOPE    C2 3760   1.511   0.592   6.471  0.0241 -0.0031  0.2391
   30DOPE    HS 3761   1.542   0.688   6.516  0.1666 -0.6931  1.6602
   30DOPE   O21 3762   1.376   0.587   6.442 -0.3515 -0.0330 -0.4440
   30DOPE   C21 3763   1.290   0.646   6.528 -0.0049  0.0433  0.1218
   30DOPE   O22 3764   1.327   0.713   6.623 -0.0447 -0.5211 -0.9822
   30DOPE   C22 3765   1.146   0.600   6.497 -0.3360  0.3196  0.3530
   30DOPE   H2R 3766   1.082   0.690   6.510  1.5352  1.7229  0.2234
   30DOPE   H2S 3767   1.122   0.514   6.564 -2.2463  1.0073  0.6214
   30DOPE    C3 3768   1.584   0.579   6.335  0.5679  0.2678 -0.0678
   30DOPE    HX 3769   1.567   0.472   6.312 -0.2263 -0.0059  1.6505
   30DOPE    HY 3770   1.694   0.578   6.349  0.3698 -0.8510  1.7534
   30DOPE   O31 3771   1.532   0.665   6.228  0.9173  0.0770  0.4814
   30DOPE   C31 3772   1.609   0.761   6.187 -0.0355 -0.6108  0.2146
   30DOPE   O32 3773   1.720   0.786   6.217  0.6973 -0.7001 -0.1219
   30DOPE   C32 3774   1.534   0.848   6.080  0.0147  0.5113 -0.1661
   30DOPE   H2X 3775   1.492   0.775   6.007  2.1163 -0.6031 -0.3491
   30DOPE   H2Y 3776   1.460   0.905   6.139  0.0454  0.0401  0.3382
   30DOPE   C23 3777   1.125   0.554   6.348 -0.3615  0.3062 -0.9164
   30DOPE   H3R 3778   1.020   0.521   6.333 -1.3731  2.5697  0.6484
   30DOPE   H3S 3779   1.195   0.472   6.319 -0.1609  0.2282 -0.2410
   30DOPE   C24 3780   1.156   0.667   6.253 -0.0976  0.2675  0.7402
   30DOPE   H4R 3781   1.265   0.687   6.240  0.0903 -1.4205 -0.6084
   30DOPE   H4S 3782   1.110   0.758   6.296 -1.6699 -1.0157  1.9251
   30DOPE   C25 3783   1.094   0.649   6.107  0.0683  0.1881 -0.7366
   30DOPE   H5R 3784   1.138   0.728   6.042  2.2301  1.4995  2.0902
   30DOPE   H5S 3785   0.984   0.653   6.119  0.2848  0.3377  1.7241
   30DOPE   C26 3786   1.119   0.513   6.045  0.3187  0.2328 -0.5329
   30DOPE   H6R 3787   1.065   0.426   6.088  0.2960  0.6060  0.2104
   30DOPE   H6S 3788   1.226   0.487   6.056  0.3070  0.5954  0.5131
   30DOPE   C27 3789   1.085   0.510   5.896  0.4012  0.1042  0.1854
   30DOPE   H7R 3790   1.170   0.548   5.835  1.4567 -0.1609  1.4481
   30DOPE   H7S 3791   0.994   0.572   5.876 -0.0323 -0.5546  0.0906
   30DOPE   C28 3792   1.050   0.376   5.841  0.0641  0.0756 -0.0861
   30DOPE   H8R 3793   1.125   0.302   5.876 -0.3595  0.1016  0.9127
   30DOPE   H8S 3794   1.052   0.373   5.730  0.4261  1.7097 -0.1437
   30DOPE   C29 3795   0.910   0.335   5.878 -0.2495  0.1022 -0.5133
   30DOPE   H9R 3796   0.856   0.410   5.938 -1.1114  0.3129 -1.5220
   30DOPE  C210 3797   0.849   0.221   5.835 -1.0621  0.2100 -0.5906
   30DOPE  H10R 3798   0.746   0.188   5.858 -0.7663 -0.1698  0.2343
   30DOPE  C211 3799   0.910   0.121   5.749  1.0288  0.0445  0.3223
   30DOPE  H11R 3800   0.907   0.025   5.805  0.0150 -0.1669 -0.0600
   30DOPE  H11S 3801   1.013   0.148   5.721  0.5237 -0.4535 -2.2958
   30DOPE  C212 3802   0.836   0.098   5.619  0.1061  0.1378 -0.2041
   30DOPE  H12R 3803   0.850   0.182   5.547 -0.3008 -1.9030 -2.8161
   30DOPE  H12S 3804   0.726   0.093   5.630 -0.2046  1.0728 -2.4132
   30DOPE  C213 3805   0.885  -0.037   5.567 -0.3249  0.2372 -0.1797
   30DOPE  H13R 3806   0.868  -0.122   5.636  1.9751  1.5464  2.1782
   30DOPE  H13S 3807   0.995  -0.024   5.573 -0.3206 -0.4819  2.5421
   30DOPE  C214 3808   0.833  -0.066   5.429  0.4159  0.1829 -0.2447
   30DOPE  H14R 3809   0.858   0.024   5.368 -0.1828  0.8305  0.4466
   30DOPE  H14S 3810   0.723  -0.078   5.430  0.4111  0.0527 -1.3552
   30DOPE  C215 3811   0.905  -0.187   5.371  0.2226  0.5249 -0.3982
   30DOPE  H15R 3812   0.922  -0.259   5.454 -2.6688 -0.1460 -0.2778
   30DOPE  H15S 3813   1.002  -0.158   5.328  1.2688 -2.5673 -0.3645
   30DOPE  C216 3814   0.836  -0.261   5.257  0.2952  0.4878 -0.1698
   30DOPE  H16R 3815   0.845  -0.194   5.168 -0.5495 -1.5015 -1.8366
   30DOPE  H16S 3816   0.727  -0.266   5.280  0.3937 -0.9457  0.0551
   30DOPE  C217 3817   0.893  -0.404   5.232  0.4185  0.1358 -0.2122
   30DOPE  H17R 3818   0.909  -0.456   5.329  3.3900 -1.0758 -1.2581
   30DOPE  H17S 3819   0.993  -0.399   5.184  0.7582 -0.0865  0.4532
   30DOPE  C218 3820   0.796  -0.490   5.142 -0.0230  0.2413 -0.3015
   30DOPE  H18R 3821   0.712  -0.519   5.208  0.3555 -0.2981 -0.0457
   30DOPE  H18S 3822   0.855  -0.582   5.123 -2.3417 -1.1681 -1.0995
   30DOPE  H18T 3823   0.766  -0.440   5.048 -1.1129 -1.4420 -0.8983
   30DOPE   C33 3824   1.616   0.958   6.022  0.4453 -0.1287  0.2507
   30DOPE   H3X 3825   1.696   0.993   6.090  1.0943 -0.1463 -0.4933
   30DOPE   H3Y 3826   1.560   1.054   6.017 -0.1557 -0.5338 -1.5377
   30DOPE   C34 3827   1.670   0.931   5.884 -0.1182  0.3894  0.6242
   30DOPE   H4X 3828   1.750   0.855   5.894 -0.4022  0.1471  1.0566
   30DOPE   H4Y 3829   1.601   0.884   5.811  0.5544  0.3689 -0.0086
   30DOPE   C35 3830   1.750   1.043   5.817 -0.4963 -0.8000  0.1043
   30DOPE   H5X 3831   1.844   1.058   5.875 -1.1634  1.4141  0.7130
   30DOPE   H5Y 3832   1.699   1.140   5.802  0.3621  0.1280  2.6135
   30DOPE   C36 3833   1.786   0.996   5.673 -0.4198  0.4171  0.0145
   30DOPE   H6X 3834   1.691   1.012   5.617 -0.0870  0.1149 -0.6543
   30DOPE   H6Y 3835   1.816   0.890   5.664  0.6741  0.6712  0.5324
   30DOPE   C37 3836   1.904   1.068   5.605 -0.1503  0.5269 -0.3202
   30DOPE   H7X 3837   1.877   1.176   5.603  0.5865  0.7497 -3.1395
   30DOPE   H7Y 3838   1.998   1.072   5.665 -0.7614  1.5601  0.6210
   30DOPE   C38 3839   1.933   1.031   5.459  0.0841  0.5155 -0.1093
   30DOPE   H8X 3840   1.973   0.927   5.454 -0.0613  0.2924  2.1590
   30DOPE   H8Y 3841   2.001   1.097   5.402 -0.0433  0.6560 -0.0991
   30DOPE   C39 3842   1.806   1.046   5.383 -0.7674  0.4028  0.0433
   30DOPE   H9X 3843   1.764   1.148   5.384  0.6777  1.0364 -1.2113
   30DOPE  C310 3844   1.758   0.951   5.295  0.1253  0.0355 -0.0760
   30DOPE  H10X 3845   1.676   0.975   5.226 -2.1521 -4.2315  0.8417
   30DOPE  C311 3846   1.814   0.811   5.267  1.1296 -1.0886  0.4990
   30DOPE  H11X 3847   1.925   0.815   5.274  1.0177  0.7569  1.8454
   30DOPE  H11Y 3848   1.760   0.749   5.342 -1.2659  0.6386  0.3230
   30DOPE  C312 3849   1.780   0.766   5.127 -0.0664  0.5901  0.2782
   30DOPE  H12X 3850   1.671   0.749   5.115 -0.2068  0.0510  2.0093
   30DOPE  H12Y 3851   1.828   0.668   5.110 -1.9784 -0.1463 -1.3233
   30DOPE  C313 3852   1.832   0.863   5.017  0.1765  0.4388 -0.9780
   30DOPE  H13X 3853   1.778   0.959   5.027 -0.5204 -0.1319  1.4848
   30DOPE  H13Y 3854   1.936   0.877   5.055  0.4617 -3.5792  0.2012
   30DOPE  C314 3855   1.824   0.785   4.881  0.4736 -0.1319  0.0037
   30DOPE  H14X 3856   1.721   0.751   4.860 -0.5665  1.6576  1.9117
   30DOPE  H14Y 3857   1.888   0.694   4.883  1.0289  0.1302 -2.1804
   30DOPE  C315 3858   1.893   0.859   4.767 -0.1722 -0.0149  0.8887
   30DOPE  H15X 3859   2.002   0.852   4.790  0.0396  1.3536  0.4014
   30DOPE  H15Y 3860   1.863   0.966   4.760  1.7684  0.6280  1.4407
   30DOPE  C316 3861   1.865   0.797   4.629  0.3290 -0.3373  0.1233
   30DOPE  H16X 3862   1.867   0.686   4.632  2.1694 -0.4102 -1.6208
   30DOPE  H16Y 3863   1.938   0.816   4.548 -1.3423  0.2063 -1.3224
   30DOPE  C317 3864   1.727   0.852   4.579  0.4449  0.2072  0.0222
   30DOPE  H17X 3865   1.645   0.823   4.649  0.6466 -0.8257 -0.1441
   30DOPE  H17Y 3866   1.739   0.962   4.569 -0.0206  0.1442 -1.5973
   30DOPE  C318 3867   1.696   0.768   4.459 -0.2247  0.2770  0.7496
   30DOPE  H18X 3868   1.681   0.659   4.474  2.4486 -0.2804 -0.1085
   30DOPE  H18Y 3869   1.612   0.811   4.399  1.4688  0.5524 -1.5763
   30DOPE  H18Z 3870   1.780   0.770   4.386 -3.6415  2.3654 -3.6279
   31DOPE     N 3871   1.340   3.605   2.503 -0.4804 -0.0651  0.6292
   31DOPE   HN1 3872   1.353   3.502   2.497 -0.4266 -0.0712  0.8304
   31DOPE   HN2 3873   1.436   3.644   2.495  0.2638 -1.9657 -0.3635
   31DOPE   HN3 3874   1.294   3.626   2.594  2.4400 -0.1859  2.2598
   31DOPE   C12 3875   1.247   3.663   2.397 -0.1584  0.2703  0.5686
   31DOPE  H12A 3876   1.146   3.661   2.443  0.0972  1.3996  1.2183
   31DOPE  H12B 3877   1.263   3.603   2.305 -2.6880  1.4445 -0.7265
   31DOPE   C11 3878   1.283   3.812   2.375 -0.1094  0.2353  0.7589
   31DOPE  H11A 3879   1.198   3.844   2.311  0.4792 -0.3449 -0.3296
   31DOPE  H11B 3880   1.373   3.830   2.312 -0.1873 -1.7459  0.0157
   31DOPE     P 3881   1.282   4.037   2.500  0.0233  0.1285 -0.0635
   31DOPE   O13 3882   1.184   4.094   2.406  0.1697 -0.4970  0.6045
   31DOPE   O14 3883   1.424   4.085   2.486  0.3952 -0.3002 -0.0008
   31DOPE   O11 3884   1.237   4.077   2.647 -0.0992 -0.1796 -0.2671
   31DOPE   O12 3885   1.281   3.884   2.497 -0.0639 -0.3336 -0.4336
   31DOPE    C1 3886   1.100   4.042   2.683 -0.3006 -0.2607 -0.2899
   31DOPE    HA 3887   1.032   4.014   2.600 -2.8524 -0.2077  1.6417
   31DOPE    HB 3888   1.054   4.137   2.719 -0.3381 -0.0453 -0.9046
   31DOPE    C2 3889   1.101   3.939   2.803  0.1087  0.5663 -0.1572
   31DOPE    HS 3890   1.020   3.951   2.878 -1.0129  0.0871 -1.2580
   31DOPE   O21 3891   1.222   3.931   2.874 -0.3902  0.4823  0.5130
   31DOPE   C21 3892   1.249   4.041   2.953 -0.1058 -0.4960 -0.2621
   31DOPE   O22 3893   1.173   4.132   2.980  0.0325 -0.0885  0.0283
   31DOPE   C22 3894   1.393   4.038   3.007  0.4246  0.5957 -0.1633
   31DOPE   H2R 3895   1.460   4.065   2.923  0.6644  3.4635  0.8430
   31DOPE   H2S 3896   1.407   3.937   3.052  1.7256  1.4992  1.5810
   31DOPE    C3 3897   1.061   3.793   2.750  0.3272 -0.5747  0.9159
   31DOPE    HX 3898   1.118   3.769   2.658 -3.5075 -1.7975 -1.4021
   31DOPE    HY 3899   0.958   3.815   2.714  0.2964  1.6425  2.2039
   31DOPE   O31 3900   1.066   3.695   2.861 -0.1649 -0.6919  0.5177
   31DOPE   C31 3901   1.165   3.609   2.854 -0.5026 -0.1754  0.4899
   31DOPE   O32 3902   1.250   3.602   2.765  0.7649  0.1082  0.6773
   31DOPE   C32 3903   1.159   3.521   2.978  0.2302 -0.6182 -0.0341
   31DOPE   H2X 3904   1.070   3.455   2.966  0.5583 -1.1560  0.4687
   31DOPE   H2Y 3905   1.249   3.457   2.974 -0.2886 -1.3195 -0.9725
   31DOPE   C23 3906   1.411   4.135   3.125  1.1178  0.3404 -0.8976
   31DOPE   H3R 3907   1.362   4.234   3.114  0.9071  0.3506  0.0861
   31DOPE   H3S 3908   1.519   4.153   3.146  0.7034  1.6352  0.2890
   31DOPE   C24 3909   1.344   4.084   3.256 -0.3851 -0.2312  0.3942
   31DOPE   H4R 3910   1.360   3.977   3.280 -2.8613 -0.8736 -0.5141
   31DOPE   H4S 3911   1.233   4.084   3.249 -0.3249 -1.8541 -0.9861
   31DOPE   C25 3912   1.368   4.161   3.387 -0.3737  0.0798  0.8139
   31DOPE   H5R 3913   1.324   4.263   3.387 -2.0556 -0.6004 -0.0753
   31DOPE   H5S 3914   1.479   4.166   3.383 -0.3563 -0.5042  0.3042
   31DOPE   C26 3915   1.325   4.075   3.507  0.0821  0.1700  0.1045
   31DOPE   H6R 3916   1.391   3.986   3.498  0.3331  0.2315  1.2458
   31DOPE   H6S 3917   1.223   4.032   3.495 -0.2923  0.4275  2.0564
   31DOPE   C27 3918   1.344   4.136   3.643  0.2773  0.0001 -0.1242
   31DOPE   H7R 3919   1.430   4.206   3.632 -0.0945  0.6147  0.7770
   31DOPE   H7S 3920   1.373   4.062   3.719  2.0527  0.9205  0.1317
   31DOPE   C28 3921   1.233   4.230   3.695  0.1012  0.2816 -0.4054
   31DOPE   H8R 3922   1.164   4.277   3.622 -0.9987  1.8386  1.5354
   31DOPE   H8S 3923   1.277   4.316   3.749 -1.7310 -0.1242  1.9172
   31DOPE   C29 3924   1.149   4.135   3.784 -0.1546  0.1368 -0.2213
   31DOPE   H9R 3925   1.081   4.071   3.726 -0.4509  0.7683 -0.5777
   31DOPE  C210 3926   1.162   4.108   3.919  0.1471 -0.7610  0.0221
   31DOPE  H10R 3927   1.085   4.050   3.973 -0.7912  0.8466  0.4731
   31DOPE  C211 3928   1.266   4.167   4.017 -0.1681 -0.0204  1.1837
   31DOPE  H11R 3929   1.321   4.249   3.966 -1.1467 -0.6063 -0.9289
   31DOPE  H11S 3930   1.332   4.083   4.046 -1.1320 -0.1420  3.2650
   31DOPE  C212 3931   1.193   4.223   4.140 -1.3922  0.3327 -0.0719
   31DOPE  H12R 3932   1.130   4.145   4.189 -0.9318 -1.9102 -2.7898
   31DOPE  H12S 3933   1.121   4.305   4.119 -0.1883  1.6729  0.8826
   31DOPE  C213 3934   1.292   4.265   4.250 -0.5493  0.6608 -0.0616
   31DOPE  H13R 3935   1.360   4.345   4.213  0.5304 -0.2803 -0.1486
   31DOPE  H13S 3936   1.353   4.175   4.270 -3.1562 -1.5404 -1.3919
   31DOPE  C214 3937   1.237   4.304   4.385 -0.1058  0.3170  0.6150
   31DOPE  H14R 3938   1.201   4.215   4.440 -2.3262  0.9731  0.3400
   31DOPE  H14S 3939   1.152   4.371   4.359  0.1924 -0.0234 -1.3487
   31DOPE  C215 3940   1.331   4.390   4.471  0.3300 -0.3840  0.0909
   31DOPE  H15R 3941   1.362   4.470   4.401  2.7394 -0.1496  1.3541
   31DOPE  H15S 3942   1.416   4.331   4.511 -0.2948 -0.2232  1.7633
   31DOPE  C216 3943   1.277   4.470   4.593  0.6196  1.0426  0.2119
   31DOPE  H16R 3944   1.226   4.406   4.669  1.0833  0.1204 -0.2410
   31DOPE  H16S 3945   1.197   4.532   4.547 -0.6787 -0.5331  0.2502
   31DOPE  C217 3946   1.368   4.570   4.666  0.1119 -0.2139  0.1261
   31DOPE  H17R 3947   1.315   4.642   4.733  3.4288  2.9972 -0.3591
   31DOPE  H17S 3948   1.417   4.634   4.590  1.1364 -1.9223 -0.7022
   31DOPE  C218 3949   1.483   4.497   4.742 -0.3766  0.0251  0.3438
   31DOPE  H18R 3950   1.476   4.388   4.724  0.3056 -0.1258  0.9552
   31DOPE  H18S 3951   1.491   4.520   4.850 -0.2785 -0.6057  0.4700
   31DOPE  H18T 3952   1.576   4.527   4.689 -0.9633 -0.2885 -0.9068
   31DOPE   C33 3953   1.161   3.605   3.110 -0.2252 -0.4350  0.9216
   31DOPE   H3X 3954   1.075   3.676   3.118  1.7714  2.0693  1.4701
   31DOPE   H3Y 3955   1.254   3.666   3.115 -0.7719  0.4262  0.9140
   31DOPE   C34 3956   1.172   3.511   3.235  0.1193  0.2483  0.0896
   31DOPE   H4X 3957   1.070   3.473   3.257  0.5424 -1.8809 -1.3931
   31DOPE   H4Y 3958   1.222   3.413   3.218 -2.5746 -1.1620 -0.1864
   31DOPE   C35 3959   1.207   3.587   3.356  0.2482  0.2984  0.0216
   31DOPE   H5X 3960   1.134   3.667   3.377  1.1501  0.3151  3.7483
   31DOPE   H5Y 3961   1.303   3.641   3.344  0.1628  0.1931 -1.2738
   31DOPE   C36 3962   1.213   3.508   3.485 -0.2137 -0.1975  0.4351
   31DOPE   H6X 3963   1.311   3.457   3.480 -0.2303 -0.2151  0.2969
   31DOPE   H6Y 3964   1.125   3.440   3.493  1.0429 -2.7251 -3.7256
   31DOPE   C37 3965   1.222   3.601   3.605 -0.1523  0.6504 -0.5756
   31DOPE   H7X 3966   1.310   3.669   3.593  0.4897 -0.4149 -2.3696
   31DOPE   H7Y 3967   1.145   3.680   3.595  0.4078  1.2899  0.0916
   31DOPE   C38 3968   1.220   3.525   3.740 -0.6779 -0.2381 -0.2981
   31DOPE   H8X 3969   1.301   3.449   3.731 -0.5222 -0.1161  0.0496
   31DOPE   H8Y 3970   1.127   3.465   3.741  1.3658 -3.6441  0.3800
   31DOPE   C39 3971   1.240   3.623   3.856 -0.1419 -0.5368 -0.6721
   31DOPE   H9X 3972   1.304   3.709   3.829 -2.5075  1.1719 -1.0939
   31DOPE  C310 3973   1.187   3.610   3.985 -0.3258 -0.0298  0.2546
   31DOPE  H10X 3974   1.202   3.688   4.061  1.0032 -0.6833  0.6868
   31DOPE  C311 3975   1.103   3.497   4.028 -0.5561 -0.1393  0.6100
   31DOPE  H11X 3976   1.092   3.417   3.951 -1.0953  0.7508 -0.2699
   31DOPE  H11Y 3977   1.130   3.454   4.127  0.0134  0.0613  0.5486
   31DOPE  C312 3978   0.964   3.548   4.037  0.4357 -0.0530  0.1074
   31DOPE  H12X 3979   0.938   3.614   3.952  1.5109 -0.8377 -0.8715
   31DOPE  H12Y 3980   0.946   3.598   4.134 -1.2724 -0.2752 -0.0550
   31DOPE  C313 3981   0.866   3.425   4.045 -0.4041 -0.1855  0.1647
   31DOPE  H13X 3982   0.872   3.357   3.957 -0.7383 -1.5187  1.1551
   31DOPE  H13Y 3983   0.905   3.370   4.133  0.8622  2.0168  1.0597
   31DOPE  C314 3984   0.723   3.470   4.074 -0.1253  0.7027 -0.0431
   31DOPE  H14X 3985   0.658   3.380   4.068  0.6654  0.0761  0.5050
   31DOPE  H14Y 3986   0.674   3.544   4.007 -0.1504  1.1960  0.5065
   31DOPE  C315 3987   0.693   3.532   4.213 -0.3500 -0.5561  0.2212
   31DOPE  H15X 3988   0.763   3.618   4.225  0.6469 -1.1967 -0.8147
   31DOPE  H15Y 3989   0.713   3.455   4.291 -0.3958 -1.4772 -0.6576
   31DOPE  C316 3990   0.550   3.585   4.233  0.7526  0.1478 -0.2676
   31DOPE  H16X 3991   0.532   3.635   4.136  2.9835  0.0975 -0.7626
   31DOPE  H16Y 3992   0.535   3.651   4.321 -1.7574 -1.5921  0.7365
   31DOPE  C317 3993   0.445   3.474   4.247 -0.1548  0.1272 -0.4362
   31DOPE  H17X 3994   0.444   3.419   4.150  1.0874 -0.5794 -0.0681
   31DOPE  H17Y 3995   0.469   3.400   4.326  0.9868  0.7086 -0.2201
   31DOPE  C318 3996   0.309   3.528   4.279 -0.1434  0.5563  0.1336
   31DOPE  H18X 3997   0.236   3.445   4.273  0.4336  0.0573 -0.0775
   31DOPE  H18Y 3998   0.310   3.575   4.380  1.4016  1.0444 -0.0815
   31DOPE  H18Z 3999   0.278   3.612   4.213  3.9718  2.1159 -0.1199
   32DOPE     N 4000   2.968   3.767   2.774  0.1160 -0.6208 -0.1919
   32DOPE   HN1 4001   2.904   3.698   2.818  0.0458 -0.5583 -0.1957
   32DOPE   HN2 4002   3.058   3.715   2.781  0.4767  0.0429  0.2218
   32DOPE   HN3 4003   2.974   3.855   2.829  2.4790 -1.4071  0.9289
   32DOPE   C12 4004   2.924   3.789   2.639  0.7219  1.3236 -0.8510
   32DOPE  H12A 4005   2.962   3.878   2.585 -0.1333  1.3302 -1.4667
   32DOPE  H12B 4006   2.813   3.801   2.640  0.3823 -1.2166 -0.1177
   32DOPE   C11 4007   2.940   3.664   2.539 -0.1710  0.1069 -1.0127
   32DOPE  H11A 4008   3.047   3.634   2.538  0.3897  1.9910 -1.3897
   32DOPE  H11B 4009   2.920   3.704   2.437 -1.1611  2.1653 -0.0597
   32DOPE     P 4010   2.862   3.421   2.496 -0.0351 -0.2868 -0.2002
   32DOPE   O13 4011   2.823   3.453   2.354 -0.5334 -0.1977 -0.3818
   32DOPE   O14 4012   2.785   3.321   2.568  0.5598  0.1249 -0.4700
   32DOPE   O11 4013   3.012   3.377   2.494  0.5177  0.6348 -0.2361
   32DOPE   O12 4014   2.858   3.555   2.582 -0.1021  0.4451  0.5626
   32DOPE    C1 4015   3.063   3.271   2.577 -0.4784  0.0232 -0.2141
   32DOPE    HA 4016   3.144   3.219   2.522 -0.2038 -0.2489  0.4306
   32DOPE    HB 4017   2.986   3.191   2.582 -1.6189  0.9587 -1.8536
   32DOPE    C2 4018   3.121   3.320   2.716 -0.4273  0.0972 -0.7761
   32DOPE    HS 4019   3.168   3.230   2.761 -0.7667 -0.3246 -1.2529
   32DOPE   O21 4020   3.023   3.387   2.799 -0.4270  0.3897  0.1104
   32DOPE   C21 4021   2.961   3.302   2.892 -0.3953  0.4513 -0.3793
   32DOPE   O22 4022   3.003   3.191   2.924 -0.1114 -0.0173  0.7480
   32DOPE   C22 4023   2.844   3.376   2.951  0.7236 -0.0575 -0.1782
   32DOPE   H2R 4024   2.756   3.389   2.884  0.3750  0.6665  0.4028
   32DOPE   H2S 4025   2.881   3.478   2.972  1.1467 -0.1885 -0.2929
   32DOPE    C3 4026   3.231   3.428   2.696 -0.1216  0.2378 -0.2695
   32DOPE    HX 4027   3.176   3.517   2.658  1.7891  1.3035 -0.6329
   32DOPE    HY 4028   3.303   3.395   2.618 -0.1636  1.0193 -0.6517
   32DOPE   O31 4029   3.303   3.447   2.819 -0.1765  1.0283 -0.1497
   32DOPE   C31 4030   3.266   3.539   2.896  0.9101 -0.1811  0.0725
   32DOPE   O32 4031   3.174   3.620   2.877  0.0502 -0.0456 -0.2894
   32DOPE   C32 4032   3.347   3.527   3.031 -0.6981 -0.2579  0.2247
   32DOPE   H2X 4033   3.448   3.496   2.994 -0.5852  0.6712 -0.2714
   32DOPE   H2Y 4034   3.352   3.629   3.074 -2.9612  0.8307 -1.8555
   32DOPE   C23 4035   2.790   3.314   3.084  0.2585 -0.3135 -0.0860
   32DOPE   H3R 4036   2.868   3.308   3.163 -0.1103 -0.5326  0.2643
   32DOPE   H3S 4037   2.753   3.212   3.059  1.1472 -0.3305 -1.4256
   32DOPE   C24 4038   2.670   3.386   3.134  0.0207  0.2039 -0.4043
   32DOPE   H4R 4039   2.593   3.357   3.060  1.0557 -3.8647 -0.1299
   32DOPE   H4S 4040   2.672   3.497   3.127 -2.9937  0.3873  0.0995
   32DOPE   C25 4041   2.626   3.339   3.272  1.2700 -0.2410  0.3655
   32DOPE   H5R 4042   2.636   3.228   3.280  1.1731 -0.6523 -3.4508
   32DOPE   H5S 4043   2.519   3.368   3.279  1.4183  0.2728  0.5444
   32DOPE   C26 4044   2.708   3.391   3.387  0.0582  0.3113 -0.3496
   32DOPE   H6R 4045   2.725   3.501   3.383  0.3124  0.3238  0.6791
   32DOPE   H6S 4046   2.808   3.344   3.378  0.4361  1.2569 -1.2986
   32DOPE   C27 4047   2.659   3.347   3.528 -0.0552 -0.1799  0.8351
   32DOPE   H7R 4048   2.747   3.345   3.597  0.5755  0.7769  0.0866
   32DOPE   H7S 4049   2.622   3.243   3.522 -0.1960 -0.2476  2.4466
   32DOPE   C28 4050   2.560   3.436   3.593  0.3125  0.2307 -0.3270
   32DOPE   H8R 4051   2.471   3.452   3.528  0.6310 -0.8438 -1.0571
   32DOPE   H8S 4052   2.597   3.538   3.618  2.0370 -0.1482 -1.1491
   32DOPE   C29 4053   2.522   3.368   3.716  0.6379 -0.7564  0.0917
   32DOPE   H9R 4054   2.517   3.259   3.704  0.4660 -1.0384  2.2984
   32DOPE  C210 4055   2.492   3.420   3.840  0.9283  0.7325  0.2395
   32DOPE  H10R 4056   2.485   3.350   3.924  1.2334  0.4481  0.0319
   32DOPE  C211 4057   2.490   3.565   3.873 -0.0605  0.0099 -0.6546
   32DOPE  H11R 4058   2.388   3.598   3.900  1.1003  2.4668  1.1430
   32DOPE  H11S 4059   2.531   3.632   3.794  0.9017  1.9661  1.4017
   32DOPE  C212 4060   2.585   3.598   3.989 -0.4015  0.0282 -0.3391
   32DOPE  H12R 4061   2.689   3.593   3.952 -0.1242  1.4108  0.1890
   32DOPE  H12S 4062   2.580   3.539   4.082  0.5432 -0.1347 -0.3890
   32DOPE  C213 4063   2.560   3.743   4.037 -0.6325  0.0707  0.2958
   32DOPE  H13R 4064   2.577   3.814   3.954 -2.4355 -2.3371 -2.3025
   32DOPE  H13S 4065   2.636   3.758   4.117 -0.6879  2.3222 -0.0148
   32DOPE  C214 4066   2.420   3.780   4.103 -0.5000  0.1432 -0.3814
   32DOPE  H14R 4067   2.340   3.771   4.027 -0.2878 -1.1970 -0.4644
   32DOPE  H14S 4068   2.415   3.886   4.138  1.3214  0.0843  0.1462
   32DOPE  C215 4069   2.381   3.683   4.217  0.3566  0.0875 -0.5031
   32DOPE  H15R 4070   2.381   3.584   4.168  1.9601  0.9543 -2.3923
   32DOPE  H15S 4071   2.284   3.706   4.267 -0.6207 -3.2535 -0.6290
   32DOPE  C216 4072   2.486   3.667   4.336 -0.1075 -0.0285  0.2789
   32DOPE  H16R 4073   2.589   3.642   4.302  1.3400  1.5931  3.1305
   32DOPE  H16S 4074   2.451   3.572   4.382  0.9531 -0.8362 -0.5492
   32DOPE  C217 4075   2.478   3.783   4.433 -0.4025  0.3035 -0.3298
   32DOPE  H17R 4076   2.375   3.773   4.472 -1.0909 -2.9158 -2.5926
   32DOPE  H17S 4077   2.491   3.878   4.376  1.9352  1.1354  1.4446
   32DOPE  C218 4078   2.580   3.776   4.553  0.7775 -0.1521  0.0126
   32DOPE  H18R 4079   2.551   3.846   4.635  0.0826 -1.1905  0.6825
   32DOPE  H18S 4080   2.682   3.810   4.525  1.3002  0.9417  2.8740
   32DOPE  H18T 4081   2.572   3.671   4.590  1.3210 -0.5671 -1.0029
   32DOPE   C33 4082   3.285   3.421   3.121 -0.4150  0.4163  0.1543
   32DOPE   H3X 4083   3.349   3.384   3.204  0.0723 -2.4721 -1.3895
   32DOPE   H3Y 4084   3.272   3.332   3.056 -0.5638 -0.3704  1.2476
   32DOPE   C34 4085   3.145   3.454   3.180 -0.0371 -0.9860 -0.2377
   32DOPE   H4X 4086   3.071   3.466   3.098 -0.1602 -1.2879 -0.1714
   32DOPE   H4Y 4087   3.115   3.365   3.239 -2.9677 -0.6602 -1.0767
   32DOPE   C35 4088   3.148   3.581   3.264  0.3366  0.0892 -0.0549
   32DOPE   H5X 4089   3.120   3.669   3.202  2.4406  0.4414 -0.5957
   32DOPE   H5Y 4090   3.252   3.605   3.293 -0.3727  0.7304  2.2018
   32DOPE   C36 4091   3.065   3.573   3.393  0.5970 -0.4339 -0.3631
   32DOPE   H6X 4092   3.107   3.496   3.461 -0.0882 -0.0319  0.5330
   32DOPE   H6Y 4093   2.964   3.542   3.357 -0.1342 -4.3373  4.0782
   32DOPE   C37 4094   3.077   3.712   3.457 -0.2384  0.8626  0.0094
   32DOPE   H7X 4095   3.179   3.731   3.496 -0.2588 -0.4845  0.7685
   32DOPE   H7Y 4096   3.053   3.789   3.380  0.7870 -0.7105 -1.9950
   32DOPE   C38 4097   2.975   3.724   3.569  0.1572  0.4014  0.3669
   32DOPE   H8X 4098   2.877   3.703   3.521  0.7542  1.5863 -1.4949
   32DOPE   H8Y 4099   2.961   3.831   3.594  0.8085  0.5070  0.3008
   32DOPE   C39 4100   2.995   3.632   3.682 -0.0569  1.1895  0.2862
   32DOPE   H9X 4101   2.969   3.527   3.661  0.4996  1.3323 -1.2800
   32DOPE  C310 4102   3.029   3.669   3.804  0.5896 -0.5874 -0.2958
   32DOPE  H10X 4103   3.039   3.598   3.888 -0.2335  0.1797  0.4744
   32DOPE  C311 4104   3.060   3.810   3.846  0.0664  1.1011  0.0478
   32DOPE  H11X 4105   3.141   3.814   3.922  1.8785 -2.7359 -1.3962
   32DOPE  H11Y 4106   3.091   3.879   3.764  0.5507  0.0248 -0.7020
   32DOPE  C312 4107   2.935   3.872   3.912  0.0634  1.0301 -0.2081
   32DOPE  H12X 4108   2.914   3.804   3.997  0.1268 -0.0675 -1.0464
   32DOPE  H12Y 4109   2.848   3.853   3.846 -1.3313 -0.8158  2.0023
   32DOPE  C313 4110   2.946   4.022   3.931 -0.6109  0.0820 -0.3117
   32DOPE  H13X 4111   2.971   4.063   3.831 -0.2565 -0.5056 -0.4707
   32DOPE  H13Y 4112   2.846   4.060   3.962 -0.0837  0.1694  1.3848
   32DOPE  C314 4113   3.059   4.078   4.020 -0.2194  0.0089  0.2255
   32DOPE  H14X 4114   3.157   4.095   3.971  0.1958 -0.2445  0.9525
   32DOPE  H14Y 4115   3.070   4.004   4.103 -0.6647  0.2635  0.5200
   32DOPE  C315 4116   3.007   4.216   4.073  0.2169 -0.0137  0.1948
   32DOPE  H15X 4117   2.925   4.198   4.146 -1.4092 -0.5435 -1.6962
   32DOPE  H15Y 4118   2.964   4.272   3.988  2.6941 -0.2369 -1.2950
   32DOPE  C316 4119   3.121   4.305   4.131  0.7365  0.0023  0.4595
   32DOPE  H16X 4120   3.199   4.319   4.054 -0.0887 -0.7535 -0.5437
   32DOPE  H16Y 4121   3.170   4.243   4.210  1.0751  1.1072  1.1316
   32DOPE  C317 4122   3.082   4.435   4.196 -0.7656 -0.1831  0.2396
   32DOPE  H17X 4123   3.024   4.486   4.116  1.6151 -1.3149 -2.4039
   32DOPE  H17Y 4124   3.010   4.415   4.278  0.8953 -0.1339  1.7800
   32DOPE  C318 4125   3.193   4.524   4.248 -0.1821  0.3841 -1.1219
   32DOPE  H18X 4126   3.144   4.615   4.286 -1.6741 -0.9538  0.2737
   32DOPE  H18Y 4127   3.241   4.472   4.334  0.4144  0.0704 -1.6320
   32DOPE  H18Z 4128   3.275   4.543   4.175  1.2145 -0.3934  0.1892
   33DOPE     N 4129   2.535   2.021   2.528 -0.3952 -0.0784  0.3060
   33DOPE   HN1 4130   2.618   2.047   2.471  0.0150 -1.2876  0.3438
   33DOPE   HN2 4131   2.531   1.918   2.531  1.8854 -0.1704  1.9587
   33DOPE   HN3 4132   2.455   2.065   2.477 -1.1257 -1.1741  0.4860
   33DOPE   C12 4133   2.552   2.085   2.661 -0.1588 -0.6707 -0.0755
   33DOPE  H12A 4134   2.592   2.187   2.648  0.8808 -1.2440 -1.7698
   33DOPE  H12B 4135   2.630   2.026   2.714 -0.3204 -1.7400 -0.9668
   33DOPE   C11 4136   2.417   2.084   2.732  0.4225 -0.0614 -0.3707
   33DOPE  H11A 4137   2.429   2.118   2.837 -0.2304 -1.4910  0.1987
   33DOPE  H11B 4138   2.378   1.980   2.731 -0.9772  0.4426 -1.5312
   33DOPE     P 4139   2.168   2.160   2.726  0.4780  0.2987 -0.1799
   33DOPE   O13 4140   2.108   2.041   2.665  0.1463 -0.1910  0.1921
   33DOPE   O14 4141   2.090   2.284   2.705 -0.1689 -0.3460  0.1006
   33DOPE   O11 4142   2.183   2.130   2.887 -0.6535  0.3024  0.1167
   33DOPE   O12 4143   2.319   2.174   2.674  0.5602  0.7835  0.3902
   33DOPE    C1 4144   2.243   2.228   2.968 -0.2299  0.2054  0.7829
   33DOPE    HA 4145   2.258   2.325   2.917 -0.8020 -1.1740 -2.2485
   33DOPE    HB 4146   2.341   2.189   3.003  0.4196  1.3593  0.2749
   33DOPE    C2 4147   2.163   2.258   3.093 -0.1187  0.6925  0.4415
   33DOPE    HS 4148   2.069   2.305   3.058  0.4405  0.3786 -1.5977
   33DOPE   O21 4149   2.240   2.340   3.182 -0.4073 -0.4336 -0.5156
   33DOPE   C21 4150   2.208   2.468   3.189 -0.1424  1.4572 -0.6917
   33DOPE   O22 4151   2.103   2.523   3.152  0.2030  0.4598  0.0895
   33DOPE   C22 4152   2.322   2.546   3.259  0.1070 -1.1591  0.3278
   33DOPE   H2R 4153   2.372   2.593   3.172 -1.8194  0.1818 -0.1363
   33DOPE   H2S 4154   2.386   2.478   3.319  1.7674 -0.7339 -0.9014
   33DOPE    C3 4155   2.127   2.119   3.166  0.3596  0.6868  0.1805
   33DOPE    HX 4156   2.223   2.071   3.196  0.5148 -0.9966 -2.6331
   33DOPE    HY 4157   2.086   2.044   3.094  0.1186 -0.7261  1.7281
   33DOPE   O31 4158   2.043   2.143   3.280 -0.1743 -0.0113  0.2392
   33DOPE   C31 4159   1.939   2.067   3.293 -0.1366  0.2093 -0.6048
   33DOPE   O32 4160   1.914   1.979   3.213 -0.1826  0.2949  0.0245
   33DOPE   C32 4161   1.866   2.089   3.426 -0.3053 -0.2384  0.4819
   33DOPE   H2X 4162   1.893   2.191   3.461  2.0949 -0.3048 -0.9607
   33DOPE   H2Y 4163   1.757   2.077   3.411  0.1539 -1.9840 -2.2501
   33DOPE   C23 4164   2.271   2.668   3.344 -0.6823 -0.3061  0.1357
   33DOPE   H3R 4165   2.196   2.726   3.287  1.5975  1.9401 -0.7670
   33DOPE   H3S 4166   2.358   2.728   3.379 -0.6057 -0.4586  0.2125
   33DOPE   C24 4167   2.211   2.620   3.478  0.1534 -0.4898  0.5458
   33DOPE   H4R 4168   2.129   2.548   3.456 -0.2416 -0.4302  1.7904
   33DOPE   H4S 4169   2.167   2.702   3.538 -0.1226 -0.7173  0.6607
   33DOPE   C25 4170   2.319   2.549   3.552 -0.7410  0.1643 -0.4012
   33DOPE   H5R 4171   2.419   2.599   3.556 -0.5294 -0.2496 -0.5197
   33DOPE   H5S 4172   2.337   2.447   3.513 -0.6147 -0.1261  0.4118
   33DOPE   C26 4173   2.283   2.538   3.703  0.2485  0.3688  0.0080
   33DOPE   H6R 4174   2.183   2.489   3.710  1.8680 -3.0538  1.8551
   33DOPE   H6S 4175   2.273   2.641   3.745  1.8708  0.1916  0.9136
   33DOPE   C27 4176   2.382   2.466   3.789 -0.1248 -0.4177 -0.0337
   33DOPE   H7R 4177   2.481   2.467   3.740  0.5488  1.8948  1.2596
   33DOPE   H7S 4178   2.354   2.359   3.800 -0.4824 -0.2907  0.2904
   33DOPE   C28 4179   2.394   2.530   3.930  0.4512  0.5443  0.1154
   33DOPE   H8R 4180   2.397   2.641   3.929 -0.5912  0.5921  1.0187
   33DOPE   H8S 4181   2.495   2.505   3.967  0.3257  1.6912  1.3104
   33DOPE   C29 4182   2.291   2.487   4.027 -0.1087 -0.6627 -0.4201
   33DOPE   H9R 4183   2.215   2.417   3.989  0.0838  0.0357 -2.2016
   33DOPE  C210 4184   2.298   2.542   4.159  0.2537 -0.1601 -0.0616
   33DOPE  H10R 4185   2.222   2.512   4.233  1.6056 -1.9639  0.6428
   33DOPE  C211 4186   2.397   2.638   4.210 -0.0914  0.7261  0.1595
   33DOPE  H11R 4187   2.333   2.711   4.263 -0.2062  0.3272  0.5815
   33DOPE  H11S 4188   2.452   2.684   4.125  0.0145 -0.2546 -0.3165
   33DOPE  C212 4189   2.498   2.582   4.310  1.2992 -0.0938  0.4972
   33DOPE  H12R 4190   2.446   2.535   4.395 -0.3299 -3.0787 -1.9488
   33DOPE  H12S 4191   2.543   2.666   4.367 -1.2067  0.4130  1.8532
   33DOPE  C213 4192   2.606   2.491   4.254  0.1262 -0.0514  0.1360
   33DOPE  H13R 4193   2.667   2.542   4.176  1.2760 -3.5299 -1.4574
   33DOPE  H13S 4194   2.555   2.412   4.196  0.5286  0.7935 -1.4381
   33DOPE  C214 4195   2.673   2.397   4.350  0.0609 -0.0036 -0.3654
   33DOPE  H14R 4196   2.747   2.341   4.289  0.8709  1.9298 -1.2526
   33DOPE  H14S 4197   2.597   2.324   4.384 -0.0703 -0.0482 -0.7469
   33DOPE  C215 4198   2.755   2.464   4.460  0.6839 -0.9207 -0.0135
   33DOPE  H15R 4199   2.697   2.539   4.518  2.0265 -0.8372  1.2614
   33DOPE  H15S 4200   2.814   2.532   4.395 -1.1103 -1.2573 -2.1454
   33DOPE  C216 4201   2.840   2.381   4.553 -0.2036  0.1999  0.7608
   33DOPE  H16R 4202   2.923   2.342   4.491  0.1969 -0.3987  1.6367
   33DOPE  H16S 4203   2.777   2.304   4.603 -0.6438  0.0282 -0.0609
   33DOPE  C217 4204   2.900   2.472   4.661  0.8431  0.0857  1.0858
   33DOPE  H17R 4205   2.828   2.543   4.706  0.3954 -0.0042  0.5348
   33DOPE  H17S 4206   2.985   2.533   4.623 -0.5697  1.6922  0.3214
   33DOPE  C218 4207   2.965   2.391   4.771  0.1331  0.1823 -0.1479
   33DOPE  H18R 4208   2.884   2.345   4.832 -1.7786  0.4140 -2.3888
   33DOPE  H18S 4209   3.034   2.458   4.826  0.4883  0.8781 -1.4082
   33DOPE  H18T 4210   3.029   2.312   4.727 -0.1973  0.3088 -0.8608
   33DOPE   C33 4211   1.905   1.989   3.540 -0.1486 -0.2040 -0.3695
   33DOPE   H3X 4212   1.897   1.881   3.516 -0.0968 -0.5083  0.9058
   33DOPE   H3Y 4213   1.826   2.015   3.614 -0.2384  0.5248 -0.7160
   33DOPE   C34 4214   2.038   2.003   3.607 -0.3344  0.2057 -0.1177
   33DOPE   H4X 4215   2.057   1.914   3.671 -2.4677 -0.7952 -0.7895
   33DOPE   H4Y 4216   2.118   1.998   3.530 -0.6403 -1.7705 -0.3540
   33DOPE   C35 4217   2.047   2.128   3.692  0.3914  0.7514 -0.1976
   33DOPE   H5X 4218   2.019   2.219   3.634  0.2483  1.0641  0.3604
   33DOPE   H5Y 4219   2.153   2.153   3.712  0.3359  0.8706 -0.0481
   33DOPE   C36 4220   1.962   2.124   3.824  0.0429  0.6811  0.1655
   33DOPE   H6X 4221   1.990   2.022   3.858  1.5490  1.1562  0.4269
   33DOPE   H6Y 4222   1.853   2.128   3.798  0.3814 -0.0858 -1.5304
   33DOPE   C37 4223   2.004   2.226   3.938  0.5168 -0.1161 -0.2090
   33DOPE   H7X 4224   2.110   2.257   3.933  0.3673  0.3743 -0.4234
   33DOPE   H7Y 4225   1.946   2.319   3.956  1.1407 -0.1560  2.3763
   33DOPE   C38 4226   1.986   2.161   4.082  0.3317  0.5575  0.0271
   33DOPE   H8X 4227   2.023   2.058   4.065  1.8821  0.7913  1.6970
   33DOPE   H8Y 4228   1.876   2.161   4.097  0.3107  0.9959 -0.1078
   33DOPE   C39 4229   2.050   2.233   4.201  0.1496  0.2109  0.0231
   33DOPE   H9X 4230   1.978   2.303   4.246 -0.2226 -0.3836  0.3760
   33DOPE  C310 4231   2.166   2.210   4.264  0.0110 -0.8593 -0.3773
   33DOPE  H10X 4232   2.194   2.269   4.352 -0.6260 -2.6785  1.0987
   33DOPE  C311 4233   2.268   2.103   4.222 -0.0676  1.2428  0.0749
   33DOPE  H11X 4234   2.229   2.036   4.143  2.2280  0.2209 -0.2581
   33DOPE  H11Y 4235   2.350   2.158   4.171  0.1904 -0.5262 -1.5248
   33DOPE  C312 4236   2.314   2.021   4.341  0.4342 -0.4354  0.0948
   33DOPE  H12X 4237   2.339   2.089   4.425 -2.3595  0.9987 -0.1002
   33DOPE  H12Y 4238   2.399   1.954   4.316  2.1247  1.2943  1.0124
   33DOPE  C313 4239   2.208   1.922   4.397  0.7302 -0.3136 -0.5713
   33DOPE  H13X 4240   2.118   1.979   4.427  1.2132  0.4613 -0.5572
   33DOPE  H13Y 4241   2.167   1.848   4.325 -2.3633  0.2394  0.4613
   33DOPE  C314 4242   2.253   1.846   4.523 -0.6798  1.0967  0.0263
   33DOPE  H14X 4243   2.293   1.927   4.588  1.3397  1.5813 -1.7050
   33DOPE  H14Y 4244   2.338   1.780   4.494 -1.1172 -0.0442  1.2621
   33DOPE  C315 4245   2.153   1.756   4.593  0.5376 -0.2269  0.2694
   33DOPE  H15X 4246   2.116   1.675   4.526 -1.0257 -1.1653  2.1604
   33DOPE  H15Y 4247   2.062   1.817   4.616  1.3154  0.4813  1.5900
   33DOPE  C316 4248   2.214   1.695   4.725  0.6946 -0.5840 -0.0580
   33DOPE  H16X 4249   2.317   1.659   4.704  1.7954  2.0710  0.4594
   33DOPE  H16Y 4250   2.152   1.613   4.768  0.1093  0.2878  0.7895
   33DOPE  C317 4251   2.231   1.812   4.829  0.9372  0.2475 -0.2735
   33DOPE  H17X 4252   2.283   1.899   4.783  1.2356  0.5786  0.6674
   33DOPE  H17Y 4253   2.129   1.841   4.863 -0.0759 -3.4966  0.3288
   33DOPE  C318 4254   2.307   1.771   4.960 -0.3398 -0.0494 -0.2859
   33DOPE  H18X 4255   2.414   1.780   4.929  0.3721 -2.3550  1.2737
   33DOPE  H18Y 4256   2.293   1.846   5.041  1.4982  2.1424 -1.8584
   33DOPE  H18Z 4257   2.283   1.667   4.988  2.3265 -0.6597 -0.0171
   34DOPE     N 4258   2.016   4.157   2.028 -0.0244  0.2371 -0.4562
   34DOPE   HN1 4259   2.026   4.252   1.988 -0.0910 -0.0432 -1.1477
   34DOPE   HN2 4260   2.113   4.120   2.031  0.2705  0.7541 -2.4286
   34DOPE   HN3 4261   1.958   4.102   1.962  0.5020 -0.3496 -0.4341
   34DOPE   C12 4262   1.934   4.184   2.160 -0.2447 -0.6779  0.1361
   34DOPE  H12A 4263   1.946   4.087   2.213 -0.8879 -0.2323  1.1138
   34DOPE  H12B 4264   1.832   4.214   2.130 -0.7356 -0.2738  2.0550
   34DOPE   C11 4265   1.989   4.296   2.245  0.3278 -0.1120  0.1072
   34DOPE  H11A 4266   1.938   4.312   2.342  2.5741  2.0004  1.0355
   34DOPE  H11B 4267   1.959   4.386   2.187  0.7781 -0.0806 -0.0827
   34DOPE     P 4268   2.210   4.185   2.340 -0.5056 -0.0512  0.0138
   34DOPE   O13 4269   2.353   4.219   2.370  0.4512 -0.0133  0.2669
   34DOPE   O14 4270   2.196   4.054   2.268  0.0983 -0.1040  0.1536
   34DOPE   O11 4271   2.130   4.182   2.472 -0.4739  0.6785 -0.4553
   34DOPE   O12 4272   2.132   4.297   2.254 -0.4071 -0.1447 -0.0877
   34DOPE    C1 4273   2.150   4.307   2.547  0.4610  0.7191  0.2517
   34DOPE    HA 4274   2.095   4.387   2.493  1.0254  0.5386 -0.6075
   34DOPE    HB 4275   2.257   4.334   2.561  0.6101 -0.1485  0.9098
   34DOPE    C2 4276   2.086   4.308   2.691  0.4254  0.1081  0.0557
   34DOPE    HS 4277   2.103   4.410   2.732 -0.4617  1.0168 -1.7132
   34DOPE   O21 4278   2.165   4.213   2.768  0.1656  0.3178 -0.1080
   34DOPE   C21 4279   2.188   4.243   2.894  0.0524  0.0759 -0.4353
   34DOPE   O22 4280   2.160   4.353   2.946  0.4102  0.0829 -0.5923
   34DOPE   C22 4281   2.254   4.123   2.970  0.0386  0.3027 -0.4222
   34DOPE   H2R 4282   2.336   4.169   3.029  1.1894 -1.2231 -0.7515
   34DOPE   H2S 4283   2.283   4.055   2.887 -1.9314  0.4987 -1.3387
   34DOPE    C3 4284   1.942   4.267   2.677 -0.1555 -0.5208 -1.2969
   34DOPE    HX 4285   1.934   4.159   2.653  1.5201 -1.0210  0.2221
   34DOPE    HY 4286   1.885   4.326   2.602 -1.5033  0.5930  0.5126
   34DOPE   O31 4287   1.874   4.261   2.806  0.5406  0.4017  0.6108
   34DOPE   C31 4288   1.809   4.364   2.847  0.1302  0.0569 -0.3889
   34DOPE   O32 4289   1.807   4.476   2.798  0.1493 -0.5664  0.1458
   34DOPE   C32 4290   1.716   4.322   2.960 -0.1548 -0.0368 -0.3251
   34DOPE   H2X 4291   1.617   4.325   2.910  0.4387  0.1544 -1.5315
   34DOPE   H2Y 4292   1.739   4.217   2.988 -1.1391  0.0133  0.7306
   34DOPE   C23 4293   2.164   4.037   3.056  0.5652  0.7031 -0.4686
   34DOPE   H3R 4294   2.216   3.940   3.071 -0.8355 -0.1477 -0.9157
   34DOPE   H3S 4295   2.074   4.014   2.994  1.6543 -1.4871 -1.3161
   34DOPE   C24 4296   2.137   4.104   3.191 -0.2727  0.3095  0.1901
   34DOPE   H4R 4297   2.141   4.215   3.189 -2.1551  0.4480  1.3240
   34DOPE   H4S 4298   2.223   4.082   3.259  1.5923  3.7050 -0.8374
   34DOPE   C25 4299   2.003   4.051   3.249 -0.5114  0.4913  0.2024
   34DOPE   H5R 4300   2.014   3.941   3.241 -1.0457  0.4691 -0.3179
   34DOPE   H5S 4301   1.920   4.075   3.179 -0.6927 -1.0162 -0.1254
   34DOPE   C26 4302   1.969   4.117   3.382 -0.4969  0.2650 -0.2432
   34DOPE   H6R 4303   1.863   4.098   3.409 -0.6783 -0.5818 -1.5138
   34DOPE   H6S 4304   1.983   4.227   3.384  0.6553  0.1176  0.5100
   34DOPE   C27 4305   2.066   4.066   3.491  0.0043  0.7610  0.2852
   34DOPE   H7R 4306   2.166   4.114   3.481  0.2977  0.5953  2.1783
   34DOPE   H7S 4307   2.082   3.959   3.468 -0.2927  0.6949  0.3816
   34DOPE   C28 4308   2.026   4.115   3.632 -0.0935  0.6627  0.3148
   34DOPE   H8R 4309   2.028   4.225   3.643  0.1726  1.1524 -3.4594
   34DOPE   H8S 4310   2.105   4.082   3.703 -0.2371  1.2849  0.7793
   34DOPE   C29 4311   1.903   4.054   3.685  0.1505 -0.8151  0.0866
   34DOPE   H9R 4312   1.906   3.944   3.688  1.7043 -0.7732  1.3260
   34DOPE  C210 4313   1.776   4.118   3.696 -0.5019  0.1806  0.3710
   34DOPE  H10R 4314   1.688   4.057   3.720  0.9675 -1.5342  1.6944
   34DOPE  C211 4315   1.763   4.261   3.655  0.8023  0.1966  0.2325
   34DOPE  H11R 4316   1.660   4.279   3.615  0.9730  0.8899  0.0761
   34DOPE  H11S 4317   1.830   4.287   3.569  2.3481  1.8396  1.8367
   34DOPE  C212 4318   1.789   4.351   3.776  0.1059 -0.3657  0.2257
   34DOPE  H12R 4319   1.802   4.456   3.741  1.5844 -0.4420  0.4997
   34DOPE  H12S 4320   1.892   4.325   3.809  0.4457 -1.0383 -1.2686
   34DOPE  C213 4321   1.679   4.338   3.889 -0.5105 -0.4466 -0.4650
   34DOPE  H13R 4322   1.658   4.231   3.908 -0.7262 -0.0601  1.7310
   34DOPE  H13S 4323   1.595   4.394   3.842  0.0948  0.0957 -0.9246
   34DOPE  C214 4324   1.721   4.413   4.018 -0.0420 -0.1836  0.7453
   34DOPE  H14R 4325   1.630   4.404   4.081 -0.6247  0.0503 -0.0533
   34DOPE  H14S 4326   1.749   4.518   3.995 -0.1965 -0.6310 -1.6793
   34DOPE  C215 4327   1.833   4.353   4.093  0.4083 -0.2534  0.1456
   34DOPE  H15R 4328   1.931   4.335   4.044  1.1107 -2.2963  2.1220
   34DOPE  H15S 4329   1.799   4.250   4.115 -1.1998  0.2561  0.1400
   34DOPE  C216 4330   1.873   4.432   4.227  0.4455 -0.3802 -0.4222
   34DOPE  H16R 4331   1.891   4.540   4.208 -2.2718  0.4472  1.1399
   34DOPE  H16S 4332   1.964   4.384   4.270 -0.4234 -1.5636  0.1610
   34DOPE  C217 4333   1.759   4.414   4.338 -0.6237 -0.8315 -0.1854
   34DOPE  H17R 4334   1.659   4.423   4.293 -1.2392  0.9476  1.3897
   34DOPE  H17S 4335   1.785   4.492   4.413  1.4580 -0.1393 -1.5285
   34DOPE  C218 4336   1.782   4.283   4.416 -0.3641 -0.4066  0.0698
   34DOPE  H18R 4337   1.883   4.280   4.463 -0.3931 -0.9079  0.1116
   34DOPE  H18S 4338   1.768   4.199   4.345  0.9035 -0.0160 -0.6664
   34DOPE  H18T 4339   1.708   4.276   4.499 -1.2510 -0.9065 -0.7536
   34DOPE   C33 4340   1.723   4.413   3.082  0.0113  0.1842  0.0051
   34DOPE   H3X 4341   1.650   4.371   3.155  0.0485 -1.7359 -1.0030
   34DOPE   H3Y 4342   1.701   4.518   3.052  3.1358  0.4201 -1.8850
   34DOPE   C34 4343   1.861   4.419   3.144 -0.8868 -0.2749 -0.3243
   34DOPE   H4X 4344   1.895   4.325   3.193  0.5774  0.4101  0.0164
   34DOPE   H4Y 4345   1.946   4.453   3.082  0.1814  2.5261  2.3996
   34DOPE   C35 4346   1.866   4.515   3.265 -0.3507 -0.2649 -0.2488
   34DOPE   H5X 4347   1.809   4.473   3.351  0.8889  1.5818  1.5777
   34DOPE   H5Y 4348   1.820   4.611   3.235 -0.6736  0.1897  1.5944
   34DOPE   C36 4349   2.003   4.545   3.330  0.2567  0.2268 -0.1153
   34DOPE   H6X 4350   2.068   4.585   3.249 -1.4233 -0.4537 -1.8954
   34DOPE   H6Y 4351   2.043   4.453   3.378 -0.5028  1.0338  2.2172
   34DOPE   C37 4352   1.992   4.637   3.449 -0.1339  0.0110 -0.2228
   34DOPE   H7X 4353   1.946   4.729   3.406 -0.2010 -0.1585 -0.5180
   34DOPE   H7Y 4354   1.918   4.598   3.523  0.6599 -0.5602  0.2760
   34DOPE   C38 4355   2.131   4.664   3.520  0.5449  0.4663 -0.0021
   34DOPE   H8X 4356   2.115   4.723   3.613 -1.0205 -0.2873  0.2342
   34DOPE   H8Y 4357   2.186   4.733   3.451  1.3814 -1.2840 -1.1465
   34DOPE   C39 4358   2.205   4.535   3.540 -0.0206 -0.0587  0.4429
   34DOPE   H9X 4359   2.239   4.488   3.447  0.6718 -1.2173  1.2588
   34DOPE  C310 4360   2.220   4.469   3.656 -0.2306  0.0018  0.3724
   34DOPE  H10X 4361   2.277   4.376   3.663 -0.1566  0.1032  1.2919
   34DOPE  C311 4362   2.162   4.509   3.793  0.7589  0.5221 -0.2223
   34DOPE  H11X 4363   2.117   4.611   3.784  0.9705  0.8110  1.5335
   34DOPE  H11Y 4364   2.077   4.445   3.824  0.3226  1.6776  1.1100
   34DOPE  C312 4365   2.256   4.497   3.909  0.0525 -0.1707 -0.8857
   34DOPE  H12X 4366   2.348   4.550   3.876 -1.1758  2.0471 -0.9485
   34DOPE  H12Y 4367   2.272   4.390   3.934  2.1030  0.7524  2.5920
   34DOPE  C313 4368   2.198   4.560   4.037  0.2099 -0.3658 -0.2578
   34DOPE  H13X 4369   2.154   4.660   4.017  4.2156  1.3987 -1.2226
   34DOPE  H13Y 4370   2.113   4.494   4.063  1.3134 -1.4510  0.7104
   34DOPE  C314 4371   2.291   4.568   4.153  0.1829  0.4571 -0.0493
   34DOPE  H14X 4372   2.361   4.654   4.160  0.8272  0.0159 -0.9528
   34DOPE  H14Y 4373   2.352   4.476   4.141 -1.7603 -0.9012 -0.0797
   34DOPE  C315 4374   2.226   4.562   4.293 -0.5795 -0.4988  0.0289
   34DOPE  H15X 4375   2.305   4.518   4.357 -1.3310  0.0290  1.3573
   34DOPE  H15Y 4376   2.154   4.478   4.304  1.4035 -2.3663 -0.4489
   34DOPE  C316 4377   2.202   4.701   4.360  0.5907 -0.7952 -0.5040
   34DOPE  H16X 4378   2.120   4.748   4.302  0.6807 -2.0036 -1.6459
   34DOPE  H16Y 4379   2.288   4.770   4.344  0.2204 -0.0712  0.5046
   34DOPE  C317 4380   2.170   4.696   4.510  0.2884  0.2914 -0.1401
   34DOPE  H17X 4381   2.174   4.804   4.534  2.5430  0.0296  1.0015
   34DOPE  H17Y 4382   2.067   4.654   4.518 -0.0015  0.4171 -2.4792
   34DOPE  C318 4383   2.265   4.621   4.596 -0.4583  0.1935 -0.1057
   34DOPE  H18X 4384   2.371   4.637   4.569 -0.0664 -0.1440  1.1595
   34DOPE  H18Y 4385   2.236   4.641   4.702  1.1287 -2.4478  0.9123
   34DOPE  H18Z 4386   2.246   4.512   4.583 -0.3332  0.2222 -0.5338
   35DOPE     N 4387   4.222   3.659   2.294  0.0755 -0.3955 -0.0630
   35DOPE   HN1 4388   4.185   3.726   2.223 -0.0856  0.8446  1.1486
   35DOPE   HN2 4389   4.326   3.650   2.294 -0.1273 -4.1335  0.1813
   35DOPE   HN3 4390   4.180   3.568   2.267 -0.5727 -0.1261  0.0303
   35DOPE   C12 4391   4.182   3.694   2.430  0.0827  0.1866 -0.1248
   35DOPE  H12A 4392   4.088   3.752   2.426 -0.7249 -1.0275  0.5589
   35DOPE  H12B 4393   4.257   3.753   2.488  0.2186  0.2731 -0.3877
   35DOPE   C11 4394   4.146   3.571   2.516  0.1664  0.0206 -0.4313
   35DOPE  H11A 4395   4.055   3.514   2.485  0.7709 -0.4348 -1.4044
   35DOPE  H11B 4396   4.125   3.588   2.624  1.1348  2.7557 -0.6118
   35DOPE     P 4397   4.241   3.326   2.520 -0.2513  0.2669 -0.2233
   35DOPE   O13 4398   4.269   3.281   2.386 -0.6850  0.1201 -0.4958
   35DOPE   O14 4399   4.109   3.293   2.572  0.0305 -0.2319  0.3117
   35DOPE   O11 4400   4.344   3.275   2.629 -0.8149 -0.7826 -0.0687
   35DOPE   O12 4401   4.259   3.487   2.520 -0.1339  0.2773 -0.4477
   35DOPE    C1 4402   4.464   3.349   2.654 -0.6547  0.6397  0.4543
   35DOPE    HA 4403   4.508   3.400   2.566  0.4787  1.1143  1.2782
   35DOPE    HB 4404   4.534   3.267   2.679 -3.0480 -0.9468  2.3986
   35DOPE    C2 4405   4.444   3.435   2.781  0.7811  0.3202 -0.3798
   35DOPE    HS 4406   4.376   3.521   2.761  3.3580  2.2463 -1.3442
   35DOPE   O21 4407   4.573   3.487   2.829 -0.1403  1.1834 -0.1420
   35DOPE   C21 4408   4.625   3.586   2.753  0.1116  0.5194 -0.1908
   35DOPE   O22 4409   4.574   3.626   2.649 -0.0972  0.5666  0.3769
   35DOPE   C22 4410   4.757   3.633   2.808  0.2979 -0.3961  0.0293
   35DOPE   H2R 4411   4.830   3.634   2.725 -1.5224  1.2628 -1.6360
   35DOPE   H2S 4412   4.786   3.551   2.878 -0.6270 -2.0347 -1.4128
   35DOPE    C3 4413   4.370   3.354   2.890 -0.8475 -1.8691 -0.5796
   35DOPE    HX 4414   4.442   3.270   2.904  2.4243  0.3931 -2.5499
   35DOPE    HY 4415   4.277   3.318   2.841  0.4510 -2.7403 -2.5231
   35DOPE   O31 4416   4.353   3.427   3.013 -0.3756 -0.1438  0.2583
   35DOPE   C31 4417   4.231   3.458   3.056 -0.2497 -0.4533 -1.0764
   35DOPE   O32 4418   4.127   3.444   2.993 -0.9099 -0.3811 -0.6331
   35DOPE   C32 4419   4.257   3.529   3.189 -0.2887 -0.1338  0.0835
   35DOPE   H2X 4420   4.317   3.456   3.247 -0.5108 -0.0322  0.4406
   35DOPE   H2Y 4421   4.326   3.616   3.175  0.0551 -0.5461 -0.9220
   35DOPE   C23 4422   4.752   3.775   2.869 -0.3563 -0.0967 -0.7048
   35DOPE   H3R 4423   4.724   3.852   2.794  0.7145  2.2413  1.1507
   35DOPE   H3S 4424   4.856   3.790   2.906  0.1202 -0.9779 -1.6682
   35DOPE   C24 4425   4.665   3.787   2.997  1.1301  0.3092 -0.6528
   35DOPE   H4R 4426   4.557   3.785   2.972  0.6602  0.0151  1.2959
   35DOPE   H4S 4427   4.674   3.884   3.049  1.8063 -0.3425  0.4873
   35DOPE   C25 4428   4.694   3.671   3.097  0.1971 -0.2205  0.1417
   35DOPE   H5R 4429   4.802   3.660   3.117  0.4798  2.0444  0.1711
   35DOPE   H5S 4430   4.653   3.573   3.066 -1.4614  0.5039 -0.0882
   35DOPE   C26 4431   4.627   3.690   3.233  0.4851  0.4263  0.0019
   35DOPE   H6R 4432   4.517   3.683   3.214  0.8614 -1.3181 -1.9802
   35DOPE   H6S 4433   4.654   3.792   3.265  1.7060 -0.0823  0.6480
   35DOPE   C27 4434   4.665   3.583   3.335  0.1346  0.8561 -0.5002
   35DOPE   H7R 4435   4.771   3.553   3.317  0.2737  1.7834 -1.2914
   35DOPE   H7S 4436   4.597   3.496   3.321 -0.8782  1.5467  0.0006
   35DOPE   C28 4437   4.662   3.649   3.477 -0.0240 -0.9389  0.0925
   35DOPE   H8R 4438   4.561   3.693   3.490  0.1645  0.8868 -3.3208
   35DOPE   H8S 4439   4.726   3.741   3.475 -3.0720  1.3140 -1.3453
   35DOPE   C29 4440   4.701   3.547   3.580  0.0811  0.2998  0.0528
   35DOPE   H9R 4441   4.808   3.524   3.573 -0.2171 -1.3658  0.3227
   35DOPE  C210 4442   4.624   3.480   3.674  0.7714 -0.6724  0.0652
   35DOPE  H10R 4443   4.660   3.417   3.757 -1.0820  0.5492  1.8892
   35DOPE  C211 4444   4.474   3.511   3.679  0.3324  0.1349  0.4644
   35DOPE  H11R 4445   4.421   3.415   3.696 -0.2462  0.4641  0.5619
   35DOPE  H11S 4446   4.439   3.554   3.583  0.7586 -1.1835 -0.3045
   35DOPE  C212 4447   4.445   3.613   3.790  0.4207 -0.2087  0.0322
   35DOPE  H12R 4448   4.340   3.641   3.769  0.3677 -0.9890 -0.8167
   35DOPE  H12S 4449   4.502   3.708   3.777  1.1766 -0.7078 -0.3508
   35DOPE  C213 4450   4.454   3.562   3.937  0.2858 -0.6305 -0.4122
   35DOPE  H13R 4451   4.432   3.653   3.998 -0.4392 -1.2878  0.3349
   35DOPE  H13S 4452   4.559   3.533   3.956 -0.2572 -1.6515  1.2335
   35DOPE  C214 4453   4.368   3.445   3.982  0.7404  0.0998  0.1290
   35DOPE  H14R 4454   4.362   3.356   3.915  0.4062 -1.2695  1.9009
   35DOPE  H14S 4455   4.264   3.482   3.998  1.1289  1.2212  0.1483
   35DOPE  C215 4456   4.423   3.400   4.110  0.5260  0.5719 -0.8347
   35DOPE  H15R 4457   4.534   3.391   4.111  0.4234 -1.1110  0.0968
   35DOPE  H15S 4458   4.374   3.304   4.138  0.3017  0.8029 -0.4382
   35DOPE  C216 4459   4.388   3.491   4.226 -0.2906  0.1343  0.1339
   35DOPE  H16R 4460   4.277   3.505   4.224 -0.0269  2.7939 -1.8917
   35DOPE  H16S 4461   4.430   3.593   4.210  0.4210  0.0522  1.3582
   35DOPE  C217 4462   4.446   3.432   4.363 -0.0199 -0.6026  0.4274
   35DOPE  H17R 4463   4.556   3.446   4.357  0.0102 -0.7970  0.5018
   35DOPE  H17S 4464   4.430   3.323   4.378 -0.1868 -0.6240  0.0988
   35DOPE  C218 4465   4.403   3.503   4.495 -0.8299  0.7217 -0.3341
   35DOPE  H18R 4466   4.476   3.461   4.568 -1.3972 -0.1909 -0.2812
   35DOPE  H18S 4467   4.296   3.476   4.500 -0.3854 -2.3459 -3.5944
   35DOPE  H18T 4468   4.411   3.613   4.481  1.7791  0.3798 -2.4326
   35DOPE   C33 4469   4.127   3.573   3.255  0.4364  0.1786  0.7486
   35DOPE   H3X 4470   4.043   3.502   3.242 -0.9894  2.0091 -0.7458
   35DOPE   H3Y 4471   4.106   3.663   3.193  1.6149  1.4709  2.1389
   35DOPE   C34 4472   4.158   3.601   3.402 -0.2140  0.8198 -0.2729
   35DOPE   H4X 4473   4.206   3.514   3.450  0.7729  0.6746 -1.4747
   35DOPE   H4Y 4474   4.221   3.691   3.415  0.3538  0.3770  0.0259
   35DOPE   C35 4475   4.026   3.630   3.484  0.3977  0.1809  0.2897
   35DOPE   H5X 4476   3.934   3.569   3.478  1.0770 -0.8452  0.0914
   35DOPE   H5Y 4477   3.994   3.730   3.447 -0.7242  0.0053  0.7334
   35DOPE   C36 4478   4.049   3.640   3.640 -0.3275  0.5190 -0.2292
   35DOPE   H6X 4479   4.120   3.726   3.644  1.3208 -0.8709  1.9652
   35DOPE   H6Y 4480   4.096   3.555   3.692 -2.4949  0.7553  2.3458
   35DOPE   C37 4481   3.918   3.665   3.719 -0.3930 -0.1546  0.1224
   35DOPE   H7X 4482   3.873   3.757   3.676 -0.7960 -0.1724  0.5004
   35DOPE   H7Y 4483   3.845   3.580   3.718 -0.4990 -0.0660  0.3102
   35DOPE   C38 4484   3.949   3.687   3.872  0.1214  0.0278  0.4051
   35DOPE   H8X 4485   3.988   3.594   3.918 -1.0764  0.1044  1.6093
   35DOPE   H8Y 4486   3.846   3.714   3.904 -0.7418  1.9918 -3.3613
   35DOPE   C39 4487   4.037   3.800   3.895  0.2520 -0.7525  0.4368
   35DOPE   H9X 4488   4.110   3.823   3.816 -0.2055  1.6746  0.6575
   35DOPE  C310 4489   4.049   3.867   4.014  0.4941  0.1928 -0.5304
   35DOPE  H10X 4490   4.110   3.958   4.019 -0.5531  0.8682  0.4201
   35DOPE  C311 4491   3.970   3.837   4.139 -0.5802  0.6761 -0.4908
   35DOPE  H11X 4492   3.942   3.924   4.202 -2.0401 -0.1422  0.0399
   35DOPE  H11Y 4493   3.871   3.791   4.118 -1.0770 -0.5692  3.6329
   35DOPE  C312 4494   4.043   3.741   4.232  0.3151  0.4664 -0.3562
   35DOPE  H12X 4495   4.142   3.788   4.252  1.1936 -0.5935 -2.0568
   35DOPE  H12Y 4496   4.062   3.645   4.181 -2.9885 -0.1016 -0.7453
   35DOPE  C313 4497   3.979   3.712   4.364  0.6889 -0.4252 -1.1216
   35DOPE  H13X 4498   3.873   3.746   4.364 -0.2239 -2.9313  0.7323
   35DOPE  H13Y 4499   3.969   3.602   4.380  1.8952 -0.2418  1.2102
   35DOPE  C314 4500   4.055   3.782   4.477 -0.4344 -0.8770  0.0846
   35DOPE  H14X 4501   4.016   3.886   4.484  1.6063 -0.0733  0.3801
   35DOPE  H14Y 4502   4.166   3.770   4.468 -0.5092 -0.1102 -3.0609
   35DOPE  C315 4503   4.017   3.709   4.608 -0.3776 -0.5367  0.0268
   35DOPE  H15X 4504   4.054   3.605   4.591 -0.8322 -0.7713  0.4567
   35DOPE  H15Y 4505   3.907   3.696   4.613 -0.2784 -2.5732 -1.5116
   35DOPE  C316 4506   4.064   3.795   4.723 -0.5187 -0.0892 -0.6576
   35DOPE  H16X 4507   4.019   3.897   4.726  3.5980  1.9427  0.4629
   35DOPE  H16Y 4508   4.174   3.811   4.715 -0.4619  0.5201  0.9688
   35DOPE  C317 4509   4.039   3.726   4.854 -0.5241 -0.0651 -0.0901
   35DOPE  H17X 4510   3.930   3.725   4.874 -0.7087 -0.7437 -1.0429
   35DOPE  H17Y 4511   4.066   3.618   4.845 -1.6769 -0.2740 -1.4348
   35DOPE  C318 4512   4.118   3.789   4.968 -0.7168 -0.2593  0.2522
   35DOPE  H18X 4513   4.098   3.899   4.971 -4.5398 -0.7686 -0.9931
   35DOPE  H18Y 4514   4.095   3.757   5.072 -2.7310  0.7399  0.1674
   35DOPE  H18Z 4515   4.222   3.753   4.961 -0.8168 -0.1774 -2.4345
   36DOPE     N 4516   5.915   4.968   2.020 -0.1541  0.2114  0.0428
   36DOPE   HN1 4517   5.972   4.923   2.095 -1.9491  1.0501  1.9927
   36DOPE   HN2 4518   5.870   5.058   2.045 -2.5165 -0.0699 -2.6839
   36DOPE   HN3 4519   5.838   4.904   1.990 -1.3829  1.3743  0.6280
   36DOPE   C12 4520   6.013   4.992   1.902 -0.0162  0.4586 -0.4762
   36DOPE  H12A 4521   5.949   5.015   1.813 -0.7314  0.5869  0.0588
   36DOPE  H12B 4522   6.073   4.899   1.892  2.1951  1.6272  1.0907
   36DOPE   C11 4523   6.106   5.114   1.930  0.2467 -0.4780  0.2823
   36DOPE  H11A 4524   6.185   5.127   1.853 -2.0200 -0.3545 -2.1853
   36DOPE  H11B 4525   6.161   5.090   2.023  1.4319 -1.4942 -0.6494
   36DOPE     P 4526   6.040   5.349   1.845  0.0243  0.2996 -0.3614
   36DOPE   O13 4527   5.965   5.308   1.727 -0.4319 -0.3501  0.2356
   36DOPE   O14 4528   6.188   5.368   1.835 -0.6489 -0.0673 -0.2997
   36DOPE   O11 4529   5.961   5.468   1.916 -0.3494  0.6900 -0.1805
   36DOPE   O12 4530   6.014   5.227   1.949  0.1111 -0.7232  0.3101
   36DOPE    C1 4531   5.851   5.432   2.004  0.0887 -0.3397  0.2642
   36DOPE    HA 4532   5.794   5.343   1.970  0.3018  0.5600 -2.6604
   36DOPE    HB 4533   5.789   5.524   2.002 -0.8862 -0.7753  3.5839
   36DOPE    C2 4534   5.896   5.415   2.146 -0.0301  0.4384  0.1271
   36DOPE    HS 4535   5.968   5.332   2.164  0.6960  1.2676  1.2799
   36DOPE   O21 4536   5.786   5.385   2.229  0.0806 -0.2602 -0.3039
   36DOPE   C21 4537   5.737   5.260   2.225 -0.6966  0.1514 -0.0870
   36DOPE   O22 4538   5.779   5.170   2.152  0.4154  0.6966  0.5160
   36DOPE   C22 4539   5.638   5.236   2.341  0.1745 -0.3994 -0.1312
   36DOPE   H2R 4540   5.559   5.164   2.314 -1.0546  0.3328  1.3481
   36DOPE   H2S 4541   5.577   5.325   2.371  2.3439  0.0494  3.6889
   36DOPE    C3 4542   5.969   5.544   2.206  0.3175 -0.2006  0.0135
   36DOPE    HX 4543   5.919   5.625   2.149 -1.3964  0.4427  2.3130
   36DOPE    HY 4544   6.074   5.537   2.170 -0.7922 -0.7212 -3.5052
   36DOPE   O31 4545   5.957   5.581   2.346  0.3345  0.4027 -0.3425
   36DOPE   C31 4546   6.048   5.513   2.415 -0.1118  0.6607 -0.6410
   36DOPE   O32 4547   6.131   5.436   2.372  0.2992  0.5263  0.2816
   36DOPE   C32 4548   6.036   5.554   2.557 -0.1637 -0.3080  0.5322
   36DOPE   H2X 4549   6.029   5.462   2.619  1.7897  1.3080  3.4015
   36DOPE   H2Y 4550   6.134   5.582   2.601 -0.8007  2.4933  0.3170
   36DOPE   C23 4551   5.704   5.174   2.464  0.2732 -0.5308 -0.1091
   36DOPE   H3R 4552   5.776   5.093   2.441  2.2234  1.4555 -1.4972
   36DOPE   H3S 4553   5.629   5.137   2.536 -0.6775  1.5044  0.0251
   36DOPE   C24 4554   5.793   5.270   2.546  0.1125 -0.0266  0.3982
   36DOPE   H4R 4555   5.746   5.371   2.552  1.0430  0.5403 -1.1961
   36DOPE   H4S 4556   5.894   5.269   2.502  0.0536 -0.6202  0.2723
   36DOPE   C25 4557   5.811   5.211   2.689 -0.1210  0.0650  0.1837
   36DOPE   H5R 4558   5.905   5.256   2.728  0.0899  0.7165 -1.0448
   36DOPE   H5S 4559   5.834   5.104   2.675 -1.4311  0.1285 -3.1389
   36DOPE   C26 4560   5.704   5.241   2.801 -0.0655 -0.2624  0.4599
   36DOPE   H6R 4561   5.609   5.184   2.789  1.6356 -3.2001 -0.3095
   36DOPE   H6S 4562   5.676   5.348   2.794  0.6042 -0.1765 -1.7998
   36DOPE   C27 4563   5.752   5.188   2.933 -0.0549 -0.7593 -0.4252
   36DOPE   H7R 4564   5.852   5.232   2.953  0.2331 -0.8468 -1.5592
   36DOPE   H7S 4565   5.766   5.078   2.925  2.4421 -0.6046  0.7410
   36DOPE   C28 4566   5.662   5.226   3.054 -0.7721  0.5530  0.4267
   36DOPE   H8R 4567   5.637   5.334   3.054 -0.8502  0.5631 -1.4980
   36DOPE   H8S 4568   5.728   5.212   3.143  2.6249 -1.0054 -2.0969
   36DOPE   C29 4569   5.534   5.144   3.050  0.3157 -0.0834 -0.1036
   36DOPE   H9R 4570   5.461   5.171   2.973  1.0166 -0.5118 -0.9343
   36DOPE  C210 4571   5.494   5.040   3.127  0.2893  0.0404 -0.1154
   36DOPE  H10R 4572   5.395   4.994   3.111  0.9318 -0.7123 -2.2928
   36DOPE  C211 4573   5.577   4.991   3.241  0.0143  0.6581 -0.4179
   36DOPE  H11R 4574   5.685   5.015   3.229  0.6373  0.1459  2.9468
   36DOPE  H11S 4575   5.569   4.880   3.239 -0.2648  0.6213  1.3431
   36DOPE  C212 4576   5.532   5.032   3.378  0.3523 -0.0447 -0.0176
   36DOPE  H12R 4577   5.606   4.989   3.449  0.4875  0.6869  0.2903
   36DOPE  H12S 4578   5.434   4.987   3.403  0.5962 -0.3348  0.4285
   36DOPE  C213 4579   5.534   5.182   3.403  0.1700  0.3995 -0.1486
   36DOPE  H13R 4580   5.435   5.216   3.367 -1.0614 -2.4343  0.2327
   36DOPE  H13S 4581   5.618   5.223   3.343  0.9172  0.6315  1.0077
   36DOPE  C214 4582   5.556   5.215   3.552  0.4144  0.3421  0.2102
   36DOPE  H14R 4583   5.579   5.323   3.555 -1.9068  0.8566  0.5171
   36DOPE  H14S 4584   5.645   5.155   3.583 -0.1797 -0.4297  0.4624
   36DOPE  C215 4585   5.451   5.179   3.655 -0.7572  0.4415  0.7229
   36DOPE  H15R 4586   5.418   5.073   3.643  1.2871 -0.0213 -1.4673
   36DOPE  H15S 4587   5.364   5.248   3.649 -2.2086 -1.4128 -0.9360
   36DOPE  C216 4588   5.522   5.165   3.794  0.6739  0.2405  0.4310
   36DOPE  H16R 4589   5.585   5.255   3.809 -0.0410  0.8868 -0.3967
   36DOPE  H16S 4590   5.599   5.085   3.797 -0.4015 -0.8815 -0.5445
   36DOPE  C217 4591   5.427   5.144   3.912  0.9194 -0.0365 -0.2312
   36DOPE  H17R 4592   5.390   5.039   3.915  1.4264 -0.2130 -0.1961
   36DOPE  H17S 4593   5.341   5.214   3.902  0.4939 -0.5109  0.0643
   36DOPE  C218 4594   5.483   5.183   4.049 -0.0851  0.2093  0.0099
   36DOPE  H18R 4595   5.513   5.290   4.052  0.8443 -0.0421 -0.0681
   36DOPE  H18S 4596   5.574   5.121   4.063 -0.0361  0.3344  0.2515
   36DOPE  H18T 4597   5.411   5.172   4.133 -0.4656  0.6631 -0.2540
   36DOPE   C33 4598   5.929   5.666   2.590  0.3175 -0.2527 -0.1446
   36DOPE   H3X 4599   5.825   5.641   2.560  0.3073 -1.5305  0.8581
   36DOPE   H3Y 4600   5.971   5.755   2.538  2.3682 -1.5397 -0.7909
   36DOPE   C34 4601   5.925   5.675   2.739 -0.3568  0.4846  0.1175
   36DOPE   H4X 4602   6.027   5.674   2.783 -0.8107 -1.8792  1.2856
   36DOPE   H4Y 4603   5.870   5.768   2.766 -1.6617 -0.1730 -0.2181
   36DOPE   C35 4604   5.847   5.566   2.815 -0.0985  0.3382  0.2132
   36DOPE   H5X 4605   5.890   5.466   2.794 -2.6977 -0.9971  0.9397
   36DOPE   H5Y 4606   5.743   5.560   2.776  0.5309 -2.3960 -1.2968
   36DOPE   C36 4607   5.867   5.581   2.967  0.4239  0.4449  0.5982
   36DOPE   H6X 4608   5.791   5.510   3.006  1.1481 -0.7352 -0.0804
   36DOPE   H6Y 4609   5.853   5.682   3.010 -3.1443  0.5229 -0.4017
   36DOPE   C37 4610   5.996   5.528   3.017 -0.3108 -0.2664  0.2665
   36DOPE   H7X 4611   6.030   5.449   2.947 -0.5764 -0.4335  0.3247
   36DOPE   H7Y 4612   6.056   5.622   3.011 -1.9591  0.7548 -1.1271
   36DOPE   C38 4613   5.997   5.475   3.161  0.9278 -0.3122 -0.7685
   36DOPE   H8X 4614   6.096   5.443   3.199  0.5940  1.2427  1.6437
   36DOPE   H8Y 4615   5.927   5.389   3.162 -0.7062  0.9766 -0.2607
   36DOPE   C39 4616   5.954   5.594   3.252 -0.3522  0.8579  0.2098
   36DOPE   H9X 4617   5.849   5.626   3.257  0.0137  1.9822  1.0606
   36DOPE  C310 4618   6.028   5.644   3.349 -0.4515  0.1206 -0.0369
   36DOPE  H10X 4619   5.993   5.732   3.404  0.6764 -1.2091  3.0222
   36DOPE  C311 4620   6.169   5.593   3.384  0.5207  0.6827 -0.2368
   36DOPE  H11X 4621   6.227   5.571   3.292  1.7871  0.3259  0.6203
   36DOPE  H11Y 4622   6.226   5.675   3.433  0.5096  0.3452  0.3513
   36DOPE  C312 4623   6.174   5.476   3.479  0.4233  0.1207  0.2931
   36DOPE  H12X 4624   6.277   5.445   3.508  0.5559 -0.5852 -0.8609
   36DOPE  H12Y 4625   6.139   5.393   3.414 -0.7490  1.1275 -0.4116
   36DOPE  C313 4626   6.074   5.486   3.597  0.1589  0.0558  0.2292
   36DOPE  H13X 4627   6.110   5.568   3.664  1.4274 -0.8965  0.7525
   36DOPE  H13Y 4628   5.973   5.515   3.562  0.4882 -0.0079 -0.7840
   36DOPE  C314 4629   6.042   5.358   3.675  0.0841 -0.3053  0.8549
   36DOPE  H14X 4630   6.139   5.313   3.708 -0.0573 -1.3289 -0.0611
   36DOPE  H14Y 4631   6.007   5.277   3.608 -0.2872  0.9204 -0.4943
   36DOPE  C315 4632   5.955   5.386   3.796  0.3973  0.1052 -0.2194
   36DOPE  H15X 4633   5.858   5.417   3.750  0.2681 -0.0681 -0.0648
   36DOPE  H15Y 4634   5.992   5.465   3.865  0.4309  1.4647 -1.7470
   36DOPE  C316 4635   5.964   5.264   3.890  0.1954 -0.4517  0.0026
   36DOPE  H16X 4636   5.903   5.301   3.976  2.3554  1.8167  0.6706
   36DOPE  H16Y 4637   6.066   5.238   3.926  0.5003 -1.2774 -1.3891
   36DOPE  C317 4638   5.918   5.128   3.824  0.5334 -0.2265 -0.4607
   36DOPE  H17X 4639   5.834   5.142   3.754 -0.3763 -1.6442  0.3068
   36DOPE  H17Y 4640   6.002   5.101   3.757 -0.1107  0.7709 -1.7042
   36DOPE  C318 4641   5.878   5.012   3.920 -0.1026 -0.2711 -0.1533
   36DOPE  H18X 4642   5.786   5.040   3.975  0.7891  1.7272  0.4501
   36DOPE  H18Y 4643   5.865   4.923   3.856 -0.8915 -0.1724 -0.1315
   36DOPE  H18Z 4644   5.962   4.997   3.991 -0.4993 -3.9587 -0.3040
   37DOPE     N 4645   1.084   2.809   2.541  0.7532  0.1691  0.0369
   37DOPE   HN1 4646   1.011   2.829   2.470  0.4042  2.3006  0.9149
   37DOPE   HN2 4647   1.183   2.805   2.508  0.6715 -0.0697 -0.1809
   37DOPE   HN3 4648   1.054   2.720   2.587 -0.2239  0.9389  0.9336
   37DOPE   C12 4649   1.072   2.919   2.641  0.2105 -0.3302 -0.3527
   37DOPE  H12A 4650   0.971   2.911   2.685  0.2889  2.8965  0.6566
   37DOPE  H12B 4651   1.073   3.020   2.595 -0.6263  0.8808  2.1479
   37DOPE   C11 4652   1.180   2.917   2.750 -0.5354 -0.1221  0.0511
   37DOPE  H11A 4653   1.161   2.843   2.831  2.6470  0.7510  1.7715
   37DOPE  H11B 4654   1.168   3.007   2.813  0.4405  0.4830 -0.6101
   37DOPE     P 4655   1.402   3.028   2.666 -0.1260 -0.3390  0.0332
   37DOPE   O13 4656   1.324   3.131   2.594  0.5140  0.3706  0.9593
   37DOPE   O14 4657   1.529   2.991   2.602 -0.2628 -0.1438  0.3594
   37DOPE   O11 4658   1.438   3.071   2.815 -0.4683  0.3646  0.4743
   37DOPE   O12 4659   1.314   2.897   2.693  0.4243  0.0256  0.4444
   37DOPE    C1 4660   1.511   2.995   2.905  0.1880  0.0627 -0.3544
   37DOPE    HA 4661   1.618   2.997   2.876  0.1038  0.6041 -0.6358
   37DOPE    HB 4662   1.462   2.895   2.909  2.3983 -1.1211 -1.2811
   37DOPE    C2 4663   1.491   3.058   3.044  0.2818  0.1921 -0.6828
   37DOPE    HS 4664   1.548   3.154   3.048  2.2632 -0.9967  1.3392
   37DOPE   O21 4665   1.524   2.969   3.155 -0.2176 -0.4781  0.1850
   37DOPE   C21 4666   1.655   2.944   3.165  0.7059  0.4269 -0.9406
   37DOPE   O22 4667   1.740   2.985   3.089  0.1807  0.4256  0.0701
   37DOPE   C22 4668   1.678   2.833   3.271 -0.2554 -0.4367 -0.0393
   37DOPE   H2R 4669   1.618   2.743   3.245 -1.4453 -0.5104  2.6172
   37DOPE   H2S 4670   1.637   2.868   3.368 -0.6266 -1.9137  0.3525
   37DOPE    C3 4671   1.340   3.105   3.062 -0.1297  0.5662  0.2206
   37DOPE    HX 4672   1.276   3.021   3.027 -0.0835  0.6770 -0.1352
   37DOPE    HY 4673   1.325   3.191   2.993  1.5106  0.0394 -0.8765
   37DOPE   O31 4674   1.315   3.146   3.196  0.1808 -0.6934 -0.0912
   37DOPE   C31 4675   1.198   3.117   3.246  0.5424 -0.4854 -0.4151
   37DOPE   O32 4676   1.106   3.063   3.190  0.6114  0.0943 -0.0092
   37DOPE   C32 4677   1.200   3.153   3.396 -0.0530  0.1012  0.2426
   37DOPE   H2X 4678   1.301   3.164   3.440 -0.4381  0.5483  1.0223
   37DOPE   H2Y 4679   1.155   3.254   3.398 -1.9546 -0.6920 -0.0576
   37DOPE   C23 4680   1.832   2.810   3.288  0.5230  0.2076  0.4472
   37DOPE   H3R 4681   1.897   2.900   3.286  1.9169 -0.7370  1.5189
   37DOPE   H3S 4682   1.868   2.769   3.191 -0.6740  1.4253 -0.5413
   37DOPE   C24 4683   1.863   2.707   3.394 -0.0214  0.2993 -0.3351
   37DOPE   H4R 4684   1.959   2.652   3.389 -1.3058 -2.0699  0.0052
   37DOPE   H4S 4685   1.794   2.621   3.383 -0.9959  0.6561  2.2397
   37DOPE   C25 4686   1.837   2.763   3.537  1.2493  0.9241 -0.2357
   37DOPE   H5R 4687   1.729   2.788   3.546  0.2313 -1.5705 -3.4700
   37DOPE   H5S 4688   1.891   2.858   3.551  0.6644  1.1835  0.3084
   37DOPE   C26 4689   1.864   2.653   3.648 -0.0093  0.4899 -0.5370
   37DOPE   H6R 4690   1.973   2.634   3.662 -0.4934 -2.3392 -0.0552
   37DOPE   H6S 4691   1.818   2.558   3.616  1.7692 -0.7200  0.2997
   37DOPE   C27 4692   1.813   2.699   3.788  0.9954 -0.1542 -0.4069
   37DOPE   H7R 4693   1.702   2.697   3.782  1.0081 -0.8793 -0.4199
   37DOPE   H7S 4694   1.844   2.803   3.814 -0.2635  0.4870 -1.3288
   37DOPE   C28 4695   1.840   2.595   3.899 -0.0959  0.1610 -0.1895
   37DOPE   H8R 4696   1.839   2.490   3.863 -0.7217  0.2383 -0.4184
   37DOPE   H8S 4697   1.752   2.604   3.966 -0.5460 -1.1050 -0.5842
   37DOPE   C29 4698   1.958   2.616   3.990  0.0052 -0.2151  0.6716
   37DOPE   H9R 4699   2.050   2.605   3.929 -1.1186  1.3615 -1.4666
   37DOPE  C210 4700   1.963   2.654   4.117  0.4220 -0.5263  0.2128
   37DOPE  H10R 4701   2.065   2.674   4.155  0.3196 -0.4740  0.4601
   37DOPE  C211 4702   1.858   2.685   4.216 -0.0177 -0.2984 -0.1651
   37DOPE  H11R 4703   1.824   2.585   4.249 -0.1747 -0.7776 -1.6782
   37DOPE  H11S 4704   1.778   2.752   4.177  1.5243  0.7425 -1.6873
   37DOPE  C212 4705   1.919   2.756   4.345 -0.0828 -0.1541 -0.4693
   37DOPE  H12R 4706   1.981   2.675   4.387  0.5279  1.3014  1.5452
   37DOPE  H12S 4707   1.837   2.772   4.418 -0.0696  1.3804 -0.7455
   37DOPE  C213 4708   1.990   2.887   4.343 -0.5977  0.2088  0.1063
   37DOPE  H13R 4709   1.930   2.971   4.301  0.5541  1.4504  0.8407
   37DOPE  H13S 4710   2.084   2.889   4.283 -0.3098  0.1716  0.5551
   37DOPE  C214 4711   2.026   2.927   4.484 -0.4498  0.5873  0.9083
   37DOPE  H14R 4712   1.955   2.896   4.564 -0.7277 -1.3227 -0.0268
   37DOPE  H14S 4713   2.023   3.038   4.495  0.0538  0.6560  0.3766
   37DOPE  C215 4714   2.167   2.888   4.510  0.5359 -0.4386 -0.3790
   37DOPE  H15R 4715   2.240   2.922   4.433 -0.4968 -0.0465 -1.2219
   37DOPE  H15S 4716   2.186   2.779   4.506  3.6513  0.0372 -1.3195
   37DOPE  C216 4717   2.214   2.933   4.652  0.0514 -0.0496  0.7389
   37DOPE  H16R 4718   2.138   2.918   4.731  1.4245  2.7775  2.7800
   37DOPE  H16S 4719   2.216   3.043   4.636 -0.1881 -0.2240 -0.6425
   37DOPE  C217 4720   2.357   2.884   4.693 -0.2808 -0.4008  0.3846
   37DOPE  H17R 4721   2.439   2.907   4.622 -0.8635  1.6685  0.3188
   37DOPE  H17S 4722   2.356   2.776   4.716 -1.2604  0.0134  2.5277
   37DOPE  C218 4723   2.405   2.950   4.820  0.4314 -0.4398 -0.1608
   37DOPE  H18R 4724   2.346   2.911   4.905 -0.5637 -1.6435 -1.3669
   37DOPE  H18S 4725   2.377   3.057   4.822 -2.9506 -1.2117  0.1299
   37DOPE  H18T 4726   2.516   2.949   4.834  0.2881  1.9698  1.8220
   37DOPE   C33 4727   1.131   3.052   3.491  0.2019 -1.1621 -0.1746
   37DOPE   H3X 4728   1.190   2.958   3.492  1.0642 -0.6333  1.1178
   37DOPE   H3Y 4729   1.027   3.025   3.459 -0.8379  0.8682  1.2782
   37DOPE   C34 4730   1.123   3.108   3.629 -0.4126 -0.4112 -0.1384
   37DOPE   H4X 4731   1.220   3.149   3.664 -0.1478 -2.1558  1.2640
   37DOPE   H4Y 4732   1.053   3.194   3.641  1.1773  0.8204  0.7570
   37DOPE   C35 4733   1.083   2.997   3.735  0.0085 -0.8005 -0.6375
   37DOPE   H5X 4734   1.158   2.916   3.730 -1.1626 -1.9478 -0.2572
   37DOPE   H5Y 4735   0.983   2.955   3.706 -0.5595  0.1309 -0.0742
   37DOPE   C36 4736   1.076   3.055   3.869 -0.6630 -0.5450  0.2507
   37DOPE   H6X 4737   0.990   3.124   3.881 -1.4897 -1.5161  0.0209
   37DOPE   H6Y 4738   1.161   3.121   3.898 -1.3146  0.5092 -0.1946
   37DOPE   C37 4739   1.056   2.947   3.974 -0.3228  0.2372  0.1031
   37DOPE   H7X 4740   0.985   2.881   3.920 -0.0015  1.0172 -1.3415
   37DOPE   H7Y 4741   1.155   2.899   3.989  0.8221  2.2097 -0.7374
   37DOPE   C38 4742   0.981   2.977   4.107  0.1880  0.0249 -0.2526
   37DOPE   H8X 4743   0.940   2.881   4.146  2.3263 -0.3474  1.2795
   37DOPE   H8Y 4744   0.896   3.046   4.088 -0.5917 -0.4464  1.3789
   37DOPE   C39 4745   1.088   3.033   4.194 -0.0462  0.4571  0.6123
   37DOPE   H9X 4746   1.187   3.059   4.154 -1.1230  0.0028 -2.5751
   37DOPE  C310 4747   1.071   3.048   4.325 -0.3650  0.3996  0.3689
   37DOPE  H10X 4748   1.156   3.090   4.381 -0.0084 -1.7191  1.5148
   37DOPE  C311 4749   0.944   3.015   4.411  0.3007 -0.3957  0.1139
   37DOPE  H11X 4750   0.874   2.944   4.361  0.8857 -1.5903  0.9476
   37DOPE  H11Y 4751   0.977   2.961   4.502 -0.4936 -0.2256  0.5111
   37DOPE  C312 4752   0.850   3.135   4.447 -0.2420 -0.2062  0.3985
   37DOPE  H12X 4753   0.767   3.100   4.512  0.4850 -2.0622  0.3874
   37DOPE  H12Y 4754   0.810   3.178   4.353  1.9992 -0.3374 -0.6636
   37DOPE  C313 4755   0.916   3.259   4.513 -0.4261 -0.0275  0.1524
   37DOPE  H13X 4756   0.980   3.231   4.599 -1.1298 -0.1696  0.6378
   37DOPE  H13Y 4757   0.991   3.302   4.442 -0.5317  0.7628  0.5086
   37DOPE  C314 4758   0.808   3.359   4.566 -0.3248 -0.4248  0.0210
   37DOPE  H14X 4759   0.725   3.362   4.492  0.0236 -0.5635 -0.3803
   37DOPE  H14Y 4760   0.847   3.462   4.575  0.4604 -0.9002  3.8261
   37DOPE  C315 4761   0.746   3.327   4.702  0.2164 -0.2171  0.5021
   37DOPE  H15X 4762   0.826   3.331   4.779  0.8269  1.6165 -0.1917
   37DOPE  H15Y 4763   0.704   3.223   4.704  1.0958 -0.5741  0.8521
   37DOPE  C316 4764   0.638   3.426   4.744 -0.3627  0.0936  0.1595
   37DOPE  H16X 4765   0.654   3.529   4.707 -0.1899  0.0853  0.2090
   37DOPE  H16Y 4766   0.621   3.432   4.854 -0.1230 -1.7774  0.3498
   37DOPE  C317 4767   0.509   3.378   4.686  0.0854  0.1304 -0.4372
   37DOPE  H17X 4768   0.525   3.391   4.577  1.8752 -1.4179 -0.4092
   37DOPE  H17Y 4769   0.482   3.277   4.722  1.5399  0.3157  1.2737
   37DOPE  C318 4770   0.399   3.477   4.724  0.1694 -0.3272  0.1053
   37DOPE  H18X 4771   0.395   3.469   4.835  2.6438 -4.9328  0.0736
   37DOPE  H18Y 4772   0.426   3.581   4.695  0.6465 -0.6606 -0.6492
   37DOPE  H18Z 4773   0.296   3.453   4.689 -0.4165 -1.1550  2.2077
   38DOPE     N 4774   5.545   7.325   1.966 -0.3522  0.1086  0.3000
   38DOPE   HN1 4775   5.571   7.250   2.033  1.0911  1.1174  0.9334
   38DOPE   HN2 4776   5.585   7.416   1.996  2.0339 -1.2049  1.3559
   38DOPE   HN3 4777   5.443   7.343   1.966 -0.0283  2.5445 -1.2397
   38DOPE   C12 4778   5.587   7.281   1.834 -0.2148  0.0616 -0.4330
   38DOPE  H12A 4779   5.684   7.329   1.809  0.1588 -0.3783  0.1577
   38DOPE  H12B 4780   5.511   7.314   1.759 -0.3286 -1.0214 -0.8078
   38DOPE   C11 4781   5.583   7.132   1.820 -0.4030 -0.7203 -0.1229
   38DOPE  H11A 4782   5.658   7.083   1.887 -0.9492 -0.5763  0.6087
   38DOPE  H11B 4783   5.609   7.102   1.716  1.0609  0.6674 -0.1816
   38DOPE     P 4784   5.394   7.004   1.969 -0.1875  0.0328 -0.1638
   38DOPE   O13 4785   5.403   6.855   1.939  0.4344 -0.3244 -0.2355
   38DOPE   O14 4786   5.255   7.053   1.994  0.0897 -0.2933 -0.5299
   38DOPE   O11 4787   5.503   7.062   2.073  0.4271  0.0030  0.0629
   38DOPE   O12 4788   5.447   7.074   1.837 -0.0298 -0.3878 -0.0290
   38DOPE    C1 4789   5.574   6.965   2.157 -0.1765  0.2162 -0.4616
   38DOPE    HA 4790   5.677   7.002   2.176 -0.0863 -0.6723  0.8772
   38DOPE    HB 4791   5.586   6.868   2.104 -1.7493 -0.0163 -0.4477
   38DOPE    C2 4792   5.501   6.925   2.293 -0.1691 -0.3655 -0.2594
   38DOPE    HS 4793   5.395   6.901   2.268 -0.2984 -1.7916  1.4908
   38DOPE   O21 4794   5.512   7.042   2.375  0.5795  0.1224  0.4161
   38DOPE   C21 4795   5.411   7.058   2.458  0.1971  0.2751 -0.5131
   38DOPE   O22 4796   5.304   7.002   2.460  0.0411  0.0880 -0.5224
   38DOPE   C22 4797   5.456   7.165   2.558  0.2686 -0.0875  0.1133
   38DOPE   H2R 4798   5.463   7.258   2.499  3.8391 -1.1682 -1.4586
   38DOPE   H2S 4799   5.554   7.133   2.600 -0.5092  1.3994  3.4038
   38DOPE    C3 4800   5.572   6.799   2.359  0.7012 -0.4352  0.0431
   38DOPE    HX 4801   5.678   6.831   2.374  0.7757 -0.1881 -0.9407
   38DOPE    HY 4802   5.577   6.714   2.287  1.8220 -0.9504  0.6871
   38DOPE   O31 4803   5.506   6.762   2.483  0.1695  0.0970 -0.1317
   38DOPE   C31 4804   5.401   6.681   2.474  0.1391 -0.0777  0.1736
   38DOPE   O32 4805   5.366   6.626   2.370 -0.2364  0.0702 -0.0377
   38DOPE   C32 4806   5.353   6.643   2.617  0.1568  0.1404 -0.3737
   38DOPE   H2X 4807   5.333   6.534   2.614 -2.4300  0.5614 -2.1621
   38DOPE   H2Y 4808   5.431   6.666   2.693  2.2407 -2.3637 -1.5803
   38DOPE   C23 4809   5.365   7.177   2.683 -0.5594  0.5851  0.0433
   38DOPE   H3R 4810   5.420   7.233   2.761  0.6404  0.7138 -0.8639
   38DOPE   H3S 4811   5.342   7.076   2.725 -1.0812  0.7688  0.2076
   38DOPE   C24 4812   5.231   7.251   2.662  0.3933 -0.1112 -0.6179
   38DOPE   H4R 4813   5.167   7.189   2.595 -1.1904  0.9061 -0.0848
   38DOPE   H4S 4814   5.255   7.351   2.619  1.8386 -0.5583 -0.9252
   38DOPE   C25 4815   5.143   7.265   2.785 -0.1974  0.2501  0.6123
   38DOPE   H5R 4816   5.038   7.270   2.750 -0.0207 -0.3474 -0.0239
   38DOPE   H5S 4817   5.157   7.365   2.831 -0.3842 -0.1895  1.6470
   38DOPE   C26 4818   5.167   7.169   2.904  0.1879  0.1470  0.0912
   38DOPE   H6R 4819   5.266   7.201   2.942 -0.2439  1.9848 -0.1994
   38DOPE   H6S 4820   5.172   7.068   2.857 -0.7040 -0.3377  1.0146
   38DOPE   C27 4821   5.068   7.169   3.022  0.6408 -0.1682  0.3530
   38DOPE   H7R 4822   4.970   7.128   2.987  1.4390 -1.7001 -0.2026
   38DOPE   H7S 4823   5.055   7.275   3.053 -1.9456 -0.4664  0.5351
   38DOPE   C28 4824   5.114   7.088   3.147  0.0681 -0.0462 -0.1268
   38DOPE   H8R 4825   5.204   7.144   3.181 -0.2149  0.2184  0.1918
   38DOPE   H8S 4826   5.129   6.981   3.118 -1.8942 -0.9586  1.9514
   38DOPE   C29 4827   5.001   7.103   3.240 -0.1330 -0.0007 -0.2955
   38DOPE   H9R 4828   4.908   7.138   3.194  0.7093  0.1755 -1.9606
   38DOPE  C210 4829   5.001   7.057   3.361  0.6307  0.4645 -0.9496
   38DOPE  H10R 4830   4.904   7.054   3.413  1.7838 -0.3381  1.2795
   38DOPE  C211 4831   5.116   6.983   3.424 -0.0343 -0.2840 -0.0475
   38DOPE  H11R 4832   5.181   7.046   3.488  0.2285 -0.5581 -0.0469
   38DOPE  H11S 4833   5.188   6.944   3.350  0.4654 -0.4276  0.5120
   38DOPE  C212 4834   5.073   6.866   3.517  0.7063  1.2955 -0.3596
   38DOPE  H12R 4835   5.150   6.786   3.527 -2.8928 -2.3371  0.9378
   38DOPE  H12S 4836   4.989   6.810   3.471  0.9705 -0.7571  1.5175
   38DOPE  C213 4837   5.034   6.925   3.653  0.4289  0.3964 -0.1991
   38DOPE  H13R 4838   4.934   6.971   3.642  0.6749  0.6869 -1.2946
   38DOPE  H13S 4839   5.105   7.003   3.689  1.2445 -0.7705  0.8253
   38DOPE  C214 4840   5.021   6.823   3.770  0.2113  0.0675  0.1034
   38DOPE  H14R 4841   5.118   6.767   3.773  0.7212  0.9539  0.4670
   38DOPE  H14S 4842   4.938   6.754   3.745  0.4905  0.3885 -1.8397
   38DOPE  C215 4843   5.001   6.903   3.895 -0.1343  0.1398 -0.3789
   38DOPE  H15R 4844   4.908   6.961   3.877  0.6978  1.3681 -0.8398
   38DOPE  H15S 4845   5.095   6.954   3.925 -0.5069  0.9792 -0.6151
   38DOPE  C216 4846   4.959   6.799   4.003  0.1647 -0.5384  1.1740
   38DOPE  H16R 4847   4.878   6.734   3.963  0.3977 -1.3938  2.0412
   38DOPE  H16S 4848   4.910   6.848   4.089 -1.9059  0.0576 -0.2881
   38DOPE  C217 4849   5.076   6.706   4.054 -0.7326 -0.0799 -0.1166
   38DOPE  H17R 4850   5.161   6.769   4.086  0.3614 -0.2483 -2.4873
   38DOPE  H17S 4851   5.123   6.655   3.967 -0.2277 -0.0964  0.1622
   38DOPE  C218 4852   5.035   6.591   4.148 -0.3197 -0.1037  0.4469
   38DOPE  H18R 4853   4.961   6.534   4.089  1.8396 -1.4318 -1.1300
   38DOPE  H18S 4854   4.995   6.629   4.244 -2.6379  1.7739 -1.1489
   38DOPE  H18T 4855   5.118   6.518   4.157 -0.4356 -0.1409  1.2872
   38DOPE   C33 4856   5.218   6.703   2.654  0.0584 -0.3509  0.2353
   38DOPE   H3X 4857   5.143   6.655   2.587  2.2397 -1.6081 -1.4680
   38DOPE   H3Y 4858   5.219   6.814   2.645  0.5538 -0.3943 -0.2921
   38DOPE   C34 4859   5.193   6.675   2.797  0.6134  0.1185 -0.8505
   38DOPE   H4X 4860   5.186   6.565   2.811 -0.1492  0.3506  0.8173
   38DOPE   H4Y 4861   5.274   6.704   2.868 -0.5601  0.9587  0.1891
   38DOPE   C35 4862   5.062   6.731   2.850 -0.6013  0.6723  0.2262
   38DOPE   H5X 4863   4.978   6.698   2.785 -0.6736 -1.3275  1.2382
   38DOPE   H5Y 4864   5.074   6.841   2.862  0.8225  0.7489 -1.5335
   38DOPE   C36 4865   5.034   6.678   2.992  0.1558  0.3133 -0.4022
   38DOPE   H6X 4866   5.110   6.711   3.065 -1.4230  1.2480  0.8963
   38DOPE   H6Y 4867   5.028   6.567   2.996 -1.1601  0.3708 -0.1862
   38DOPE   C37 4868   4.898   6.733   3.037  0.0131  0.4881 -0.8668
   38DOPE   H7X 4869   4.905   6.844   3.047 -0.4029  0.4848 -0.4775
   38DOPE   H7Y 4870   4.821   6.699   2.965  1.1712  1.6890 -2.7523
   38DOPE   C38 4871   4.871   6.686   3.193 -0.4747  0.1323  0.0221
   38DOPE   H8X 4872   4.784   6.741   3.235  1.1776  1.8472  1.3694
   38DOPE   H8Y 4873   4.957   6.704   3.261  1.1060 -2.7761 -1.0450
   38DOPE   C39 4874   4.829   6.546   3.194  0.1235 -0.1019  0.4951
   38DOPE   H9X 4875   4.733   6.528   3.143  0.3943  1.1023 -0.4969
   38DOPE  C310 4876   4.890   6.443   3.247  0.2028  0.5983  0.1799
   38DOPE  H10X 4877   4.834   6.349   3.248 -0.2547  0.8422 -0.9770
   38DOPE  C311 4878   5.018   6.452   3.320 -0.0329 -0.1210 -0.3931
   38DOPE  H11X 4879   5.090   6.462   3.235 -1.2237 -3.1815 -1.9120
   38DOPE  H11Y 4880   5.025   6.542   3.384  1.4143 -0.2290 -0.3738
   38DOPE  C312 4881   5.051   6.334   3.417 -0.1176  0.2961  0.0765
   38DOPE  H12X 4882   5.021   6.233   3.382 -0.2959  0.4464 -0.2099
   38DOPE  H12Y 4883   4.997   6.341   3.514 -2.7484 -1.7342 -1.0973
   38DOPE  C313 4884   5.200   6.319   3.441  0.4135  0.8946  0.7255
   38DOPE  H13X 4885   5.256   6.302   3.346  1.7766  1.3999  1.4156
   38DOPE  H13Y 4886   5.235   6.420   3.473  0.4557  0.8737  0.7456
   38DOPE  C314 4887   5.221   6.211   3.545 -0.6471 -0.2523 -0.2395
   38DOPE  H14X 4888   5.194   6.115   3.495  3.3803 -0.8263 -1.7408
   38DOPE  H14Y 4889   5.147   6.225   3.626 -0.7711  2.3072 -0.7039
   38DOPE  C315 4890   5.364   6.200   3.604 -0.1804 -0.0502 -0.0964
   38DOPE  H15X 4891   5.388   6.307   3.624 -1.1291  0.3225 -0.8781
   38DOPE  H15Y 4892   5.421   6.180   3.511  0.6110  2.0244 -0.1071
   38DOPE  C316 4893   5.375   6.105   3.719 -0.5213  0.7785 -0.2951
   38DOPE  H16X 4894   5.302   6.143   3.794 -1.7847  0.2707 -1.2458
   38DOPE  H16Y 4895   5.480   6.122   3.753 -0.6699  1.1082  0.0054
   38DOPE  C317 4896   5.360   5.953   3.682  0.3862  0.0028 -0.3566
   38DOPE  H17X 4897   5.400   5.918   3.585 -1.6249  1.0271 -1.6409
   38DOPE  H17Y 4898   5.418   5.899   3.760 -0.6916  0.9460  1.1704
   38DOPE  C318 4899   5.213   5.907   3.685 -0.4551  0.4775  0.4523
   38DOPE  H18X 4900   5.201   5.824   3.612  1.3643 -0.1997  0.8716
   38DOPE  H18Y 4901   5.172   5.872   3.783  1.4821  0.6202  1.3611
   38DOPE  H18Z 4902   5.147   5.992   3.660 -0.5718  0.4958  0.8219
   39DOPE     N 4903   6.907   2.900   2.297  0.3670  0.7151  0.4627
   39DOPE   HN1 4904   6.978   2.865   2.230  0.5005 -1.0000  1.4457
   39DOPE   HN2 4905   6.858   2.982   2.255 -1.9054 -1.1692 -0.8112
   39DOPE   HN3 4906   6.958   2.926   2.384 -0.1383  0.4627  0.8376
   39DOPE   C12 4907   6.804   2.799   2.340  1.0071  0.4269 -0.1847
   39DOPE  H12A 4908   6.860   2.711   2.377 -0.9180 -0.4862  0.6578
   39DOPE  H12B 4909   6.731   2.783   2.258  0.4146  1.3721  0.1464
   39DOPE   C11 4910   6.729   2.855   2.462 -0.0083 -0.4713 -0.2795
   39DOPE  H11A 4911   6.806   2.856   2.542 -2.5531 -1.9192  2.4428
   39DOPE  H11B 4912   6.640   2.793   2.488 -0.2833 -0.0211 -0.1322
   39DOPE     P 4913   6.544   3.038   2.380 -0.1816  0.0940 -0.0824
   39DOPE   O13 4914   6.473   2.929   2.312 -0.1302 -0.0272 -0.7736
   39DOPE   O14 4915   6.564   3.166   2.312  0.4820 -0.6798  0.2551
   39DOPE   O11 4916   6.472   3.068   2.519 -0.2700 -0.1997 -0.0569
   39DOPE   O12 4917   6.683   2.988   2.434  0.2757  0.3047 -0.0392
   39DOPE    C1 4918   6.560   3.122   2.620 -0.5233 -0.1021 -0.2119
   39DOPE    HA 4919   6.495   3.194   2.675  0.2438  1.9427 -1.8548
   39DOPE    HB 4920   6.646   3.180   2.581 -0.9242  0.1153 -0.7813
   39DOPE    C2 4921   6.616   3.016   2.725  0.1589 -0.4854 -0.3338
   39DOPE    HS 4922   6.621   2.923   2.664  0.8366  1.8516 -4.1943
   39DOPE   O21 4923   6.523   3.015   2.837  0.1189  0.2035 -0.3055
   39DOPE   C21 4924   6.483   2.891   2.873  0.1742 -0.3382  0.2584
   39DOPE   O22 4925   6.556   2.795   2.858 -0.6637 -0.6640 -0.8895
   39DOPE   C22 4926   6.345   2.899   2.936 -0.2180  0.0220  0.3722
   39DOPE   H2R 4927   6.266   2.866   2.865 -0.2329 -2.7227  1.5097
   39DOPE   H2S 4928   6.317   3.004   2.958  1.4546  0.5693  0.0104
   39DOPE    C3 4929   6.753   3.052   2.790  0.0477  0.1762 -0.2281
   39DOPE    HX 4930   6.734   3.125   2.871 -0.7611  0.2823 -0.5003
   39DOPE    HY 4931   6.814   3.091   2.706 -0.1155 -0.2821 -0.5647
   39DOPE   O31 4932   6.810   2.926   2.833  0.3338 -0.5613 -1.2475
   39DOPE   C31 4933   6.923   2.946   2.897 -0.2465  0.3810  0.0632
   39DOPE   O32 4934   6.976   3.055   2.914  0.1871  0.3533 -0.2934
   39DOPE   C32 4935   6.976   2.813   2.961 -0.1463  1.0082  0.2618
   39DOPE   H2X 4936   6.918   2.782   3.051  0.0563  0.1936  0.1137
   39DOPE   H2Y 4937   6.955   2.743   2.878  3.0217 -0.0097  0.1899
   39DOPE   C23 4938   6.341   2.807   3.062  0.3238 -0.7846 -0.3063
   39DOPE   H3R 4939   6.415   2.845   3.135  1.7023  0.3836 -2.1886
   39DOPE   H3S 4940   6.380   2.710   3.023 -0.3271 -0.7247 -1.1548
   39DOPE   C24 4941   6.203   2.803   3.127 -0.3814  0.0493 -0.0128
   39DOPE   H4R 4942   6.136   2.798   3.038 -1.7422  3.4285  0.6583
   39DOPE   H4S 4943   6.197   2.897   3.187  1.0136  0.6291 -0.7511
   39DOPE   C25 4944   6.167   2.692   3.230 -0.5211  0.3769  0.0554
   39DOPE   H5R 4945   6.197   2.592   3.194  0.1518  0.8272 -0.6723
   39DOPE   H5S 4946   6.059   2.677   3.252 -0.4165 -1.3916 -0.4594
   39DOPE   C26 4947   6.238   2.721   3.365  0.1691 -0.4654  0.6153
   39DOPE   H6R 4948   6.211   2.818   3.411 -0.6515 -0.7526  0.7691
   39DOPE   H6S 4949   6.347   2.728   3.348 -0.2247  0.8918 -2.0310
   39DOPE   C27 4950   6.229   2.629   3.485 -0.4789 -0.0595  0.0418
   39DOPE   H7R 4951   6.309   2.662   3.554 -0.3901  1.5684 -0.7993
   39DOPE   H7S 4952   6.248   2.528   3.442  1.0887  0.5943 -0.8764
   39DOPE   C28 4953   6.099   2.644   3.556 -0.5046 -0.3025  0.0659
   39DOPE   H8R 4954   6.012   2.624   3.490  0.1025 -1.7845 -0.3205
   39DOPE   H8S 4955   6.094   2.753   3.577  0.6495 -0.3232  0.4870
   39DOPE   C29 4956   6.105   2.561   3.677  0.6457 -0.0627 -0.7823
   39DOPE   H9R 4957   6.108   2.453   3.655  0.0605 -0.0229 -1.0726
   39DOPE  C210 4958   6.089   2.592   3.806  0.2386 -0.5500 -0.4309
   39DOPE  H10R 4959   6.082   2.515   3.884 -0.0091  0.9111  1.0483
   39DOPE  C211 4960   6.059   2.733   3.857 -0.1212  0.2229 -0.4708
   39DOPE  H11R 4961   5.980   2.721   3.935  0.8640 -0.1279  0.4979
   39DOPE  H11S 4962   6.031   2.807   3.778  2.1565  1.1474 -0.4936
   39DOPE  C212 4963   6.178   2.800   3.933  0.0655  0.3750  0.3366
   39DOPE  H12R 4964   6.195   2.732   4.019  0.6376  0.8731  0.6219
   39DOPE  H12S 4965   6.153   2.905   3.959 -1.3084  0.0344  0.4642
   39DOPE  C213 4966   6.303   2.825   3.850  0.3222 -0.1168 -0.0730
   39DOPE  H13R 4967   6.276   2.903   3.777  0.3155  0.2751  0.3437
   39DOPE  H13S 4968   6.328   2.727   3.804 -0.2700 -0.5893  0.5922
   39DOPE  C214 4969   6.412   2.902   3.928 -0.2712  0.0160 -0.5917
   39DOPE  H14R 4970   6.377   2.997   3.974  2.4575  0.5711  0.5185
   39DOPE  H14S 4971   6.503   2.928   3.870 -1.5663  0.0966 -2.6669
   39DOPE  C215 4972   6.471   2.815   4.040  0.3918 -0.1396 -0.0764
   39DOPE  H15R 4973   6.507   2.723   3.990  2.6837  1.4384 -1.5875
   39DOPE  H15S 4974   6.403   2.778   4.119 -0.9970  1.1870 -0.6024
   39DOPE  C216 4975   6.582   2.887   4.121  0.1546  0.1845  0.2115
   39DOPE  H16R 4976   6.523   2.976   4.154  1.8715  0.8055  1.7391
   39DOPE  H16S 4977   6.663   2.923   4.054  1.4985  0.3188  1.8683
   39DOPE  C217 4978   6.649   2.815   4.242  0.1907 -0.4483  0.5019
   39DOPE  H17R 4979   6.569   2.810   4.319 -0.1886  3.4010  0.5412
   39DOPE  H17S 4980   6.724   2.885   4.284 -1.0882  0.4682  1.3406
   39DOPE  C218 4981   6.691   2.667   4.213 -0.3543  0.1234  0.3115
   39DOPE  H18R 4982   6.611   2.613   4.157  0.1209 -0.0580 -0.2025
   39DOPE  H18S 4983   6.705   2.620   4.313  0.0322  0.3361  0.3564
   39DOPE  H18T 4984   6.776   2.672   4.143 -0.1413  1.2172  0.6348
   39DOPE   C33 4985   7.122   2.818   2.986  0.1581  0.0117 -0.2699
   39DOPE   H3X 4986   7.167   2.883   2.907 -0.8838  0.6336 -0.3720
   39DOPE   H3Y 4987   7.166   2.717   2.976 -1.4523 -0.5751 -2.0386
   39DOPE   C34 4988   7.161   2.871   3.124 -0.1756  0.6790  0.0175
   39DOPE   H4X 4989   7.269   2.891   3.111  0.5881 -3.2633 -1.0086
   39DOPE   H4Y 4990   7.114   2.969   3.150 -1.6430 -0.0337  0.1476
   39DOPE   C35 4991   7.161   2.759   3.241 -0.4292 -0.0754  0.8522
   39DOPE   H5X 4992   7.215   2.670   3.201  1.2526  1.4433 -0.4546
   39DOPE   H5Y 4993   7.053   2.736   3.255 -0.5693 -0.2014 -0.3023
   39DOPE   C36 4994   7.220   2.816   3.370  0.4002 -0.9338 -0.0639
   39DOPE   H6X 4995   7.158   2.903   3.403  0.1946 -0.8425 -0.6665
   39DOPE   H6Y 4996   7.326   2.844   3.357  0.3895 -1.0020 -0.3208
   39DOPE   C37 4997   7.216   2.716   3.485  0.4994  0.0606  0.5363
   39DOPE   H7X 4998   7.113   2.674   3.475  0.2638  0.7413  0.0802
   39DOPE   H7Y 4999   7.296   2.639   3.488 -0.1283 -0.5890  1.0098
   39DOPE   C38 5000   7.217   2.778   3.633 -0.1891 -0.4774  0.4726
   39DOPE   H8X 5001   7.192   2.691   3.698  1.6140 -1.5119 -0.1441
   39DOPE   H8Y 5002   7.142   2.859   3.629  0.7828  0.4265  0.0039
   39DOPE   C39 5003   7.350   2.842   3.670 -0.2322 -0.8679  0.1946
   39DOPE   H9X 5004   7.377   2.901   3.581 -1.4830 -1.7886 -0.8165
   39DOPE  C310 5005   7.441   2.820   3.762 -0.0395 -0.4962 -0.2695
   39DOPE  H10X 5006   7.525   2.890   3.765 -0.6333  0.2883 -1.3364
   39DOPE  C311 5007   7.440   2.716   3.869 -0.3846 -0.0802  0.0854
   39DOPE  H11X 5008   7.464   2.771   3.963 -0.3866 -0.1907  0.1501
   39DOPE  H11Y 5009   7.342   2.666   3.884 -0.3007  0.0577  1.1418
   39DOPE  C312 5010   7.554   2.612   3.845  0.1831  0.7456 -0.1298
   39DOPE  H12X 5011   7.652   2.664   3.856 -0.8318  2.9850 -1.2182
   39DOPE  H12Y 5012   7.554   2.548   3.754 -1.0152 -0.3032  0.5676
   39DOPE  C313 5013   7.549   2.505   3.964  0.1005  1.0572 -0.2241
   39DOPE  H13X 5014   7.554   2.569   4.055 -0.3978  1.9085 -0.7829
   39DOPE  H13Y 5015   7.449   2.458   3.961  0.2366  0.7483  0.0081
   39DOPE  C314 5016   7.657   2.396   3.974  0.5347 -0.5090 -0.2710
   39DOPE  H14X 5017   7.757   2.440   3.954 -0.1582  0.9309 -0.7407
   39DOPE  H14Y 5018   7.636   2.323   3.893 -1.4908 -1.4647  1.0298
   39DOPE  C315 5019   7.675   2.350   4.120  0.0269  0.3365  0.3938
   39DOPE  H15X 5020   7.576   2.320   4.162  0.5978  0.1063  1.6430
   39DOPE  H15Y 5021   7.725   2.426   4.183  1.6078 -1.4050  1.3432
   39DOPE  C316 5022   7.761   2.224   4.132 -0.8872 -0.4396  0.0401
   39DOPE  H16X 5023   7.862   2.245   4.091  0.4338 -1.5372  2.5007
   39DOPE  H16Y 5024   7.719   2.137   4.076 -0.6044 -1.4451  1.3452
   39DOPE  C317 5025   7.793   2.174   4.276  0.1316 -0.2725  1.2990
   39DOPE  H17X 5026   7.701   2.135   4.326 -1.2635  1.2583  0.0395
   39DOPE  H17Y 5027   7.866   2.092   4.263 -2.0515 -2.3139  1.2440
   39DOPE  C318 5028   7.862   2.271   4.366 -0.6372 -0.4198 -0.4075
   39DOPE  H18X 5029   7.792   2.353   4.393  1.6357  1.4671  0.0461
   39DOPE  H18Y 5030   7.905   2.223   4.457  2.3862 -2.7025 -2.8361
   39DOPE  H18Z 5031   7.955   2.323   4.334 -0.5578 -0.9687 -1.0760
   40DOPE     N 5032   6.393   6.747   1.920  0.4662 -0.0040 -0.1126
   40DOPE   HN1 5033   6.391   6.781   1.822 -2.6733  3.6280  0.9819
   40DOPE   HN2 5034   6.487   6.754   1.964  0.2218 -2.3731  0.9531
   40DOPE   HN3 5035   6.364   6.647   1.931  1.5330 -0.5905 -1.9889
   40DOPE   C12 5036   6.293   6.839   1.985 -0.6908 -0.5420  0.2453
   40DOPE  H12A 5037   6.310   6.935   1.933 -1.8101 -1.3858 -1.7670
   40DOPE  H12B 5038   6.304   6.855   2.095 -0.8853 -0.0346  0.1941
   40DOPE   C11 5039   6.146   6.802   1.957  0.7715 -0.0488  0.6167
   40DOPE  H11A 5040   6.119   6.709   2.011 -0.7504  0.0113 -0.0060
   40DOPE  H11B 5041   6.142   6.789   1.846  0.8381 -2.3182  0.8288
   40DOPE     P 5042   5.987   6.936   2.110  0.3835  0.4393 -0.2764
   40DOPE   O13 5043   5.882   6.833   2.127  0.2132  0.2425  0.5114
   40DOPE   O14 5044   5.942   7.075   2.115  0.0290  0.1302 -0.4475
   40DOPE   O11 5045   6.102   6.915   2.214  0.0034 -0.3001  0.0382
   40DOPE   O12 5046   6.063   6.912   1.980 -0.1919  0.9135  0.4593
   40DOPE    C1 5047   6.093   6.810   2.310 -0.4739 -0.4929 -0.1340
   40DOPE    HA 5048   6.200   6.795   2.336  0.0046  0.5315 -1.3607
   40DOPE    HB 5049   6.071   6.711   2.266  1.2862 -1.2232  0.5229
   40DOPE    C2 5050   6.007   6.843   2.435 -0.5818  0.1352  1.2781
   40DOPE    HS 5051   5.905   6.852   2.393  0.7585  2.7103 -1.9226
   40DOPE   O21 5052   6.061   6.961   2.501  0.4115 -0.3925 -1.0364
   40DOPE   C21 5053   5.968   7.067   2.493 -0.3283  0.1297 -0.1269
   40DOPE   O22 5054   5.858   7.058   2.444  0.7147  0.1104  0.4771
   40DOPE   C22 5055   6.035   7.193   2.567  0.1194  0.8103  0.0588
   40DOPE   H2R 5056   6.109   7.217   2.489 -0.0078  0.2692 -0.2310
   40DOPE   H2S 5057   6.078   7.150   2.660 -0.1619  0.6293  0.1085
   40DOPE    C3 5058   6.011   6.725   2.536 -0.4289  0.5362  0.6185
   40DOPE    HX 5059   6.115   6.716   2.573 -0.3506  0.9667  0.5112
   40DOPE    HY 5060   5.987   6.633   2.479 -2.7971  1.4273  0.0365
   40DOPE   O31 5061   5.928   6.743   2.655 -0.5962 -0.3653  0.6060
   40DOPE   C31 5062   5.805   6.693   2.637 -0.2033 -0.2640 -0.7399
   40DOPE   O32 5063   5.764   6.628   2.540  0.0993  0.0054 -0.9827
   40DOPE   C32 5064   5.720   6.744   2.759 -0.5669 -0.2507  0.0088
   40DOPE   H2X 5065   5.616   6.711   2.739 -1.7127  2.7995  0.3544
   40DOPE   H2Y 5066   5.768   6.693   2.845  0.7563 -1.9633 -1.6493
   40DOPE   C23 5067   5.933   7.303   2.593  0.8370 -0.2090 -0.3235
   40DOPE   H3R 5068   5.874   7.308   2.499  3.4603  0.8902 -2.0305
   40DOPE   H3S 5069   5.970   7.407   2.590 -0.3135  0.2233 -2.8177
   40DOPE   C24 5070   5.854   7.287   2.723 -0.1122 -0.1276  0.3087
   40DOPE   H4R 5071   5.921   7.295   2.812 -3.1097  0.6243  2.6887
   40DOPE   H4S 5072   5.802   7.189   2.712  0.9405 -0.6535 -0.0532
   40DOPE   C25 5073   5.748   7.397   2.738 -0.0616 -0.0075 -0.7357
   40DOPE   H5R 5074   5.688   7.406   2.645 -0.5201  2.1540 -0.2917
   40DOPE   H5S 5075   5.801   7.494   2.737  1.0343 -0.5956 -0.6922
   40DOPE   C26 5076   5.649   7.375   2.857  0.2591 -0.6457 -0.1300
   40DOPE   H6R 5077   5.703   7.389   2.953  0.4591  1.3809 -0.4844
   40DOPE   H6S 5078   5.593   7.279   2.856  1.0099 -1.0809 -1.1751
   40DOPE   C27 5079   5.533   7.488   2.868 -0.1084  0.3566  0.1502
   40DOPE   H7R 5080   5.457   7.490   2.787  0.2493  2.5547 -0.1862
   40DOPE   H7S 5081   5.591   7.583   2.868 -1.0123  0.9535  2.1175
   40DOPE   C28 5082   5.457   7.474   3.001 -0.3466  0.2299  0.1037
   40DOPE   H8R 5083   5.526   7.469   3.088  0.9935 -0.1319 -0.9518
   40DOPE   H8S 5084   5.398   7.382   2.982  0.8105 -0.0456 -2.6638
   40DOPE   C29 5085   5.365   7.587   3.002 -0.2384 -0.4982  0.2481
   40DOPE   H9R 5086   5.358   7.653   2.914 -0.4443  1.1740  1.4624
   40DOPE  C210 5087   5.268   7.593   3.094  0.1612 -0.5909 -0.0269
   40DOPE  H10R 5088   5.206   7.684   3.093  0.0803 -0.5972  1.8194
   40DOPE  C211 5089   5.236   7.491   3.207 -0.4698 -0.3877  0.5889
   40DOPE  H11R 5090   5.284   7.392   3.191 -1.9629 -0.7470 -2.4556
   40DOPE  H11S 5091   5.130   7.459   3.201 -0.1320 -1.5539  0.6251
   40DOPE  C212 5092   5.261   7.546   3.346  0.1116  0.1591 -0.0684
   40DOPE  H12R 5093   5.247   7.462   3.418 -0.7995  1.4716  1.3331
   40DOPE  H12S 5094   5.202   7.632   3.383  0.9550  0.3241  0.9390
   40DOPE  C213 5095   5.409   7.580   3.367 -0.1588 -0.4073 -0.6360
   40DOPE  H13R 5096   5.439   7.663   3.300  0.9756 -0.2930 -0.0200
   40DOPE  H13S 5097   5.463   7.485   3.350 -1.4118 -2.0064  3.0920
   40DOPE  C214 5098   5.421   7.626   3.510 -0.8298 -0.2798 -0.0685
   40DOPE  H14R 5099   5.382   7.546   3.578  0.7068  0.2418  1.5017
   40DOPE  H14S 5100   5.358   7.715   3.527 -1.8088 -0.8332 -0.7110
   40DOPE  C215 5101   5.568   7.640   3.553  0.2177 -0.7309  0.8015
   40DOPE  H15R 5102   5.637   7.703   3.494  2.3173 -1.2215  2.6082
   40DOPE  H15S 5103   5.613   7.541   3.532 -2.0253 -1.8924  1.1147
   40DOPE  C216 5104   5.584   7.670   3.698  0.6519  0.6994  0.4893
   40DOPE  H16R 5105   5.532   7.591   3.757  1.4583 -1.6538 -1.7635
   40DOPE  H16S 5106   5.541   7.772   3.709  0.9915  1.1431 -1.7750
   40DOPE  C217 5107   5.727   7.680   3.751  0.5584 -0.4645  0.0388
   40DOPE  H17R 5108   5.782   7.756   3.691 -0.2062  0.4936  0.5238
   40DOPE  H17S 5109   5.784   7.586   3.740  0.1858 -0.6539 -0.2596
   40DOPE  C218 5110   5.718   7.728   3.894 -0.7682  0.0814 -0.2066
   40DOPE  H18R 5111   5.675   7.830   3.898 -0.7875  0.0631  0.1100
   40DOPE  H18S 5112   5.817   7.747   3.941 -1.9628  0.9467  2.1273
   40DOPE  H18T 5113   5.661   7.655   3.956 -0.6674 -0.2834 -0.5420
   40DOPE   C33 5114   5.715   6.895   2.746  0.5215 -0.6661  1.2233
   40DOPE   H3X 5115   5.637   6.932   2.677  0.0348 -1.0144  1.5806
   40DOPE   H3Y 5116   5.813   6.936   2.713  1.5067 -1.9839  2.3560
   40DOPE   C34 5117   5.687   6.957   2.884 -0.1992 -0.6239  0.4236
   40DOPE   H4X 5118   5.674   7.064   2.858  0.6438 -1.1690 -2.6620
   40DOPE   H4Y 5119   5.587   6.919   2.916 -0.5771 -0.1084 -0.1158
   40DOPE   C35 5120   5.797   6.938   2.984  0.6318  0.0100 -0.2010
   40DOPE   H5X 5121   5.897   6.973   2.951  1.2503 -0.7433  0.8131
   40DOPE   H5Y 5122   5.795   6.828   3.004  0.6734 -0.2382 -1.4775
   40DOPE   C36 5123   5.765   6.993   3.128  0.9286  0.9052  0.0190
   40DOPE   H6X 5124   5.665   6.956   3.158  0.0186  0.8374 -2.8212
   40DOPE   H6Y 5125   5.753   7.102   3.111 -0.8373  0.6209 -0.6495
   40DOPE   C37 5126   5.862   6.960   3.240 -0.1143 -0.6088  0.4041
   40DOPE   H7X 5127   5.886   6.853   3.252  2.5472 -0.1166  0.1168
   40DOPE   H7Y 5128   5.953   7.019   3.214  0.6160 -1.1049  1.7322
   40DOPE   C38 5129   5.830   7.012   3.383 -0.2143  0.2107 -0.1044
   40DOPE   H8X 5130   5.925   7.000   3.440  0.4578  1.6365 -0.8706
   40DOPE   H8Y 5131   5.754   6.943   3.425  0.0127  0.0585  0.0591
   40DOPE   C39 5132   5.787   7.157   3.373 -0.2832 -0.0284  0.0716
   40DOPE   H9X 5133   5.868   7.226   3.347 -1.1957  0.2614 -2.2531
   40DOPE  C310 5134   5.662   7.203   3.396 -0.2441  0.5315 -0.2409
   40DOPE  H10X 5135   5.656   7.312   3.407  2.0950  0.6394  0.6228
   40DOPE  C311 5136   5.535   7.131   3.432  0.5944 -1.1076 -0.5946
   40DOPE  H11X 5137   5.478   7.126   3.338  0.2131  0.7004 -0.4914
   40DOPE  H11Y 5138   5.545   7.026   3.467 -0.5209 -0.8493  0.5768
   40DOPE  C312 5139   5.467   7.202   3.557 -0.1221 -0.0383  0.3518
   40DOPE  H12X 5140   5.358   7.178   3.554 -0.8421  2.7752  1.2302
   40DOPE  H12Y 5141   5.468   7.312   3.543  4.4300  0.0850  0.1134
   40DOPE  C313 5142   5.530   7.173   3.693 -0.0625  0.1856 -0.7516
   40DOPE  H13X 5143   5.534   7.062   3.689 -0.8855  0.0854  0.4304
   40DOPE  H13Y 5144   5.634   7.209   3.680  0.0185  0.9174  1.4940
   40DOPE  C314 5145   5.477   7.263   3.805  0.0426 -0.0228 -0.7307
   40DOPE  H14X 5146   5.492   7.362   3.756  1.5528  0.5632  0.7999
   40DOPE  H14Y 5147   5.537   7.255   3.899  0.8088  0.4478 -1.1699
   40DOPE  C315 5148   5.334   7.234   3.840 -0.0140  0.5711 -0.4710
   40DOPE  H15X 5149   5.329   7.131   3.881  1.1506  0.2427 -1.0945
   40DOPE  H15Y 5150   5.272   7.250   3.749 -0.8374  0.0296 -0.0176
   40DOPE  C316 5151   5.285   7.324   3.957 -0.6916  0.4404  0.3811
   40DOPE  H16X 5152   5.278   7.431   3.927 -0.4459  0.8421  1.7000
   40DOPE  H16Y 5153   5.357   7.312   4.041  0.6509 -0.3149 -0.8149
   40DOPE  C317 5154   5.139   7.279   3.994  0.0624 -0.2583  0.3372
   40DOPE  H17X 5155   5.073   7.362   4.024  0.8851  0.5407 -0.0243
   40DOPE  H17Y 5156   5.096   7.245   3.897  0.3422  0.5994 -0.0951
   40DOPE  C318 5157   5.135   7.177   4.111  0.1222  0.0121  0.5162
   40DOPE  H18X 5158   5.209   7.094   4.101  2.4779  2.0291  0.1083
   40DOPE  H18Y 5159   5.171   7.219   4.207  1.6860 -0.4552  0.1754
   40DOPE  H18Z 5160   5.037   7.127   4.121 -0.1752 -1.2157 -5.1735
   41DOPE     N 5161   1.865   5.219   3.233 -0.4906  0.5693  0.1863
   41DOPE   HN1 5162   1.793   5.235   3.307 -0.6880 -3.2954  1.0471
   41DOPE   HN2 5163   1.808   5.183   3.154 -1.2050 -2.1543  1.7914
   41DOPE   HN3 5164   1.920   5.137   3.265 -0.8991 -0.4015 -1.4826
   41DOPE   C12 5165   1.939   5.339   3.193  0.1268 -0.0172  0.1746
   41DOPE  H12A 5166   1.978   5.393   3.282 -0.3396  0.7332 -0.0664
   41DOPE  H12B 5167   1.864   5.406   3.145  1.8154  0.9251 -1.2747
   41DOPE   C11 5168   2.055   5.302   3.100 -0.3275  0.1782 -0.4160
   41DOPE  H11A 5169   2.104   5.393   3.059 -0.8618  1.2313  1.1944
   41DOPE  H11B 5170   2.017   5.242   3.014 -1.3475 -1.0577  0.8561
   41DOPE     P 5171   2.246   5.121   3.100  0.0389 -0.4186  0.4740
   41DOPE   O13 5172   2.280   5.174   2.958  0.4953  0.3360  0.0866
   41DOPE   O14 5173   2.174   4.991   3.106 -0.0100  0.0831 -0.5033
   41DOPE   O11 5174   2.379   5.116   3.175  0.2464 -0.3231 -0.5609
   41DOPE   O12 5175   2.156   5.236   3.182 -0.4653  0.4755  0.1468
   41DOPE    C1 5176   2.439   5.225   3.248 -0.5808 -0.5619 -0.5295
   41DOPE    HA 5177   2.404   5.329   3.229  0.3276 -0.1440  0.0281
   41DOPE    HB 5178   2.550   5.223   3.249 -0.4443  1.9727  1.4396
   41DOPE    C2 5179   2.396   5.221   3.401 -0.1164  0.0369 -0.4760
   41DOPE    HS 5180   2.294   5.263   3.413 -0.6781 -1.9114  2.4977
   41DOPE   O21 5181   2.497   5.296   3.474 -0.6118 -0.0419 -0.3737
   41DOPE   C21 5182   2.463   5.408   3.527 -0.0892  0.4827  0.6751
   41DOPE   O22 5183   2.357   5.462   3.525  0.3707 -0.1454  0.1944
   41DOPE   C22 5184   2.598   5.471   3.575  0.3906 -0.7740 -0.0451
   41DOPE   H2R 5185   2.676   5.475   3.496  0.7525  1.6283  0.3709
   41DOPE   H2S 5186   2.628   5.396   3.651  1.1971  0.9809  1.4429
   41DOPE    C3 5187   2.391   5.083   3.458  0.2202  0.5432  0.2105
   41DOPE    HX 5188   2.493   5.040   3.447 -0.0932 -0.5022  1.1572
   41DOPE    HY 5189   2.329   5.012   3.399 -0.6626  0.0229  1.6961
   41DOPE   O31 5190   2.351   5.091   3.595 -0.0778 -0.3238 -0.5756
   41DOPE   C31 5191   2.225   5.074   3.629 -0.4109  0.6522 -0.1868
   41DOPE   O32 5192   2.143   5.028   3.556 -0.0991  0.1119 -0.3821
   41DOPE   C32 5193   2.199   5.094   3.777  0.2187 -0.3635 -0.6120
   41DOPE   H2X 5194   2.261   5.016   3.826 -0.3439 -1.1993 -1.2077
   41DOPE   H2Y 5195   2.227   5.199   3.803 -0.5094 -0.9493  2.9966
   41DOPE   C23 5196   2.592   5.614   3.648  0.0095  0.5009 -0.7296
   41DOPE   H3R 5197   2.517   5.682   3.603 -0.5535  0.7843  0.5732
   41DOPE   H3S 5198   2.693   5.654   3.625  0.8736 -1.7362 -1.0628
   41DOPE   C24 5199   2.586   5.601   3.798 -0.4967  0.2455 -0.8121
   41DOPE   H4R 5200   2.667   5.534   3.833  0.0070  0.1828 -2.0377
   41DOPE   H4S 5201   2.495   5.546   3.829  0.4051 -1.7410 -1.5437
   41DOPE   C25 5202   2.606   5.731   3.885 -0.3934 -0.6606  0.7714
   41DOPE   H5R 5203   2.706   5.778   3.884  0.3109 -2.0790  1.1873
   41DOPE   H5S 5204   2.593   5.702   3.992 -1.1539 -0.5377  0.7202
   41DOPE   C26 5205   2.498   5.832   3.848 -0.0066  0.1287  0.1219
   41DOPE   H6R 5206   2.406   5.774   3.823  0.2293 -0.1624 -0.0768
   41DOPE   H6S 5207   2.523   5.892   3.757 -1.0062  1.0576  0.4337
   41DOPE   C27 5208   2.465   5.922   3.965  0.1617 -0.4015 -0.4479
   41DOPE   H7R 5209   2.556   5.983   3.978 -0.2951  0.7366 -2.2158
   41DOPE   H7S 5210   2.458   5.858   4.056 -0.9141 -0.5721 -0.6325
   41DOPE   C28 5211   2.346   6.010   3.944 -0.0679 -0.0658 -0.1466
   41DOPE   H8R 5212   2.336   6.075   4.034 -2.8189  1.1154 -1.1830
   41DOPE   H8S 5213   2.262   5.937   3.935 -1.1759  1.3796 -2.8383
   41DOPE   C29 5214   2.364   6.097   3.818  1.0552  0.3292 -0.1617
   41DOPE   H9R 5215   2.463   6.119   3.777  0.6157  0.9479 -0.9220
   41DOPE  C210 5216   2.252   6.157   3.764 -0.0038  0.9817  0.0445
   41DOPE  H10R 5217   2.269   6.205   3.667  0.6813  0.9599  0.1475
   41DOPE  C211 5218   2.106   6.148   3.803 -0.8881 -0.0327  0.4222
   41DOPE  H11R 5219   2.093   6.044   3.840  1.1070 -0.4184  0.1609
   41DOPE  H11S 5220   2.046   6.136   3.710  0.5502  1.2097 -0.7082
   41DOPE  C212 5221   2.042   6.250   3.887  0.3952 -0.0157  0.7206
   41DOPE  H12R 5222   1.931   6.240   3.890  0.5945 -3.1156  0.5214
   41DOPE  H12S 5223   2.065   6.347   3.836  1.0922  0.4841  1.9493
   41DOPE  C213 5224   2.088   6.253   4.038 -0.2838  0.5701  0.2835
   41DOPE  H13R 5225   2.199   6.265   4.041  0.0419 -1.7716  0.0965
   41DOPE  H13S 5226   2.062   6.157   4.088 -0.8963 -0.3533 -1.7068
   41DOPE  C214 5227   2.022   6.356   4.123 -0.7136  0.0587  0.0714
   41DOPE  H14R 5228   1.927   6.311   4.159 -0.7346 -0.4991 -0.6564
   41DOPE  H14S 5229   1.993   6.446   4.065 -1.6305  0.6851  1.4373
   41DOPE  C215 5230   2.098   6.400   4.254 -0.2075  0.7094 -0.2418
   41DOPE  H15R 5231   2.195   6.441   4.220  1.0378 -0.5813  1.5457
   41DOPE  H15S 5232   2.127   6.310   4.314  0.2268  0.5603 -0.6665
   41DOPE  C216 5233   2.021   6.492   4.340  0.0552 -0.1602 -0.4350
   41DOPE  H16R 5234   1.910   6.487   4.336  0.1152 -1.1686 -1.0360
   41DOPE  H16S 5235   2.047   6.594   4.302  1.7572 -0.7042 -0.8062
   41DOPE  C217 5236   2.075   6.496   4.485  0.3058  0.2065  0.9007
   41DOPE  H17R 5237   2.182   6.469   4.485  0.4168  0.6169  1.4909
   41DOPE  H17S 5238   2.014   6.431   4.552  0.8001  1.7245  2.9510
   41DOPE  C218 5239   2.075   6.636   4.540  0.7101 -0.2164 -0.8517
   41DOPE  H18R 5240   2.117   6.702   4.461  0.3243 -0.8635 -1.6073
   41DOPE  H18S 5241   2.136   6.646   4.633 -3.4415  2.4687  1.9133
   41DOPE  H18T 5242   1.971   6.665   4.567 -0.1425 -3.3660 -0.2888
   41DOPE   C33 5243   2.047   5.070   3.811  0.2684 -0.4665 -1.0456
   41DOPE   H3X 5244   2.021   4.971   3.768  0.7205 -2.2163  2.3729
   41DOPE   H3Y 5245   1.989   5.154   3.769  1.5743  1.4700  0.8092
   41DOPE   C34 5246   2.011   5.069   3.958 -0.1793  0.5502 -0.5865
   41DOPE   H4X 5247   2.045   5.164   4.004  0.7862  0.1069 -0.3502
   41DOPE   H4Y 5248   1.900   5.078   3.960 -0.5033 -2.5210  0.9458
   41DOPE   C35 5249   2.041   4.939   4.039  0.5273  0.3501 -0.3275
   41DOPE   H5X 5250   2.136   4.947   4.094  0.1970  0.0167  0.3032
   41DOPE   H5Y 5251   2.060   4.854   3.970 -2.0859 -2.4234  2.0693
   41DOPE   C36 5252   1.919   4.901   4.124  0.3889  0.3955 -0.0605
   41DOPE   H6X 5253   1.930   4.793   4.150 -0.1913  0.2247 -0.5249
   41DOPE   H6Y 5254   1.821   4.912   4.074  1.0818 -1.5031 -1.9973
   41DOPE   C37 5255   1.900   4.984   4.259 -0.0688 -0.2048  0.4130
   41DOPE   H7X 5256   1.985   4.959   4.326  0.8963  1.7575 -0.0064
   41DOPE   H7Y 5257   1.909   5.090   4.228  0.6173  0.6538  3.2598
   41DOPE   C38 5258   1.764   4.956   4.327  0.2118 -0.0495 -1.1974
   41DOPE   H8X 5259   1.686   5.006   4.266 -1.6923 -1.0636  0.2867
   41DOPE   H8Y 5260   1.764   5.025   4.415 -1.5995 -1.8680  0.3453
   41DOPE   C39 5261   1.739   4.814   4.371 -0.0694  0.3933 -1.0012
   41DOPE   H9X 5262   1.825   4.755   4.404 -0.5289 -0.8909 -2.0206
   41DOPE  C310 5263   1.621   4.753   4.382  0.3116 -0.1733 -0.3445
   41DOPE  H10X 5264   1.612   4.650   4.418  0.6555 -0.4040 -0.9143
   41DOPE  C311 5265   1.490   4.819   4.351  0.0012  0.0615  0.4207
   41DOPE  H11X 5266   1.431   4.828   4.445 -0.5904 -0.5904  0.1107
   41DOPE  H11Y 5267   1.504   4.920   4.307 -1.4858  0.1027 -0.0238
   41DOPE  C312 5268   1.422   4.727   4.252  0.2286  0.0723  0.0966
   41DOPE  H12X 5269   1.314   4.756   4.248  0.4750  1.0934  0.6079
   41DOPE  H12Y 5270   1.424   4.624   4.294  2.0687 -0.2611 -0.6962
   41DOPE  C313 5271   1.493   4.729   4.118  0.5407  0.0166 -0.0297
   41DOPE  H13X 5272   1.480   4.833   4.083 -0.2142 -1.2907 -4.1532
   41DOPE  H13Y 5273   1.601   4.704   4.134  0.9169  1.5681 -0.0615
   41DOPE  C314 5274   1.452   4.635   4.008 -0.4037 -0.8360  0.1809
   41DOPE  H14X 5275   1.474   4.529   4.032 -1.1881 -0.8640  0.8369
   41DOPE  H14Y 5276   1.520   4.660   3.924 -1.4096  0.0974 -0.3816
   41DOPE  C315 5277   1.299   4.649   3.978  0.5645  0.1263 -0.7022
   41DOPE  H15X 5278   1.235   4.625   4.065  0.7870 -1.6144 -0.9830
   41DOPE  H15Y 5279   1.277   4.570   3.903  0.5143 -0.4497 -0.0848
   41DOPE  C316 5280   1.265   4.782   3.909 -0.1963 -0.0280 -0.5610
   41DOPE  H16X 5281   1.317   4.779   3.810  1.3633 -1.6961  0.2466
   41DOPE  H16Y 5282   1.309   4.855   3.981 -1.1199  0.2240 -0.2338
   41DOPE  C317 5283   1.118   4.809   3.878 -0.1806  0.0498 -0.5975
   41DOPE  H17X 5284   1.069   4.828   3.975 -2.5528  0.0931 -1.7217
   41DOPE  H17Y 5285   1.104   4.901   3.817  0.1609  0.3906 -0.1649
   41DOPE  C318 5286   1.038   4.687   3.827 -0.6965  0.4166  0.4273
   41DOPE  H18X 5287   1.056   4.605   3.900 -0.9843 -0.2099 -0.2026
   41DOPE  H18Y 5288   0.929   4.707   3.828 -0.7224  0.2720  0.7139
   41DOPE  H18Z 5289   1.078   4.659   3.728  0.9549  2.9495  0.2762
   42DOPE     N 5290   0.727   4.637   2.715  0.2042 -1.0047  0.6957
   42DOPE   HN1 5291   0.656   4.664   2.644  0.0310  0.4962  1.4034
   42DOPE   HN2 5292   0.766   4.544   2.688  0.2060 -0.9469  0.5023
   42DOPE   HN3 5293   0.686   4.646   2.810  0.9870  1.9586  0.8469
   42DOPE   C12 5294   0.835   4.741   2.708 -0.3872 -0.7691 -0.1254
   42DOPE  H12A 5295   0.800   4.837   2.750 -1.4179 -1.4517  0.6326
   42DOPE  H12B 5296   0.857   4.754   2.600  1.2572  0.9783  0.3767
   42DOPE   C11 5297   0.966   4.690   2.774  0.1003  0.2266 -0.5360
   42DOPE  H11A 5298   0.934   4.658   2.876 -0.2195  4.9223  1.0611
   42DOPE  H11B 5299   1.034   4.775   2.793 -2.2453  2.4886 -1.7161
   42DOPE     P 5300   1.189   4.584   2.695  0.0150  0.0683  0.1259
   42DOPE   O13 5301   1.243   4.708   2.631  0.0010 -0.1434 -0.0190
   42DOPE   O14 5302   1.215   4.456   2.631 -0.2126  0.0845 -0.0694
   42DOPE   O11 5303   1.212   4.576   2.849  0.4135 -0.1122 -0.2067
   42DOPE   O12 5304   1.032   4.603   2.689 -0.1632 -0.4942  0.4002
   42DOPE    C1 5305   1.164   4.472   2.931 -0.4472  0.0978  0.4704
   42DOPE    HA 5306   1.232   4.384   2.923  0.5811  0.5128  3.3407
   42DOPE    HB 5307   1.073   4.436   2.880  0.6870  0.8996 -2.2950
   42DOPE    C2 5308   1.131   4.502   3.081 -0.2189  0.3947  0.2077
   42DOPE    HS 5309   1.075   4.598   3.079  1.4257  1.3982 -0.4866
   42DOPE   O21 5310   1.258   4.492   3.149 -0.5634  0.1987  0.4338
   42DOPE   C21 5311   1.274   4.580   3.243  0.0759 -0.4785  0.7254
   42DOPE   O22 5312   1.191   4.665   3.272 -0.3616  0.2542 -0.4518
   42DOPE   C22 5313   1.407   4.550   3.306  1.4942  0.4823 -0.7375
   42DOPE   H2R 5314   1.486   4.598   3.245  1.0689  1.6045 -0.4157
   42DOPE   H2S 5315   1.417   4.439   3.307 -0.3573  0.2815 -1.3360
   42DOPE    C3 5316   1.039   4.396   3.140 -0.2996 -0.1667  0.4297
   42DOPE    HX 5317   1.102   4.305   3.141  1.9937  1.3350  0.8871
   42DOPE    HY 5318   0.953   4.368   3.076  0.8642 -1.3121 -0.7073
   42DOPE   O31 5319   0.990   4.430   3.273 -0.1055 -0.2694  0.3452
   42DOPE   C31 5320   0.887   4.511   3.280  0.3793  0.4725  0.3235
   42DOPE   O32 5321   0.837   4.569   3.186 -0.0598  0.1708  0.1175
   42DOPE   C32 5322   0.846   4.531   3.425  0.0024 -0.0627  0.4240
   42DOPE   H2X 5323   0.868   4.440   3.484 -2.0226  0.1758  1.6325
   42DOPE   H2Y 5324   0.895   4.624   3.460 -0.9717  0.3476  0.7371
   42DOPE   C23 5325   1.393   4.584   3.457  0.3363 -0.1029 -0.3357
   42DOPE   H3R 5326   1.321   4.511   3.501  0.4567  0.8568  1.5485
   42DOPE   H3S 5327   1.349   4.685   3.452 -2.0295 -1.1415 -3.3139
   42DOPE   C24 5328   1.526   4.567   3.528  0.2967  0.4244  0.1901
   42DOPE   H4R 5329   1.580   4.480   3.485  0.0795 -0.9807  2.5696
   42DOPE   H4S 5330   1.520   4.539   3.635  0.5330  0.4971  0.2214
   42DOPE   C25 5331   1.625   4.690   3.518  0.5832  0.0097 -0.0230
   42DOPE   H5R 5332   1.616   4.748   3.424 -1.4862  1.8647  1.2310
   42DOPE   H5S 5333   1.731   4.657   3.530  0.3123 -0.8939 -0.0513
   42DOPE   C26 5334   1.595   4.791   3.638 -0.7232 -0.0064  0.1972
   42DOPE   H6R 5335   1.606   4.741   3.737  0.9561 -1.3965 -0.6172
   42DOPE   H6S 5336   1.494   4.828   3.612 -0.9625 -1.1059 -0.5127
   42DOPE   C27 5337   1.693   4.908   3.630  0.1431 -0.2501  0.1493
   42DOPE   H7R 5338   1.692   4.947   3.526 -3.4383 -0.6082 -0.0800
   42DOPE   H7S 5339   1.798   4.874   3.643  0.6511  1.5677  1.2184
   42DOPE   C28 5340   1.669   5.023   3.733  0.0568 -0.2582  0.1790
   42DOPE   H8R 5341   1.704   5.110   3.673 -1.6533  1.8382  2.0646
   42DOPE   H8S 5342   1.728   5.011   3.826  2.7985 -0.9280 -1.5375
   42DOPE   C29 5343   1.523   5.053   3.755  0.4878  0.1419 -0.6067
   42DOPE   H9R 5344   1.480   5.070   3.655  2.2598  0.5535 -1.3273
   42DOPE  C210 5345   1.456   5.096   3.869 -0.1748 -0.5924 -0.8619
   42DOPE  H10R 5346   1.348   5.115   3.863 -0.3285  0.7106  3.1960
   42DOPE  C211 5347   1.517   5.126   4.003 -0.1276  0.2446  0.3769
   42DOPE  H11R 5348   1.626   5.138   3.984  0.1418 -1.7982  0.4877
   42DOPE  H11S 5349   1.501   5.052   4.084  1.9299  1.3059  1.8499
   42DOPE  C212 5350   1.462   5.258   4.040 -0.1950  0.3847 -0.0357
   42DOPE  H12R 5351   1.358   5.245   4.078 -0.2506 -0.6466 -0.5411
   42DOPE  H12S 5352   1.456   5.334   3.959 -1.7737 -1.2337 -1.5126
   42DOPE  C213 5353   1.542   5.314   4.166 -0.2320 -0.0455 -0.4483
   42DOPE  H13R 5354   1.541   5.424   4.174  0.8801 -0.0182 -0.6059
   42DOPE  H13S 5355   1.649   5.284   4.166 -0.6401 -1.7051  1.0001
   42DOPE  C214 5356   1.494   5.251   4.303 -0.8433 -0.1620 -0.4406
   42DOPE  H14R 5357   1.519   5.143   4.293 -0.4731 -0.2590  1.1117
   42DOPE  H14S 5358   1.388   5.278   4.322 -1.3950 -0.4727 -2.7789
   42DOPE  C215 5359   1.581   5.310   4.421  0.1989 -0.0476  0.5943
   42DOPE  H15R 5360   1.552   5.417   4.416  0.6996  0.2382  2.7916
   42DOPE  H15S 5361   1.688   5.296   4.395  0.1186  1.5822 -0.7956
   42DOPE  C216 5362   1.538   5.252   4.560 -0.3216 -0.1084 -0.9041
   42DOPE  H16R 5363   1.569   5.146   4.560  1.1872  0.2872  0.4684
   42DOPE  H16S 5364   1.428   5.254   4.574 -0.2140 -0.5506  0.0863
   42DOPE  C217 5365   1.609   5.314   4.683  0.4241 -0.0815 -0.2106
   42DOPE  H17R 5366   1.602   5.240   4.766  1.3087 -1.2832 -1.1585
   42DOPE  H17S 5367   1.550   5.404   4.709  2.1623  0.6899  1.2271
   42DOPE  C218 5368   1.758   5.336   4.652  0.2381  0.1613  0.2201
   42DOPE  H18R 5369   1.772   5.410   4.570 -0.2816 -1.8393 -1.7599
   42DOPE  H18S 5370   1.795   5.235   4.626 -2.3923 -1.0424  0.8272
   42DOPE  H18T 5371   1.814   5.357   4.745  0.2851 -0.7406  0.4016
   42DOPE   C33 5372   0.692   4.568   3.433  1.2854 -0.0121 -0.2634
   42DOPE   H3X 5373   0.628   4.491   3.385 -0.2348  0.7425  0.5111
   42DOPE   H3Y 5374   0.688   4.664   3.378  0.8644 -0.7206 -1.5056
   42DOPE   C34 5375   0.634   4.574   3.577 -0.4748  0.1946  0.6272
   42DOPE   H4X 5376   0.688   4.651   3.635 -0.0459 -0.4038  1.0345
   42DOPE   H4Y 5377   0.531   4.614   3.566 -0.4617 -0.2572 -1.9048
   42DOPE   C35 5378   0.636   4.442   3.656 -0.0659 -0.2750  0.3845
   42DOPE   H5X 5379   0.606   4.360   3.586 -0.3770  0.3167 -0.1852
   42DOPE   H5Y 5380   0.554   4.449   3.730  1.8684 -0.0056  2.6015
   42DOPE   C36 5381   0.762   4.402   3.733  0.3135 -0.3692  0.4489
   42DOPE   H6X 5382   0.845   4.456   3.682 -0.2225 -2.3579 -2.8126
   42DOPE   H6Y 5383   0.788   4.296   3.712  1.7776  0.2139 -0.8781
   42DOPE   C37 5384   0.748   4.440   3.888 -0.0221 -0.2704 -0.7083
   42DOPE   H7X 5385   0.842   4.496   3.906  0.0314 -1.1380  2.2853
   42DOPE   H7Y 5386   0.656   4.499   3.908  0.3340  0.3046 -0.7490
   42DOPE   C38 5387   0.760   4.318   3.980 -0.9830 -0.3418  0.4499
   42DOPE   H8X 5388   0.791   4.352   4.081  0.6886 -0.6131  0.0621
   42DOPE   H8Y 5389   0.855   4.272   3.946 -1.6977 -0.4381 -1.5734
   42DOPE   C39 5390   0.652   4.218   3.973 -0.0885  0.1426 -0.2080
   42DOPE   H9X 5391   0.590   4.213   3.882 -0.3293 -0.3257 -0.0227
   42DOPE  C310 5392   0.621   4.128   4.070  0.2003 -0.4965  0.0327
   42DOPE  H10X 5393   0.544   4.054   4.042 -0.2351  0.1064 -0.3883
   42DOPE  C311 5394   0.685   4.115   4.203  0.0458  0.1335 -0.3177
   42DOPE  H11X 5395   0.723   4.210   4.247 -0.8250 -0.3394  1.5540
   42DOPE  H11Y 5396   0.604   4.089   4.274 -0.9288  2.0462 -0.6573
   42DOPE  C312 5397   0.791   4.007   4.221 -0.3022  0.7359  0.0373
   42DOPE  H12X 5398   0.885   4.029   4.166  0.4123 -0.7127  0.6518
   42DOPE  H12Y 5399   0.754   3.908   4.185 -0.2653  0.8358 -0.2800
   42DOPE  C313 5400   0.825   3.987   4.374  0.4332 -0.5305 -0.1616
   42DOPE  H13X 5401   0.861   4.083   4.419 -1.5792 -0.4286  1.3498
   42DOPE  H13Y 5402   0.733   3.957   4.428  1.5647 -2.3250  0.8721
   42DOPE  C314 5403   0.932   3.880   4.403 -0.0429  0.2334 -0.4725
   42DOPE  H14X 5404   1.025   3.925   4.364 -0.5141  2.3404  0.7030
   42DOPE  H14Y 5405   0.897   3.784   4.360 -0.8990  1.0024 -1.5441
   42DOPE  C315 5406   0.944   3.844   4.556 -0.3076  0.0222  0.3326
   42DOPE  H15X 5407   1.004   3.751   4.562 -1.5130 -0.7540  0.7661
   42DOPE  H15Y 5408   0.847   3.821   4.605  0.5755 -1.7894  1.3447
   42DOPE  C316 5409   1.002   3.962   4.630  0.2015 -0.2338 -0.2275
   42DOPE  H16X 5410   0.938   4.052   4.615  2.5121  1.4620 -0.4457
   42DOPE  H16Y 5411   1.101   3.997   4.594 -0.3589  0.4419 -1.1608
   42DOPE  C317 5412   1.005   3.936   4.783  0.1449  0.0184 -0.1037
   42DOPE  H17X 5413   1.063   3.845   4.809 -0.5481 -0.5970 -0.6722
   42DOPE  H17Y 5414   1.061   4.022   4.826  1.9008 -1.0891 -0.1047
   42DOPE  C318 5415   0.864   3.939   4.840 -0.5589  0.7827 -0.8921
   42DOPE  H18X 5416   0.834   3.832   4.848  1.3939 -0.0732 -3.6130
   42DOPE  H18Y 5417   0.849   3.986   4.940 -1.9998 -0.7770 -0.3222
   42DOPE  H18Z 5418   0.788   3.982   4.771 -3.4847 -0.5660  1.2407
   43DOPE     N 5419   7.190   2.484   2.267  0.3136 -0.3561 -0.8618
   43DOPE   HN1 5420   7.097   2.510   2.228  0.7421  0.8316 -1.1193
   43DOPE   HN2 5421   7.257   2.556   2.233  0.3817 -0.2452 -0.4890
   43DOPE   HN3 5422   7.215   2.391   2.226  1.4246 -0.8094  0.7456
   43DOPE   C12 5423   7.199   2.473   2.423 -0.3431 -0.1776  0.2746
   43DOPE  H12A 5424   7.098   2.456   2.467 -0.4303 -0.0480  0.1282
   43DOPE  H12B 5425   7.246   2.567   2.459 -0.4171 -0.5775  1.4254
   43DOPE   C11 5426   7.274   2.346   2.456 -0.1632  0.0655 -0.0843
   43DOPE  H11A 5427   7.307   2.340   2.563  0.6219 -1.8364 -0.3753
   43DOPE  H11B 5428   7.368   2.341   2.396 -0.0540 -1.4578  0.1633
   43DOPE     P 5429   7.226   2.084   2.489  0.3107  0.0424  0.3483
   43DOPE   O13 5430   7.321   2.098   2.600 -0.3037  0.4009  0.1184
   43DOPE   O14 5431   7.268   2.002   2.372  0.1408 -0.2274 -0.1076
   43DOPE   O11 5432   7.088   2.031   2.551  0.4134 -0.4415 -0.0544
   43DOPE   O12 5433   7.199   2.223   2.429  0.8847 -0.4054  0.2296
   43DOPE    C1 5434   6.999   2.130   2.616 -0.7066  0.5802  1.0821
   43DOPE    HA 5435   6.892   2.101   2.603 -0.2121 -0.6124 -0.7824
   43DOPE    HB 5436   7.000   2.229   2.565 -0.4291  0.4634  0.8544
   43DOPE    C2 5437   7.020   2.149   2.766 -0.6122  0.2199  0.1515
   43DOPE    HS 5438   7.116   2.200   2.785  0.3623 -2.0661  1.8013
   43DOPE   O21 5439   7.029   2.017   2.834 -0.4481 -0.1862 -0.7331
   43DOPE   C21 5440   7.124   2.001   2.926 -0.2834 -0.3460  0.1760
   43DOPE   O22 5441   7.209   2.087   2.945  0.0856  0.5979  0.2271
   43DOPE   C22 5442   7.101   1.866   3.000 -0.0609  0.6675  0.3828
   43DOPE   H2R 5443   7.197   1.811   2.986 -0.7325 -0.3597 -0.3397
   43DOPE   H2S 5444   7.023   1.817   2.937  0.9483  3.9297 -3.8455
   43DOPE    C3 5445   6.897   2.237   2.821 -0.0259 -0.0804  0.4082
   43DOPE    HX 5446   6.810   2.172   2.799  2.1635 -2.4919 -1.6757
   43DOPE    HY 5447   6.886   2.318   2.746  0.3974 -0.1533  0.2664
   43DOPE   O31 5448   6.908   2.273   2.960 -0.0697 -0.6714 -0.1155
   43DOPE   C31 5449   6.971   2.395   2.983  0.3792  0.6640 -0.4679
   43DOPE   O32 5450   7.020   2.461   2.896  0.1687  0.5042  0.2561
   43DOPE   C32 5451   6.984   2.426   3.136  0.3669 -0.3100  0.0262
   43DOPE   H2X 5452   7.059   2.506   3.150  0.1635  0.1765 -1.4212
   43DOPE   H2Y 5453   6.884   2.464   3.168  0.4924  0.0670 -0.0171
   43DOPE   C23 5454   7.065   1.880   3.144  0.3953 -0.2635 -0.2525
   43DOPE   H3R 5455   7.016   1.781   3.156  0.4963 -0.4103 -1.0327
   43DOPE   H3S 5456   6.986   1.957   3.156 -0.1065 -0.9986  1.5040
   43DOPE   C24 5457   7.178   1.895   3.247 -0.2535 -0.6962 -0.2537
   43DOPE   H4R 5458   7.221   1.997   3.241  0.7564 -0.8214  2.9597
   43DOPE   H4S 5459   7.266   1.832   3.223 -0.0790  0.3991 -2.8806
   43DOPE   C25 5460   7.145   1.898   3.394  0.5625  0.2340 -0.3145
   43DOPE   H5R 5461   7.046   1.948   3.410  0.2200 -0.8996  1.3441
   43DOPE   H5S 5462   7.217   1.953   3.458  0.1148  1.1547 -0.5715
   43DOPE   C26 5463   7.131   1.754   3.463 -0.2294 -0.9288 -0.3370
   43DOPE   H6R 5464   7.232   1.709   3.476  0.7029  0.0078 -3.4289
   43DOPE   H6S 5465   7.073   1.686   3.398 -1.4566  0.1569 -0.4090
   43DOPE   C27 5466   7.056   1.754   3.589  0.2763 -1.4690 -1.1333
   43DOPE   H7R 5467   7.033   1.648   3.610 -2.4265 -0.6435  0.5187
   43DOPE   H7S 5468   6.959   1.805   3.569  1.9016  2.4264 -0.0746
   43DOPE   C28 5469   7.128   1.838   3.702  0.3813  0.8137  0.0152
   43DOPE   H8R 5470   7.144   1.940   3.661 -0.6631  0.6014 -0.9694
   43DOPE   H8S 5471   7.227   1.801   3.736 -0.2528  0.8952  2.0712
   43DOPE   C29 5472   7.033   1.850   3.815 -0.2077 -1.3871  0.0007
   43DOPE   H9R 5473   6.931   1.886   3.795 -0.2108 -0.5394  1.3918
   43DOPE  C210 5474   7.056   1.826   3.942  0.0320 -0.4413  0.5519
   43DOPE  H10R 5475   6.973   1.834   4.015 -0.5970 -0.8643 -0.1109
   43DOPE  C211 5476   7.185   1.787   4.004 -0.5421 -0.2246 -0.3658
   43DOPE  H11R 5477   7.274   1.767   3.941 -0.7440  0.7875 -1.0093
   43DOPE  H11S 5478   7.160   1.691   4.054 -0.9658  0.9267  1.7548
   43DOPE  C212 5479   7.236   1.894   4.106 -0.0963 -0.1626 -0.1917
   43DOPE  H12R 5480   7.245   1.991   4.053  1.6716 -0.3310 -0.2434
   43DOPE  H12S 5481   7.343   1.869   4.119  0.1413 -0.1145 -1.8462
   43DOPE  C213 5482   7.164   1.884   4.243 -0.2981 -0.3488  0.3440
   43DOPE  H13R 5483   7.162   1.779   4.280 -2.4461 -0.2315  0.6968
   43DOPE  H13S 5484   7.057   1.914   4.237 -0.8993 -1.2434  4.0501
   43DOPE  C214 5485   7.241   1.956   4.357 -0.9551 -0.0414 -0.8399
   43DOPE  H14R 5486   7.338   1.909   4.381  0.1050  1.5330 -1.8312
   43DOPE  H14S 5487   7.184   1.961   4.452  1.8483 -0.9217  0.9849
   43DOPE  C215 5488   7.275   2.103   4.316 -0.2885 -0.3275  0.3509
   43DOPE  H15R 5489   7.203   2.177   4.357  1.1600  1.6611 -0.5447
   43DOPE  H15S 5490   7.266   2.106   4.205  1.5911  2.3631  0.1832
   43DOPE  C216 5491   7.419   2.148   4.342 -0.1329  0.4575 -0.0794
   43DOPE  H16R 5492   7.433   2.241   4.283 -0.9923  1.6751  1.5404
   43DOPE  H16S 5493   7.484   2.066   4.305 -0.1164  0.1264  0.6702
   43DOPE  C217 5494   7.447   2.203   4.487 -0.1638  0.4600  0.3217
   43DOPE  H17R 5495   7.424   2.312   4.487  0.4000  0.6038 -1.2745
   43DOPE  H17S 5496   7.557   2.200   4.501  0.0417 -0.5080 -1.1969
   43DOPE  C218 5497   7.382   2.124   4.605 -0.6487 -0.1096  0.5861
   43DOPE  H18R 5498   7.404   2.183   4.696 -2.1604  0.1195  0.8372
   43DOPE  H18S 5499   7.418   2.019   4.609 -3.9224 -1.3424  0.8589
   43DOPE  H18T 5500   7.272   2.120   4.592 -0.6583  0.6973  0.3614
   43DOPE   C33 5501   7.022   2.310   3.234  0.5415  0.1399  0.3337
   43DOPE   H3X 5502   7.120   2.267   3.206  0.1890  0.5370 -1.5916
   43DOPE   H3Y 5503   6.954   2.223   3.225  1.3197 -0.6716  1.8832
   43DOPE   C34 5504   7.013   2.359   3.379  0.0359 -0.1231  0.2447
   43DOPE   H4X 5505   7.098   2.431   3.389  1.3950 -0.9738 -3.4483
   43DOPE   H4Y 5506   6.916   2.409   3.399  0.7972  0.8916  1.5527
   43DOPE   C35 5507   7.038   2.249   3.487 -0.0648  0.1825  0.6508
   43DOPE   H5X 5508   7.137   2.203   3.467  0.4885  0.8995  1.6594
   43DOPE   H5Y 5509   6.963   2.169   3.474  0.4491 -0.0461 -1.0974
   43DOPE   C36 5510   7.044   2.308   3.633  0.2858  0.1735 -0.3706
   43DOPE   H6X 5511   6.949   2.363   3.652 -0.6511 -0.3322 -3.1492
   43DOPE   H6Y 5512   7.126   2.384   3.633  0.5012 -0.0135 -2.0390
   43DOPE   C37 5513   7.069   2.197   3.737  0.1870  0.5340 -0.6085
   43DOPE   H7X 5514   6.981   2.129   3.740  1.4498 -1.1552 -0.6422
   43DOPE   H7Y 5515   7.163   2.152   3.697 -0.3772 -0.9968 -0.2796
   43DOPE   C38 5516   7.091   2.247   3.882  0.1827 -0.0931  0.1989
   43DOPE   H8X 5517   7.167   2.326   3.864  0.3334 -0.5653 -1.3883
   43DOPE   H8Y 5518   7.131   2.176   3.957  0.1714  1.3326  1.6055
   43DOPE   C39 5519   6.961   2.292   3.949 -0.0300 -0.3938 -0.7962
   43DOPE   H9X 5520   6.894   2.214   3.987  1.0505 -0.1416  1.8776
   43DOPE  C310 5521   6.924   2.423   3.969 -0.0715 -0.1464 -0.3500
   43DOPE  H10X 5522   6.834   2.444   4.028  0.5924  0.5054  0.4483
   43DOPE  C311 5523   6.997   2.553   3.926 -0.0046 -0.5788  0.3039
   43DOPE  H11X 5524   7.051   2.535   3.831  1.0606 -0.8605  0.9453
   43DOPE  H11Y 5525   6.921   2.632   3.906  0.6544  0.3441  1.2987
   43DOPE  C312 5526   7.097   2.603   4.027 -0.5524  0.5473 -0.4328
   43DOPE  H12X 5527   7.141   2.698   3.989  1.1095 -0.2185 -0.5303
   43DOPE  H12Y 5528   7.188   2.539   4.033  0.7697  2.2711 -1.2441
   43DOPE  C313 5529   7.045   2.622   4.172 -0.6677  0.2048 -0.9409
   43DOPE  H13X 5530   6.967   2.698   4.150 -0.3496 -0.0152 -3.0415
   43DOPE  H13Y 5531   7.003   2.529   4.216 -0.0801 -0.5331 -1.9010
   43DOPE  C314 5532   7.157   2.671   4.257  0.2615  0.4523 -0.7898
   43DOPE  H14X 5533   7.182   2.773   4.222  0.9039 -0.4544 -3.1602
   43DOPE  H14Y 5534   7.257   2.623   4.246  0.4036  0.4669  0.3349
   43DOPE  C315 5535   7.118   2.673   4.405  0.7382  0.7573  0.0131
   43DOPE  H15X 5536   7.082   2.573   4.440 -1.6344  0.4152 -2.9281
   43DOPE  H15Y 5537   7.033   2.743   4.423  1.0047  0.9631  0.4802
   43DOPE  C316 5538   7.231   2.715   4.496  0.2064 -0.4716  0.4221
   43DOPE  H16X 5539   7.287   2.805   4.462 -3.1805  1.3877 -0.6894
   43DOPE  H16Y 5540   7.293   2.623   4.506 -1.2343 -1.4246  0.8749
   43DOPE  C317 5541   7.177   2.744   4.634  0.9955 -0.3338  0.9576
   43DOPE  H17X 5542   7.118   2.836   4.618  0.1785 -1.1185 -0.7267
   43DOPE  H17Y 5543   7.099   2.668   4.655 -1.0806  0.9072 -1.7725
   43DOPE  C318 5544   7.279   2.760   4.745 -0.0959  0.0365  0.0758
   43DOPE  H18X 5545   7.244   2.812   4.837  1.1226  0.2599  0.4289
   43DOPE  H18Y 5546   7.330   2.665   4.770 -0.3862 -0.3342 -0.7048
   43DOPE  H18Z 5547   7.365   2.821   4.710  1.1142 -1.2425  0.7291
   44DOPE     N 5548   3.633   7.038   3.052  0.2104  0.4707  0.1885
   44DOPE   HN1 5549   3.604   7.059   3.149  1.0178 -0.0581  0.5597
   44DOPE   HN2 5550   3.586   6.955   3.011  1.8957 -0.5933  0.2988
   44DOPE   HN3 5551   3.735   7.017   3.053 -0.1822 -1.7389  0.0494
   44DOPE   C12 5552   3.596   7.155   2.967 -0.0943 -0.5623 -0.2204
   44DOPE  H12A 5553   3.616   7.133   2.859  1.0164  1.5463 -0.4833
   44DOPE  H12B 5554   3.662   7.238   2.999  1.1367 -0.9661 -1.5801
   44DOPE   C11 5555   3.448   7.185   2.983 -0.2824  0.7196  0.5363
   44DOPE  H11A 5556   3.430   7.278   2.924  1.0664  1.6976  1.6146
   44DOPE  H11B 5557   3.426   7.205   3.090  1.0858  0.5158  0.8779
   44DOPE     P 5558   3.285   6.984   3.004  0.0724 -0.4994  0.1775
   44DOPE   O13 5559   3.375   6.876   3.050 -0.1651  0.5215  0.4168
   44DOPE   O14 5560   3.170   6.950   2.914  0.8234 -0.5039  0.1970
   44DOPE   O11 5561   3.232   7.062   3.129  0.3510  0.6875 -0.0574
   44DOPE   O12 5562   3.379   7.079   2.919 -0.8494 -0.0853  0.1096
   44DOPE    C1 5563   3.119   7.138   3.109  0.2101  0.1852  0.2790
   44DOPE    HA 5564   3.030   7.072   3.115 -0.6384  1.0690 -1.7707
   44DOPE    HB 5565   3.111   7.196   3.015 -1.0534  2.3707  1.6518
   44DOPE    C2 5566   3.109   7.247   3.225 -0.5548  0.6187 -1.2708
   44DOPE    HS 5567   3.202   7.308   3.215 -0.0805 -0.0216 -0.8256
   44DOPE   O21 5568   3.090   7.193   3.359  0.4465 -0.2905  0.3217
   44DOPE   C21 5569   3.207   7.149   3.418  0.2351  0.3495 -0.5076
   44DOPE   O22 5570   3.319   7.160   3.378 -0.4917 -0.1856 -0.1877
   44DOPE   C22 5571   3.174   7.104   3.563  0.2447 -0.0498  0.7460
   44DOPE   H2R 5572   3.125   7.005   3.564  0.2579 -0.0549  1.2098
   44DOPE   H2S 5573   3.112   7.184   3.609 -1.5431 -2.1895  2.2331
   44DOPE    C3 5574   2.985   7.331   3.197 -0.4423 -0.5283 -0.3040
   44DOPE    HX 5575   2.895   7.265   3.195  0.2362 -1.4468 -1.2201
   44DOPE    HY 5576   2.991   7.377   3.097 -0.9390  0.3547  0.0565
   44DOPE   O31 5577   2.969   7.440   3.298  0.0135 -0.9036 -0.1925
   44DOPE   C31 5578   3.014   7.557   3.264 -0.4195  0.0720 -0.5317
   44DOPE   O32 5579   3.072   7.582   3.158 -0.2292  0.0258 -0.3890
   44DOPE   C32 5580   2.983   7.655   3.380 -0.3259 -0.4004 -0.3147
   44DOPE   H2X 5581   2.887   7.616   3.418  0.4015 -2.1641 -0.2205
   44DOPE   H2Y 5582   3.069   7.653   3.451  0.5125  1.5764 -1.1672
   44DOPE   C23 5583   3.300   7.083   3.646 -0.4291  0.2121 -0.3538
   44DOPE   H3R 5584   3.372   7.166   3.662 -1.3184  0.8189  0.6187
   44DOPE   H3S 5585   3.355   7.000   3.597 -1.3895 -0.4245 -0.3817
   44DOPE   C24 5586   3.269   7.032   3.788  0.4092 -0.5312 -0.6021
   44DOPE   H4R 5587   3.250   6.923   3.779  3.3466 -1.0461 -1.6806
   44DOPE   H4S 5588   3.184   7.093   3.824  0.5718 -0.7645  0.1989
   44DOPE   C25 5589   3.395   7.034   3.876 -0.3820 -0.4872 -0.4047
   44DOPE   H5R 5590   3.413   7.143   3.890 -0.0234 -0.8225  2.1721
   44DOPE   H5S 5591   3.486   7.001   3.821 -0.1494  1.0693 -1.0118
   44DOPE   C26 5592   3.379   6.986   4.019 -0.3816 -0.3072 -0.1089
   44DOPE   H6R 5593   3.317   6.894   4.018 -2.1875  0.6626  3.5895
   44DOPE   H6S 5594   3.324   7.065   4.074 -0.8984  0.8136 -2.1044
   44DOPE   C27 5595   3.519   6.966   4.078 -0.3335  0.0894 -0.4084
   44DOPE   H7R 5596   3.565   7.067   4.086  0.0545 -0.0575 -0.7840
   44DOPE   H7S 5597   3.583   6.916   4.003  0.3161 -0.3586  0.4199
   44DOPE   C28 5598   3.525   6.886   4.210 -0.2463  0.7670 -0.2573
   44DOPE   H8R 5599   3.458   6.929   4.287 -0.9271 -1.1015  0.2479
   44DOPE   H8S 5600   3.630   6.866   4.242 -0.8516 -2.0140  0.2555
   44DOPE   C29 5601   3.489   6.742   4.192 -0.0365 -0.1580 -0.1337
   44DOPE   H9R 5602   3.479   6.713   4.086  0.3400  0.1206 -0.2499
   44DOPE  C210 5603   3.472   6.657   4.293 -0.0547 -0.0928 -0.2090
   44DOPE  H10R 5604   3.439   6.554   4.274  0.0905 -0.3021  0.6290
   44DOPE  C211 5605   3.491   6.691   4.443  0.2400  0.5432  0.7081
   44DOPE  H11R 5606   3.402   6.683   4.509  1.0189  0.3769  1.7709
   44DOPE  H11S 5607   3.529   6.795   4.454 -0.0643  0.7316  0.0488
   44DOPE  C212 5608   3.569   6.585   4.527  0.9660  0.0935  0.4856
   44DOPE  H12R 5609   3.662   6.560   4.470  0.5761  1.0099 -0.5929
   44DOPE  H12S 5610   3.496   6.501   4.538 -0.9145  1.5755 -0.1763
   44DOPE  C213 5611   3.611   6.631   4.673  0.5150 -0.0897  0.6864
   44DOPE  H13R 5612   3.524   6.686   4.715 -0.5709 -0.9594 -0.3455
   44DOPE  H13S 5613   3.697   6.699   4.653  0.0866 -0.0108 -1.0041
   44DOPE  C214 5614   3.644   6.509   4.754  0.0383 -0.2134  0.6333
   44DOPE  H14R 5615   3.710   6.447   4.690 -2.6871 -2.2839 -0.3861
   44DOPE  H14S 5616   3.556   6.442   4.765  0.3518 -0.5172  1.3495
   44DOPE  C215 5617   3.694   6.547   4.887 -0.4746  0.6458  0.4184
   44DOPE  H15R 5618   3.666   6.649   4.923  0.7629  0.9217  0.6365
   44DOPE  H15S 5619   3.804   6.563   4.892 -0.5104  0.5511  2.2127
   44DOPE  C216 5620   3.657   6.458   5.000  0.2977  0.1382 -0.6403
   44DOPE  H16R 5621   3.686   6.353   4.978  1.5190 -0.4205  2.9410
   44DOPE  H16S 5622   3.546   6.461   5.012  0.4786  2.4227  1.0768
   44DOPE  C217 5623   3.712   6.500   5.135 -0.1187  0.0178 -0.4257
   44DOPE  H17R 5624   3.671   6.600   5.160  0.7884  0.2719  0.0621
   44DOPE  H17S 5625   3.823   6.510   5.132 -0.0990  1.7048  2.3192
   44DOPE  C218 5626   3.678   6.401   5.250 -0.5981 -0.1967 -0.2302
   44DOPE  H18R 5627   3.690   6.294   5.221  0.6834  0.2385 -1.4054
   44DOPE  H18S 5628   3.577   6.430   5.285  0.2651  2.0150  0.6104
   44DOPE  H18T 5629   3.743   6.416   5.339 -2.9402  0.0588  1.5097
   44DOPE   C33 5630   2.959   7.798   3.334 -0.9579  0.5128  0.2224
   44DOPE   H3X 5631   2.876   7.800   3.260  0.5481  2.7471 -1.5459
   44DOPE   H3Y 5632   3.053   7.836   3.287 -0.7077  0.7681  0.9120
   44DOPE   C34 5633   2.932   7.893   3.449  0.2395 -0.0907  0.5859
   44DOPE   H4X 5634   2.844   7.847   3.500 -0.1894 -0.5290 -0.5042
   44DOPE   H4Y 5635   3.021   7.893   3.514  1.6653  3.5418 -1.1278
   44DOPE   C35 5636   2.893   8.035   3.412 -0.0243  0.4708  0.1474
   44DOPE   H5X 5637   2.816   8.052   3.334 -1.7141  0.2474  1.7001
   44DOPE   H5Y 5638   2.989   8.081   3.380  0.0033  1.1069  1.0913
   44DOPE   C36 5639   2.849   8.109   3.540  0.2159 -0.3371 -0.0688
   44DOPE   H6X 5640   2.936   8.120   3.608  0.9957  2.7196 -1.3902
   44DOPE   H6Y 5641   2.774   8.037   3.580  0.5356 -0.5736  0.1134
   44DOPE   C37 5642   2.794   8.248   3.515 -0.1356  0.8569  0.1568
   44DOPE   H7X 5643   2.868   8.298   3.449 -0.2814 -0.6919 -1.2449
   44DOPE   H7Y 5644   2.707   8.227   3.450  1.1870 -0.8243 -1.1396
   44DOPE   C38 5645   2.762   8.319   3.640  0.1526 -0.6890 -0.7149
   44DOPE   H8X 5646   2.763   8.426   3.612 -0.0822 -0.1465  1.1831
   44DOPE   H8Y 5647   2.847   8.323   3.712 -0.6477  0.5639  0.1878
   44DOPE   C39 5648   2.632   8.276   3.701 -0.6962  1.1270  0.0520
   44DOPE   H9X 5649   2.550   8.311   3.636 -1.0193 -0.4968 -0.4519
   44DOPE  C310 5650   2.602   8.197   3.809  0.1599 -0.4656  0.1831
   44DOPE  H10X 5651   2.499   8.170   3.837 -0.6547  0.4947 -1.7154
   44DOPE  C311 5652   2.698   8.134   3.904 -0.6074 -0.9747 -0.0085
   44DOPE  H11X 5653   2.797   8.186   3.901 -0.8952 -0.2120  2.0554
   44DOPE  H11Y 5654   2.665   8.143   4.010 -0.0023  1.7514  0.0080
   44DOPE  C312 5655   2.716   7.984   3.875  0.2353  0.3175  0.1281
   44DOPE  H12X 5656   2.717   7.957   3.767 -0.0085  2.4446 -0.4425
   44DOPE  H12Y 5657   2.622   7.934   3.906 -0.6763 -0.8820 -3.9056
   44DOPE  C313 5658   2.837   7.924   3.945  0.0133 -0.1023 -0.0501
   44DOPE  H13X 5659   2.839   7.981   4.041  0.1169 -0.5807  0.2350
   44DOPE  H13Y 5660   2.815   7.816   3.959 -1.3041 -0.0517 -1.4753
   44DOPE  C314 5661   2.966   7.941   3.863  0.9082 -1.0191  0.7033
   44DOPE  H14X 5662   2.993   8.047   3.839  2.0190 -0.6661  3.2087
   44DOPE  H14Y 5663   2.949   7.887   3.768  1.0324  2.5797 -1.5842
   44DOPE  C315 5664   3.091   7.875   3.936 -0.2648 -0.0752 -0.8584
   44DOPE  H15X 5665   3.059   7.773   3.967  2.6849 -0.3454  1.7823
   44DOPE  H15Y 5666   3.101   7.932   4.031 -1.6517 -0.1180 -0.6592
   44DOPE  C316 5667   3.225   7.880   3.858 -0.8643 -0.0642 -0.2352
   44DOPE  H16X 5668   3.248   7.983   3.826  1.6137  0.1012  1.7107
   44DOPE  H16Y 5669   3.218   7.830   3.759 -0.6578 -1.3412  0.3636
   44DOPE  C317 5670   3.343   7.831   3.951 -0.8101  0.0743  0.7875
   44DOPE  H17X 5671   3.348   7.885   4.048  0.0743 -0.1699  0.8781
   44DOPE  H17Y 5672   3.335   7.721   3.968 -0.6985  0.0751  0.8385
   44DOPE  C318 5673   3.485   7.836   3.877 -0.2625  0.4075 -0.7595
   44DOPE  H18X 5674   3.566   7.817   3.951  0.1452  0.3425 -1.2230
   44DOPE  H18Y 5675   3.481   7.753   3.803 -1.9168  0.5007 -0.8184
   44DOPE  H18Z 5676   3.493   7.935   3.827 -0.6534  0.2433 -1.1508
   45DOPE     N 5677   2.513   1.226   2.953 -0.1810 -0.3885  0.0704
   45DOPE   HN1 5678   2.542   1.312   3.003  0.3356 -0.5086 -0.0206
   45DOPE   HN2 5679   2.522   1.247   2.852  1.9965  0.1067  0.3334
   45DOPE   HN3 5680   2.409   1.217   2.958 -0.1668 -2.1137 -1.5538
   45DOPE   C12 5681   2.597   1.117   3.003  0.1185 -0.1262 -0.0769
   45DOPE  H12A 5682   2.581   1.022   2.948  1.0460  0.6219 -1.7020
   45DOPE  H12B 5683   2.568   1.098   3.109 -0.5054  0.5750 -0.1129
   45DOPE   C11 5684   2.748   1.149   2.996  0.1373 -0.1957 -0.1373
   45DOPE  H11A 5685   2.793   1.053   3.028  1.6262  0.4749 -0.1182
   45DOPE  H11B 5686   2.782   1.223   3.071  1.0490 -0.8000  0.0616
   45DOPE     P 5687   2.887   1.114   2.777 -0.3179 -0.0373 -0.3246
   45DOPE   O13 5688   2.849   1.139   2.638  0.8474 -0.5318  0.5250
   45DOPE   O14 5689   2.900   0.974   2.814 -0.6996  0.2151 -0.7502
   45DOPE   O11 5690   3.017   1.186   2.813 -0.4040 -0.1439 -0.3038
   45DOPE   O12 5691   2.777   1.192   2.868  0.1120  0.8838  0.0352
   45DOPE    C1 5692   3.078   1.143   2.940  0.4565 -0.2095  0.1617
   45DOPE    HA 5693   3.144   1.056   2.917 -0.2488 -0.3622 -1.4344
   45DOPE    HB 5694   3.002   1.105   3.011  0.3527 -2.7388 -1.1794
   45DOPE    C2 5695   3.163   1.257   2.999  0.8637  0.1696 -0.2145
   45DOPE    HS 5696   3.252   1.209   3.044 -0.2986 -0.4525  1.5264
   45DOPE   O21 5697   3.090   1.339   3.089 -0.0390  0.1341  0.3724
   45DOPE   C21 5698   3.059   1.277   3.207  0.1414 -0.6882  0.1048
   45DOPE   O22 5699   3.096   1.169   3.236  0.0214  0.5492 -0.1555
   45DOPE   C22 5700   2.969   1.371   3.290 -0.2228  0.1141 -0.5369
   45DOPE   H2R 5701   2.866   1.374   3.249 -0.1947  0.3599 -0.5895
   45DOPE   H2S 5702   3.001   1.477   3.287 -1.3434  0.5506  1.5166
   45DOPE    C3 5703   3.222   1.350   2.886 -0.3374 -0.3638  0.2711
   45DOPE    HX 5704   3.138   1.380   2.821  0.0764 -1.0387 -0.5939
   45DOPE    HY 5705   3.286   1.294   2.814 -0.2627 -0.1632  0.1812
   45DOPE   O31 5706   3.280   1.471   2.936 -0.4448 -0.1940  0.1309
   45DOPE   C31 5707   3.407   1.457   2.964 -0.5595  0.3550 -0.4511
   45DOPE   O32 5708   3.470   1.350   2.953  0.2291 -0.1370  0.9891
   45DOPE   C32 5709   3.470   1.585   3.011  0.4554 -0.3673  0.0429
   45DOPE   H2X 5710   3.578   1.564   2.997  0.2525 -1.1545 -0.4380
   45DOPE   H2Y 5711   3.438   1.666   2.941 -0.3746  0.7470  1.6536
   45DOPE   C23 5712   2.952   1.347   3.448 -0.0153 -0.6823  0.0512
   45DOPE   H3R 5713   2.890   1.258   3.473 -2.1340  0.9195  0.7692
   45DOPE   H3S 5714   2.892   1.425   3.500  0.9597 -1.1726  2.0346
   45DOPE   C24 5715   3.078   1.340   3.538  0.4399  0.3218 -0.1148
   45DOPE   H4R 5716   3.141   1.431   3.549  2.1389 -0.6196 -1.5540
   45DOPE   H4S 5717   3.141   1.255   3.504 -1.0454 -1.3331  1.0795
   45DOPE   C25 5718   3.035   1.295   3.675 -0.5642 -0.3915  0.3027
   45DOPE   H5R 5719   2.996   1.191   3.675  1.6471 -1.3151 -1.3351
   45DOPE   H5S 5720   2.961   1.365   3.720 -1.2090 -3.2896  4.2799
   45DOPE   C26 5721   3.159   1.298   3.766 -0.0404 -0.1705 -0.2443
   45DOPE   H6R 5722   3.118   1.305   3.869  0.3816  2.2580 -0.1739
   45DOPE   H6S 5723   3.212   1.394   3.747 -0.5894  0.2520  0.3177
   45DOPE   C27 5724   3.265   1.190   3.748 -0.1620  0.2997  0.2624
   45DOPE   H7R 5725   3.338   1.215   3.668  0.5607 -2.5017 -0.0640
   45DOPE   H7S 5726   3.209   1.100   3.717  0.8942  0.6846 -3.2113
   45DOPE   C28 5727   3.350   1.164   3.874 -0.1981 -0.7237  0.6983
   45DOPE   H8R 5728   3.424   1.085   3.851  1.2292  0.4372  1.1301
   45DOPE   H8S 5729   3.281   1.130   3.955 -1.6841 -0.6991 -0.5183
   45DOPE   C29 5730   3.425   1.283   3.922 -0.0969 -0.0447 -0.1540
   45DOPE   H9R 5731   3.412   1.383   3.877 -0.5943  0.0705  0.2265
   45DOPE  C210 5732   3.498   1.300   4.030 -0.2772  0.2181 -0.5645
   45DOPE  H10R 5733   3.535   1.398   4.065 -1.8587  0.1797  1.3948
   45DOPE  C211 5734   3.522   1.183   4.133  0.0173 -0.1471 -0.1849
   45DOPE  H11R 5735   3.627   1.151   4.114  0.6382  1.3587  0.5927
   45DOPE  H11S 5736   3.448   1.102   4.116 -0.0795 -0.4900  1.7398
   45DOPE  C212 5737   3.513   1.227   4.280  0.1968 -0.4939 -0.3351
   45DOPE  H12R 5738   3.577   1.316   4.300 -0.9929  0.0926  1.0361
   45DOPE  H12S 5739   3.554   1.148   4.346  2.3605 -0.8266 -1.9620
   45DOPE  C213 5740   3.378   1.270   4.332  0.2507 -0.5898  0.1065
   45DOPE  H13R 5741   3.315   1.181   4.351 -1.4593  0.8529  1.7065
   45DOPE  H13S 5742   3.334   1.331   4.250 -1.8916  0.3279  1.8007
   45DOPE  C214 5743   3.386   1.360   4.452 -0.4751 -0.0262 -0.3816
   45DOPE  H14R 5744   3.288   1.411   4.464 -0.4907 -0.3090  0.8155
   45DOPE  H14S 5745   3.465   1.435   4.427  0.8698 -1.0438  0.6624
   45DOPE  C215 5746   3.421   1.286   4.584 -0.0492  0.7941  0.7942
   45DOPE  H15R 5747   3.522   1.241   4.574 -0.1705  0.9720 -1.8311
   45DOPE  H15S 5748   3.356   1.196   4.593 -0.5567  1.0880  0.1329
   45DOPE  C216 5749   3.427   1.374   4.707  0.1935 -0.3611 -1.1198
   45DOPE  H16R 5750   3.352   1.456   4.709  1.9147  1.5213  4.3175
   45DOPE  H16S 5751   3.525   1.426   4.699  0.3855 -0.1292  1.6851
   45DOPE  C217 5752   3.404   1.292   4.836  0.6711 -0.4190  0.1522
   45DOPE  H17R 5753   3.471   1.204   4.829  0.5543 -0.4318 -1.0050
   45DOPE  H17S 5754   3.295   1.271   4.837 -0.1158  2.8981 -1.5481
   45DOPE  C218 5755   3.442   1.365   4.969 -0.0381 -0.3050 -0.5719
   45DOPE  H18R 5756   3.433   1.299   5.059  0.4029  1.0052  0.4694
   45DOPE  H18S 5757   3.376   1.454   4.980 -1.3810 -1.5532  3.4644
   45DOPE  H18T 5758   3.546   1.404   4.960 -0.5871  1.0434 -1.3991
   45DOPE   C33 5759   3.424   1.640   3.146  0.3354  0.4874 -0.1656
   45DOPE   H3X 5760   3.317   1.619   3.169  0.9691 -0.8772  1.7336
   45DOPE   H3Y 5761   3.421   1.752   3.146  1.2752  0.5373 -1.4590
   45DOPE   C34 5762   3.513   1.601   3.263  0.6190  0.5628  0.5538
   45DOPE   H4X 5763   3.512   1.493   3.286  1.5819  0.0254 -1.6782
   45DOPE   H4Y 5764   3.619   1.632   3.248  0.7224 -0.0797 -0.1152
   45DOPE   C35 5765   3.458   1.659   3.400  0.0735  0.8578 -0.3069
   45DOPE   H5X 5766   3.351   1.637   3.418  0.3291  0.6274  1.0311
   45DOPE   H5Y 5767   3.468   1.768   3.379  1.3430  0.8193 -0.0076
   45DOPE   C36 5768   3.559   1.629   3.509 -0.2384  1.2467 -0.1692
   45DOPE   H6X 5769   3.662   1.636   3.470 -0.4252  0.9644 -0.7214
   45DOPE   H6Y 5770   3.554   1.520   3.529  0.9765  1.6650  2.9964
   45DOPE   C37 5771   3.520   1.690   3.642 -0.2536 -1.3620  0.6487
   45DOPE   H7X 5772   3.541   1.798   3.652  0.6564 -1.5266  0.6040
   45DOPE   H7Y 5773   3.411   1.689   3.662 -0.3363 -0.6410  0.2502
   45DOPE   C38 5774   3.585   1.618   3.759  0.3272  1.4168 -0.4285
   45DOPE   H8X 5775   3.548   1.514   3.750 -0.2614  0.8785  4.7425
   45DOPE   H8Y 5776   3.534   1.656   3.851 -1.2474  0.9687 -1.0915
   45DOPE   C39 5777   3.733   1.639   3.782  0.2449  1.0411  0.6087
   45DOPE   H9X 5778   3.794   1.606   3.696 -1.4087 -1.5856  0.3189
   45DOPE  C310 5779   3.796   1.686   3.893  0.2738 -0.0604 -0.2153
   45DOPE  H10X 5780   3.905   1.671   3.892  0.9740  3.4828  1.9347
   45DOPE  C311 5781   3.733   1.726   4.018 -0.6225  0.3193 -0.8028
   45DOPE  H11X 5782   3.797   1.813   4.047  0.9847 -0.7706 -0.9584
   45DOPE  H11Y 5783   3.630   1.763   3.999 -1.3352 -0.7278  0.7682
   45DOPE  C312 5784   3.752   1.637   4.137  0.5750  0.6060 -0.7872
   45DOPE  H12X 5785   3.856   1.600   4.155  0.6782  0.4404 -1.6746
   45DOPE  H12Y 5786   3.706   1.537   4.118  0.2273  0.2908  1.4235
   45DOPE  C313 5787   3.703   1.695   4.271 -0.6113  0.4651  0.5196
   45DOPE  H13X 5788   3.743   1.791   4.308 -0.4707 -0.2857  2.4562
   45DOPE  H13Y 5789   3.592   1.705   4.271 -0.4960  1.9662  0.8080
   45DOPE  C314 5790   3.757   1.599   4.386  0.4046 -0.5145 -0.1263
   45DOPE  H14X 5791   3.865   1.605   4.362  0.4584 -0.4412  0.1407
   45DOPE  H14Y 5792   3.726   1.493   4.373 -0.3385 -0.2840 -0.2924
   45DOPE  C315 5793   3.729   1.654   4.529 -0.0227 -0.3677 -0.3559
   45DOPE  H15X 5794   3.739   1.569   4.601 -2.7385  0.4522  1.1018
   45DOPE  H15Y 5795   3.624   1.685   4.543 -0.1354 -0.3298 -1.2093
   45DOPE  C316 5796   3.814   1.778   4.563 -0.1596 -0.2324 -0.1874
   45DOPE  H16X 5797   3.755   1.867   4.535  0.9502  1.3020  2.0454
   45DOPE  H16Y 5798   3.911   1.786   4.510 -1.0000 -0.2532 -1.8038
   45DOPE  C317 5799   3.826   1.803   4.718 -0.1197 -0.4381  0.2443
   45DOPE  H17X 5800   3.848   1.703   4.763  0.7019  0.7944  2.7981
   45DOPE  H17Y 5801   3.924   1.850   4.739  0.2160 -1.0468  0.0717
   45DOPE  C318 5802   3.714   1.889   4.775 -0.4195  0.4488 -0.7064
   45DOPE  H18X 5803   3.732   1.990   4.733  1.1697  0.1668 -0.7730
   45DOPE  H18Y 5804   3.615   1.858   4.735 -0.4805 -1.2905  0.6991
   45DOPE  H18Z 5805   3.708   1.890   4.885  0.1600 -0.4166 -0.6539
   46DOPE     N 5806   5.572   0.657   1.892  0.1994  0.0077  0.2414
   46DOPE   HN1 5807   5.496   0.596   1.926  0.2567 -0.0165  0.3270
   46DOPE   HN2 5808   5.548   0.757   1.902  1.1118  0.0215  3.5592
   46DOPE   HN3 5809   5.591   0.632   1.793 -2.5467 -0.1695 -0.3198
   46DOPE   C12 5810   5.689   0.634   1.981  0.5633 -0.4141 -1.1953
   46DOPE  H12A 5811   5.671   0.675   2.083  0.5324  0.0709 -1.3897
   46DOPE  H12B 5812   5.776   0.693   1.945 -0.6474  1.7655 -0.7831
   46DOPE   C11 5813   5.709   0.480   1.990 -0.1864  0.0825  0.3171
   46DOPE  H11A 5814   5.802   0.467   2.049 -0.9415  0.2167  1.5793
   46DOPE  H11B 5815   5.729   0.447   1.886  2.7188  0.3825  0.7098
   46DOPE     P 5816   5.505   0.429   2.163  0.2820 -0.3756 -0.0222
   46DOPE   O13 5817   5.453   0.307   2.212 -0.2565  0.0355 -0.1762
   46DOPE   O14 5818   5.408   0.529   2.117 -0.6383  0.5034 -0.3382
   46DOPE   O11 5819   5.589   0.509   2.271 -0.1689  0.2385 -0.1341
   46DOPE   O12 5820   5.597   0.401   2.041  0.0071  0.0781  0.3065
   46DOPE    C1 5821   5.672   0.443   2.367  0.0586  0.4935 -0.0534
   46DOPE    HA 5822   5.764   0.505   2.373  0.1490  0.2784  0.8112
   46DOPE    HB 5823   5.697   0.344   2.323 -1.1430 -0.0151  0.3842
   46DOPE    C2 5824   5.603   0.426   2.506 -0.0672 -0.6588  0.6783
   46DOPE    HS 5825   5.500   0.394   2.480  0.4220 -0.8125 -1.1910
   46DOPE   O21 5826   5.608   0.554   2.569  0.4326 -0.1784 -0.1949
   46DOPE   C21 5827   5.492   0.596   2.620 -0.6848 -0.6368 -0.2586
   46DOPE   O22 5828   5.390   0.531   2.621 -0.2368  0.6841  0.2360
   46DOPE   C22 5829   5.524   0.740   2.675 -0.1478 -0.0697  0.5336
   46DOPE   H2R 5830   5.525   0.812   2.591 -0.1820  1.4175  1.7615
   46DOPE   H2S 5831   5.626   0.742   2.720  1.0412 -0.0542 -2.0112
   46DOPE    C3 5832   5.673   0.324   2.593  0.0707  0.6697 -1.0546
   46DOPE    HX 5833   5.784   0.318   2.596 -0.0137 -3.9519 -0.5973
   46DOPE    HY 5834   5.648   0.219   2.569  0.0205  0.5657 -0.5527
   46DOPE   O31 5835   5.628   0.331   2.734 -0.3250 -0.1281 -0.0198
   46DOPE   C31 5836   5.709   0.397   2.810 -0.7363  0.5298 -1.0024
   46DOPE   O32 5837   5.815   0.449   2.776  0.2255  0.0161  0.1583
   46DOPE   C32 5838   5.662   0.385   2.962  0.8938 -0.3788  0.0265
   46DOPE   H2X 5839   5.552   0.399   2.963  1.2692  3.6146  0.0335
   46DOPE   H2Y 5840   5.687   0.285   3.006  0.7429 -0.5862 -0.3611
   46DOPE   C23 5841   5.426   0.789   2.789  0.2060  0.2729  0.6049
   46DOPE   H3R 5842   5.330   0.814   2.738 -1.7678 -3.6643  1.9064
   46DOPE   H3S 5843   5.464   0.885   2.828 -2.0323  1.2749  0.5200
   46DOPE   C24 5844   5.402   0.690   2.900  0.0587  0.5203  0.1113
   46DOPE   H4R 5845   5.494   0.632   2.926 -2.2130 -2.1175  2.9864
   46DOPE   H4S 5846   5.329   0.612   2.871 -0.4631  1.4069 -1.0111
   46DOPE   C25 5847   5.339   0.772   3.017  0.2696  0.0294 -0.3220
   46DOPE   H5R 5848   5.230   0.781   3.000  0.0050 -1.8510  0.1883
   46DOPE   H5S 5849   5.391   0.870   3.022  0.2962 -0.0281  0.7921
   46DOPE   C26 5850   5.346   0.697   3.155  0.1833 -0.5375  0.7284
   46DOPE   H6R 5851   5.361   0.768   3.239 -0.6573  0.8559 -0.2512
   46DOPE   H6S 5852   5.436   0.632   3.154  0.1807 -0.5345  0.2131
   46DOPE   C27 5853   5.220   0.620   3.181  0.7295 -0.5599  0.0576
   46DOPE   H7R 5854   5.164   0.598   3.088 -2.1635  1.1623  1.2346
   46DOPE   H7S 5855   5.145   0.682   3.236 -0.4091 -0.7718 -1.2052
   46DOPE   C28 5856   5.247   0.493   3.268  0.2762  0.5854  0.3992
   46DOPE   H8R 5857   5.293   0.521   3.365  0.2734 -0.7518  0.8013
   46DOPE   H8S 5858   5.312   0.423   3.211 -1.2021 -0.3973 -0.1231
   46DOPE   C29 5859   5.117   0.431   3.292 -0.3197  0.2645  0.6290
   46DOPE   H9R 5860   5.078   0.358   3.219 -0.9802  1.1098  0.1178
   46DOPE  C210 5861   5.036   0.457   3.396 -0.1162 -0.5257 -0.2360
   46DOPE  H10R 5862   4.938   0.408   3.410  0.2310 -0.8702  1.1296
   46DOPE  C211 5863   5.070   0.559   3.504  0.0107  0.1905 -0.0534
   46DOPE  H11R 5864   4.978   0.618   3.521 -0.2942 -0.2216 -0.2670
   46DOPE  H11S 5865   5.145   0.634   3.471  1.8223 -0.9431  1.2333
   46DOPE  C212 5866   5.119   0.487   3.638  0.4261 -0.0845 -0.3842
   46DOPE  H12R 5867   5.161   0.565   3.705 -0.2490 -0.4388  0.4771
   46DOPE  H12S 5868   5.193   0.405   3.623  1.0309  0.6871 -1.8040
   46DOPE  C213 5869   4.996   0.434   3.720 -0.0144 -0.5995 -0.5726
   46DOPE  H13R 5870   4.960   0.337   3.678 -1.2152  0.6686 -2.6376
   46DOPE  H13S 5871   4.920   0.514   3.705  0.6863  0.4908  1.3323
   46DOPE  C214 5872   5.024   0.411   3.868  0.0774  0.4915  0.2093
   46DOPE  H14R 5873   4.929   0.404   3.925 -0.4551  2.7365 -0.3453
   46DOPE  H14S 5874   5.079   0.493   3.919  1.1099  1.7322 -2.7080
   46DOPE  C215 5875   5.096   0.280   3.888  0.3263  0.1122 -0.0496
   46DOPE  H15R 5876   5.206   0.287   3.874  0.3026 -1.3104 -1.2621
   46DOPE  H15S 5877   5.055   0.210   3.813 -1.8087  1.2176  0.0235
   46DOPE  C216 5878   5.065   0.223   4.028  0.2899  0.0916  0.0676
   46DOPE  H16R 5879   5.107   0.120   4.040  1.8934  0.6495 -0.4794
   46DOPE  H16S 5880   4.956   0.229   4.049  0.6806  0.6343  2.0618
   46DOPE  C217 5881   5.139   0.297   4.144 -0.2242 -0.4265 -0.0167
   46DOPE  H17R 5882   5.095   0.256   4.238 -0.1346  0.2406  0.3248
   46DOPE  H17S 5883   5.098   0.399   4.128 -1.8255 -1.3115 -1.9955
   46DOPE  C218 5884   5.295   0.290   4.131 -0.3030  0.3389  0.5542
   46DOPE  H18R 5885   5.345   0.344   4.214  0.2828  2.0970 -0.8675
   46DOPE  H18S 5886   5.311   0.342   4.034  1.3789  2.3908  1.8449
   46DOPE  H18T 5887   5.318   0.182   4.130  0.2308  0.3806  2.7472
   46DOPE   C33 5888   5.732   0.494   3.047 -0.5345  0.5331  0.2645
   46DOPE   H3X 5889   5.717   0.594   3.000 -0.7823 -0.1826 -1.2528
   46DOPE   H3Y 5890   5.843   0.485   3.039 -0.5309  0.0524  0.8335
   46DOPE   C34 5891   5.695   0.484   3.192 -0.5707  0.2857 -0.3363
   46DOPE   H4X 5892   5.593   0.526   3.201 -0.2472  0.8232  1.2257
   46DOPE   H4Y 5893   5.700   0.375   3.213  0.5232  0.2772 -0.6043
   46DOPE   C35 5894   5.787   0.562   3.282 -0.2770  0.0419 -0.1347
   46DOPE   H5X 5895   5.775   0.662   3.235  3.9172  0.8601  0.1362
   46DOPE   H5Y 5896   5.892   0.526   3.270 -0.1694  0.2792  0.0760
   46DOPE   C36 5897   5.759   0.558   3.436 -0.1021 -0.5919  0.3016
   46DOPE   H6X 5898   5.819   0.644   3.472 -1.9835  0.5325  0.9542
   46DOPE   H6Y 5899   5.808   0.468   3.477  0.6034 -0.5878 -0.4991
   46DOPE   C37 5900   5.616   0.576   3.469 -0.0004  0.2659  0.1796
   46DOPE   H7X 5901   5.566   0.652   3.405 -1.7298 -0.9421  0.0336
   46DOPE   H7Y 5902   5.560   0.483   3.444  1.4884  0.2766 -3.9256
   46DOPE   C38 5903   5.591   0.608   3.615 -0.1714 -0.0641 -0.5343
   46DOPE   H8X 5904   5.643   0.702   3.645  0.7339 -0.8952  0.5864
   46DOPE   H8Y 5905   5.629   0.525   3.678  0.8552  1.1865  0.5472
   46DOPE   C39 5906   5.445   0.621   3.650 -0.7055  0.5527 -0.7876
   46DOPE   H9X 5907   5.380   0.563   3.581  0.3072  0.5118 -1.7345
   46DOPE  C310 5908   5.390   0.688   3.756  0.6587  0.0844  0.2396
   46DOPE  H10X 5909   5.281   0.704   3.759  1.0938  4.0332  1.8201
   46DOPE  C311 5910   5.470   0.770   3.856  0.1302  1.0826 -0.0389
   46DOPE  H11X 5911   5.573   0.732   3.872  1.0990  2.9175 -1.5276
   46DOPE  H11Y 5912   5.485   0.872   3.814  0.0670  1.3398  0.5637
   46DOPE  C312 5913   5.397   0.791   3.989 -0.3294  0.2446  0.1481
   46DOPE  H12X 5914   5.369   0.695   4.037  3.8783 -1.5700 -0.5544
   46DOPE  H12Y 5915   5.306   0.851   3.969  1.1195  2.2497 -0.8903
   46DOPE  C313 5916   5.481   0.874   4.092 -0.3627  0.2589 -0.1249
   46DOPE  H13X 5917   5.578   0.821   4.092  0.0318  0.8940  2.1014
   46DOPE  H13Y 5918   5.518   0.970   4.051  2.0196 -0.2598  0.6936
   46DOPE  C314 5919   5.429   0.881   4.236  0.2597 -0.3008  0.0302
   46DOPE  H14X 5920   5.404   0.784   4.283  2.7839  0.9429  4.5583
   46DOPE  H14Y 5921   5.347   0.955   4.227 -0.7749 -1.6323 -2.3471
   46DOPE  C315 5922   5.532   0.927   4.332 -0.6563 -0.0914  0.1495
   46DOPE  H15X 5923   5.617   0.857   4.326 -0.9215 -0.3452 -0.8367
   46DOPE  H15Y 5924   5.485   0.918   4.432 -0.7077  0.3339  0.1664
   46DOPE  C316 5925   5.587   1.067   4.326 -0.5515 -0.3914  0.4309
   46DOPE  H16X 5926   5.498   1.134   4.331  0.3146  0.6914  1.7837
   46DOPE  H16Y 5927   5.649   1.082   4.235 -0.7132  0.8764  0.5057
   46DOPE  C317 5928   5.675   1.099   4.447 -0.4699 -0.6712 -0.1290
   46DOPE  H17X 5929   5.711   1.204   4.446  2.0778 -1.4683 -1.4797
   46DOPE  H17Y 5930   5.623   1.082   4.543 -0.9642  0.7430 -0.1286
   46DOPE  C318 5931   5.804   1.013   4.458  0.0996 -0.0221  0.2778
   46DOPE  H18X 5932   5.769   0.912   4.487 -4.1955  0.8853 -0.9313
   46DOPE  H18Y 5933   5.869   1.023   4.369 -0.1261  1.7052  0.2652
   46DOPE  H18Z 5934   5.864   1.050   4.543  0.4441  0.5081 -0.1883
   47DOPE     N 5935   2.044   6.804   2.728 -0.2049  0.7780  0.5725
   47DOPE   HN1 5936   2.059   6.821   2.626  0.2114 -0.9849  0.2989
   47DOPE   HN2 5937   2.121   6.853   2.778 -0.7878  1.2329  1.0291
   47DOPE   HN3 5938   2.059   6.702   2.743  0.0003  0.6882 -0.1933
   47DOPE   C12 5939   1.914   6.844   2.781  0.5792 -0.2892  0.0117
   47DOPE  H12A 5940   1.833   6.800   2.720  1.2926  1.2218 -2.1541
   47DOPE  H12B 5941   1.898   6.951   2.758 -0.6949 -0.4505  0.1075
   47DOPE   C11 5942   1.911   6.802   2.934 -0.0169 -0.7612 -0.7627
   47DOPE  H11A 5943   1.946   6.697   2.949  0.1220 -0.5670  0.3606
   47DOPE  H11B 5944   1.809   6.818   2.974  1.3200  4.5198  1.2489
   47DOPE     P 5945   2.143   6.867   3.047  0.1606 -0.0866  0.1111
   47DOPE   O13 5946   2.191   6.977   3.140 -0.1844 -0.6019 -0.7859
   47DOPE   O14 5947   2.219   6.853   2.922 -0.7352 -0.3645 -0.4118
   47DOPE   O11 5948   2.125   6.728   3.110  0.6766  0.5368  0.4710
   47DOPE   O12 5949   1.996   6.902   2.998 -0.3342 -0.1762 -0.4205
   47DOPE    C1 5950   2.036   6.703   3.221 -0.0042 -0.4539 -0.4148
   47DOPE    HA 5951   1.968   6.615   3.211  0.6187 -1.0088  0.1880
   47DOPE    HB 5952   1.972   6.789   3.252  1.5033  0.2026  0.9974
   47DOPE    C2 5953   2.130   6.678   3.345  0.0829  1.0503 -0.0904
   47DOPE    HS 5954   2.195   6.765   3.368  2.7404 -1.2332  1.9402
   47DOPE   O21 5955   2.203   6.549   3.336 -1.0068  0.8087  0.0925
   47DOPE   C21 5956   2.317   6.542   3.263  0.1209  0.1378 -0.0523
   47DOPE   O22 5957   2.371   6.632   3.200  0.4729  0.4580  0.4166
   47DOPE   C22 5958   2.373   6.403   3.259 -0.2567 -0.1671  0.0442
   47DOPE   H2R 5959   2.349   6.370   3.156 -0.6492 -0.4423  0.2232
   47DOPE   H2S 5960   2.315   6.335   3.326 -2.7283 -1.5638 -3.2742
   47DOPE    C3 5961   2.044   6.667   3.470 -0.4501  0.2059 -0.0601
   47DOPE    HX 5962   1.993   6.569   3.469  2.2761 -1.3264 -0.4663
   47DOPE    HY 5963   1.964   6.743   3.478  0.8776  1.5651  0.9706
   47DOPE   O31 5964   2.119   6.684   3.592 -0.2360 -0.4790  0.8315
   47DOPE   C31 5965   2.157   6.577   3.649 -0.2845  0.3200 -0.3229
   47DOPE   O32 5966   2.171   6.464   3.605 -0.2734  0.0445  0.3237
   47DOPE   C32 5967   2.192   6.619   3.796 -0.5154  0.1520 -0.1070
   47DOPE   H2X 5968   2.249   6.535   3.840 -1.0683  0.9692  2.3797
   47DOPE   H2Y 5969   2.259   6.708   3.791 -1.1897  0.6679 -0.1614
   47DOPE   C23 5970   2.524   6.397   3.278 -0.3775 -0.1371 -0.1395
   47DOPE   H3R 5971   2.573   6.468   3.208 -0.1383 -0.3425 -0.1838
   47DOPE   H3S 5972   2.563   6.298   3.244  0.9484  0.3861 -0.2074
   47DOPE   C24 5973   2.560   6.396   3.428 -0.0566 -0.9565 -0.0703
   47DOPE   H4R 5974   2.669   6.375   3.421 -0.4800 -3.0525 -1.2788
   47DOPE   H4S 5975   2.519   6.308   3.484 -1.3997 -0.7727 -0.7257
   47DOPE   C25 5976   2.534   6.522   3.513 -0.9589  0.7790 -0.0726
   47DOPE   H5R 5977   2.435   6.572   3.508 -2.5566 -2.0879  0.8360
   47DOPE   H5S 5978   2.604   6.595   3.467 -0.7762 -0.5080 -1.9821
   47DOPE   C26 5979   2.563   6.510   3.666 -0.6031 -0.6596 -0.0705
   47DOPE   H6R 5980   2.477   6.461   3.717  0.7912  0.2239  3.4443
   47DOPE   H6S 5981   2.562   6.612   3.710 -1.5193 -0.5004 -0.4213
   47DOPE   C27 5982   2.704   6.453   3.700 -0.4286  0.2476  0.1637
   47DOPE   H7R 5983   2.774   6.527   3.656 -0.8563  0.3662 -0.3329
   47DOPE   H7S 5984   2.711   6.362   3.637 -1.0563  0.2796  0.0436
   47DOPE   C28 5985   2.725   6.436   3.850  0.0129  0.7756 -1.4047
   47DOPE   H8R 5986   2.707   6.535   3.897 -2.1794 -0.9252  1.8260
   47DOPE   H8S 5987   2.830   6.401   3.862 -1.0310 -1.8953  1.2513
   47DOPE   C29 5988   2.648   6.330   3.919  0.2288 -0.2391  0.2984
   47DOPE   H9R 5989   2.669   6.230   3.878  1.1595  0.6637 -1.5674
   47DOPE  C210 5990   2.541   6.338   4.006 -0.6835  0.1012 -0.3916
   47DOPE  H10R 5991   2.507   6.242   4.048 -2.8960  1.2371  0.6284
   47DOPE  C211 5992   2.485   6.470   4.062  0.0920  0.0172  0.0977
   47DOPE  H11R 5993   2.381   6.454   4.098 -1.4837  0.7297 -3.7214
   47DOPE  H11S 5994   2.477   6.546   3.982  0.3137  1.2842  1.2320
   47DOPE  C212 5995   2.569   6.508   4.179  0.2302  0.0964  0.5081
   47DOPE  H12R 5996   2.534   6.609   4.212  2.4742  0.9005  0.5825
   47DOPE  H12S 5997   2.673   6.520   4.143  0.2540  0.9116  0.8097
   47DOPE  C213 5998   2.550   6.412   4.300 -0.2120 -0.1937 -0.2363
   47DOPE  H13R 5999   2.580   6.312   4.262 -0.6230 -0.3126 -0.2500
   47DOPE  H13S 6000   2.442   6.404   4.325 -0.5711 -1.1198 -1.9158
   47DOPE  C214 6001   2.633   6.447   4.424 -0.1145 -0.1135  0.1128
   47DOPE  H14R 6002   2.598   6.546   4.461 -2.2272 -0.9978  0.6001
   47DOPE  H14S 6003   2.736   6.458   4.384 -0.3726  0.5423 -0.3949
   47DOPE  C215 6004   2.617   6.339   4.536 -0.1089  0.0308  0.6465
   47DOPE  H15R 6005   2.627   6.233   4.504  0.1769 -0.3674  1.9692
   47DOPE  H15S 6006   2.522   6.358   4.590  0.3930  1.3926  1.0918
   47DOPE  C216 6007   2.740   6.339   4.628 -0.0233  0.2761  1.2920
   47DOPE  H16R 6008   2.810   6.425   4.626  2.5565 -1.7151 -0.0563
   47DOPE  H16S 6009   2.809   6.262   4.589 -1.2275 -0.4224  0.4774
   47DOPE  C217 6010   2.714   6.296   4.774 -0.2542 -0.0785  0.6998
   47DOPE  H17R 6011   2.665   6.196   4.772  0.0877 -0.2407  0.2461
   47DOPE  H17S 6012   2.644   6.371   4.817 -1.3730 -0.7800  0.1616
   47DOPE  C218 6013   2.847   6.303   4.856 -0.0745 -0.1967 -0.1796
   47DOPE  H18R 6014   2.831   6.294   4.965  1.6539 -0.7673  0.0736
   47DOPE  H18S 6015   2.900   6.399   4.842  1.5548 -1.0738 -0.3459
   47DOPE  H18T 6016   2.905   6.211   4.832 -2.4014 -1.7429 -0.1557
   47DOPE   C33 6017   2.063   6.636   3.888 -0.2614  0.2887  0.3151
   47DOPE   H3X 6018   2.095   6.632   3.994  1.1359 -0.4259 -0.1019
   47DOPE   H3Y 6019   1.993   6.553   3.867  2.0975 -1.1634 -2.5986
   47DOPE   C34 6020   1.999   6.772   3.873 -0.1194 -0.0897  0.0579
   47DOPE   H4X 6021   2.083   6.845   3.871  1.0691 -1.4323 -1.8000
   47DOPE   H4Y 6022   1.951   6.770   3.773  1.2533  0.8285 -0.6378
   47DOPE   C35 6023   1.893   6.814   3.976  0.1256 -0.2281  0.4002
   47DOPE   H5X 6024   1.815   6.735   3.971  0.7065 -0.8040  0.2825
   47DOPE   H5Y 6025   1.829   6.902   3.952 -0.2087 -0.1265  1.6133
   47DOPE   C36 6026   1.942   6.830   4.121  0.0295 -0.1074 -0.2250
   47DOPE   H6X 6027   1.956   6.938   4.143  1.2803 -0.0261 -1.2838
   47DOPE   H6Y 6028   2.043   6.786   4.140  0.2290 -0.5908 -2.1292
   47DOPE   C37 6029   1.846   6.758   4.219  0.2755 -0.1994 -0.3293
   47DOPE   H7X 6030   1.823   6.651   4.197  1.1792 -0.4335 -0.2048
   47DOPE   H7Y 6031   1.895   6.761   4.319 -0.1968  2.4152 -0.1007
   47DOPE   C38 6032   1.716   6.835   4.222  0.1714  0.6944 -0.0574
   47DOPE   H8X 6033   1.676   6.876   4.127 -2.7765  0.3005  0.9289
   47DOPE   H8Y 6034   1.738   6.929   4.278  0.4102  1.2293 -1.0159
   47DOPE   C39 6035   1.615   6.747   4.296  0.1309 -0.2732  0.7187
   47DOPE   H9X 6036   1.662   6.655   4.335  0.4610 -0.1292  0.6674
   47DOPE  C310 6037   1.488   6.774   4.328  0.4485  0.4532  0.0312
   47DOPE  H10X 6038   1.430   6.698   4.382  0.9348 -0.2999 -0.4859
   47DOPE  C311 6039   1.424   6.906   4.301  0.1317  0.1181  0.1995
   47DOPE  H11X 6040   1.487   6.988   4.261  0.9805 -0.4268  0.3981
   47DOPE  H11Y 6041   1.338   6.887   4.233  0.7425 -0.0602 -0.5386
   47DOPE  C312 6042   1.371   6.949   4.441 -0.2996  0.0941 -0.2740
   47DOPE  H12X 6043   1.304   6.874   4.489  0.4634 -1.5868 -1.7073
   47DOPE  H12Y 6044   1.326   7.050   4.443  1.5333  0.9845  3.1024
   47DOPE  C313 6045   1.487   6.972   4.546  0.3479  0.1790  0.5613
   47DOPE  H13X 6046   1.506   6.872   4.591  0.7302 -0.0448 -0.0784
   47DOPE  H13Y 6047   1.575   7.002   4.486 -1.2596  0.5412 -1.7460
   47DOPE  C314 6048   1.449   7.080   4.645 -0.7763 -0.0919  0.4257
   47DOPE  H14X 6049   1.421   7.168   4.582  0.5000  0.6154  0.8067
   47DOPE  H14Y 6050   1.538   7.104   4.706 -0.9047  0.5351  0.3828
   47DOPE  C315 6051   1.336   7.033   4.739 -0.4455  0.0998 -0.5957
   47DOPE  H15X 6052   1.367   6.951   4.807 -3.1076  0.2478  0.9525
   47DOPE  H15Y 6053   1.249   6.998   4.679  0.0743 -1.6903 -0.3427
   47DOPE  C316 6054   1.271   7.138   4.840 -0.1680  0.1245  0.6104
   47DOPE  H16X 6055   1.216   7.204   4.770  0.0919 -0.6541 -0.3597
   47DOPE  H16Y 6056   1.345   7.192   4.902 -0.4432 -1.3639  2.3115
   47DOPE  C317 6057   1.175   7.077   4.942  0.6595 -0.6064 -0.1595
   47DOPE  H17X 6058   1.110   7.148   4.997 -0.9604 -2.2256  0.1084
   47DOPE  H17Y 6059   1.113   7.003   4.887  0.5147 -0.8335  0.3042
   47DOPE  C318 6060   1.243   7.003   5.058 -0.4593  0.4947 -0.7133
   47DOPE  H18X 6061   1.308   7.086   5.095  0.0058 -0.2271  0.1087
   47DOPE  H18Y 6062   1.174   6.977   5.141  2.1186  1.4696  1.8864
   47DOPE  H18Z 6063   1.297   6.913   5.023 -1.7019  1.2755 -5.2884
   48DOPE     N 6064   5.195   2.219   1.804  0.1269 -0.2074  0.0429
   48DOPE   HN1 6065   5.293   2.251   1.811  0.2021 -0.4932  0.3306
   48DOPE   HN2 6066   5.181   2.116   1.807  0.0111 -0.1747  1.6872
   48DOPE   HN3 6067   5.155   2.257   1.716  1.1589 -1.2106 -0.8902
   48DOPE   C12 6068   5.130   2.269   1.934 -0.1892 -0.3683 -0.2940
   48DOPE  H12A 6069   5.026   2.232   1.938 -1.1231  1.9749 -1.0695
   48DOPE  H12B 6070   5.120   2.379   1.919  4.1243  0.3590  0.8214
   48DOPE   C11 6071   5.224   2.233   2.046 -0.4903 -0.1240  0.3697
   48DOPE  H11A 6072   5.223   2.123   2.059  0.5133 -0.1944 -0.0597
   48DOPE  H11B 6073   5.180   2.276   2.139 -0.8611 -2.0474  1.1292
   48DOPE     P 6074   5.484   2.229   2.069  0.4452 -0.3765 -0.0680
   48DOPE   O13 6075   5.599   2.325   2.076  0.1357  0.4248 -0.5211
   48DOPE   O14 6076   5.502   2.098   2.009 -0.1259  0.3763  0.0193
   48DOPE   O11 6077   5.447   2.204   2.220  0.4664  0.5853  0.3817
   48DOPE   O12 6078   5.350   2.293   2.010  0.2164  0.0061  0.4838
   48DOPE    C1 6079   5.437   2.317   2.308  0.4746  0.2676 -0.6126
   48DOPE    HA 6080   5.385   2.409   2.275 -0.9907 -0.2113  0.2715
   48DOPE    HB 6081   5.539   2.356   2.327  0.0987  2.1206 -2.1383
   48DOPE    C2 6082   5.372   2.276   2.453  0.0815  0.2694 -0.8104
   48DOPE    HS 6083   5.369   2.372   2.509  2.3243  0.7051 -1.3456
   48DOPE   O21 6084   5.451   2.169   2.513 -0.0334  0.1516 -0.3039
   48DOPE   C21 6085   5.565   2.220   2.560 -0.4333  0.3450 -0.0040
   48DOPE   O22 6086   5.595   2.337   2.554  0.3437  0.5608  0.2106
   48DOPE   C22 6087   5.654   2.108   2.618  0.6788  0.0526 -0.3595
   48DOPE   H2R 6088   5.748   2.098   2.560 -0.5890 -2.9191 -2.1599
   48DOPE   H2S 6089   5.601   2.011   2.632  0.2774  0.2777 -0.3266
   48DOPE    C3 6090   5.224   2.237   2.436 -0.2408  0.1378 -0.3903
   48DOPE    HX 6091   5.215   2.155   2.362 -1.2886  0.8023 -1.0346
   48DOPE    HY 6092   5.172   2.320   2.383  1.9673  2.9508  1.5425
   48DOPE   O31 6093   5.158   2.215   2.566 -0.0129 -0.0246  0.4143
   48DOPE   C31 6094   5.159   2.087   2.600  0.5313  0.3100 -0.1871
   48DOPE   O32 6095   5.192   1.989   2.534 -0.6011 -0.7555  0.6958
   48DOPE   C32 6096   5.077   2.089   2.732  0.4077 -0.8840 -0.0782
   48DOPE   H2X 6097   5.099   2.177   2.796 -1.2658  0.5395 -1.3912
   48DOPE   H2Y 6098   4.969   2.102   2.712  0.3156 -0.1206  0.8260
   48DOPE   C23 6099   5.695   2.157   2.761 -0.2081  0.1543 -0.5532
   48DOPE   H3R 6100   5.746   2.255   2.750  0.8314 -0.5141 -2.1679
   48DOPE   H3S 6101   5.772   2.079   2.781 -1.7656 -1.6021 -1.0523
   48DOPE   C24 6102   5.596   2.160   2.880  0.0830 -0.1342 -0.5870
   48DOPE   H4R 6103   5.520   2.240   2.869 -1.8964 -1.7693  0.4537
   48DOPE   H4S 6104   5.656   2.183   2.971  1.4574  1.4072 -1.8164
   48DOPE   C25 6105   5.530   2.022   2.900  0.1530  0.0268 -0.0170
   48DOPE   H5R 6106   5.605   1.940   2.905  1.1796  0.7053 -2.6516
   48DOPE   H5S 6107   5.474   2.015   2.805 -3.2717  1.5062  1.7220
   48DOPE   C26 6108   5.423   2.014   3.008 -0.5029 -0.4582 -0.2667
   48DOPE   H6R 6109   5.367   1.918   3.008 -2.6652  0.7250 -0.5792
   48DOPE   H6S 6110   5.358   2.103   2.991  0.0235 -0.2380 -1.1899
   48DOPE   C27 6111   5.473   2.049   3.147 -0.2006  0.4462  0.1456
   48DOPE   H7R 6112   5.508   2.154   3.136  1.2661 -0.1095 -0.8711
   48DOPE   H7S 6113   5.560   1.981   3.161 -1.0384 -1.5919 -3.2618
   48DOPE   C28 6114   5.368   2.030   3.259 -0.3613  1.3604 -0.0626
   48DOPE   H8R 6115   5.314   1.933   3.249 -0.8027  1.6117 -0.1385
   48DOPE   H8S 6116   5.295   2.114   3.256 -2.4578 -0.3872 -0.2440
   48DOPE   C29 6117   5.452   2.037   3.391 -0.4507  0.3959  0.0443
   48DOPE   H9R 6118   5.545   1.977   3.400  0.0632  1.0397 -0.8425
   48DOPE  C210 6119   5.416   2.099   3.509 -0.3334  0.6800  0.4296
   48DOPE  H10R 6120   5.484   2.092   3.595 -0.4301 -0.1043  0.4446
   48DOPE  C211 6121   5.290   2.173   3.532  0.1607 -0.3309 -0.3013
   48DOPE  H11R 6122   5.238   2.225   3.448 -2.1870 -0.2667  1.0892
   48DOPE  H11S 6123   5.310   2.250   3.609  1.3378 -1.2758  0.3657
   48DOPE  C212 6124   5.166   2.100   3.593  0.2685 -0.4326  0.5014
   48DOPE  H12R 6125   5.207   2.075   3.694  0.6284 -0.2498  0.4038
   48DOPE  H12S 6126   5.132   2.010   3.539 -1.0925  0.1025  0.4206
   48DOPE  C213 6127   5.043   2.193   3.606  0.0557  0.0969  0.1701
   48DOPE  H13R 6128   5.000   2.210   3.505 -1.9710  0.2010  1.0103
   48DOPE  H13S 6129   5.067   2.294   3.645 -0.5167  1.4056 -2.6034
   48DOPE  C214 6130   4.939   2.128   3.700 -0.0290 -0.7107 -0.5071
   48DOPE  H14R 6131   4.976   2.146   3.803  3.0131 -1.3075 -1.3993
   48DOPE  H14S 6132   4.935   2.017   3.688 -0.3994 -0.8283  0.6075
   48DOPE  C215 6133   4.801   2.193   3.681  0.3157 -0.5662  0.0591
   48DOPE  H15R 6134   4.751   2.140   3.597  1.1037  1.6678 -1.9461
   48DOPE  H15S 6135   4.821   2.297   3.647  0.6393  0.2140  2.5014
   48DOPE  C216 6136   4.716   2.198   3.806 -0.4152 -0.0336 -0.2208
   48DOPE  H16R 6137   4.762   2.256   3.888 -0.1647 -0.5980  0.0396
   48DOPE  H16S 6138   4.700   2.094   3.841 -0.6034  0.7074  2.0680
   48DOPE  C217 6139   4.579   2.249   3.767 -0.1428 -0.2567 -0.0733
   48DOPE  H17R 6140   4.564   2.224   3.660 -0.0929 -0.8449  0.0539
   48DOPE  H17S 6141   4.576   2.359   3.780  2.2914 -0.0318 -1.0155
   48DOPE  C218 6142   4.468   2.187   3.860 -0.1004  0.0215 -0.8581
   48DOPE  H18R 6143   4.473   2.077   3.861 -1.3681 -0.0500 -0.3774
   48DOPE  H18S 6144   4.371   2.230   3.827  0.9288  1.8296 -1.7072
   48DOPE  H18T 6145   4.481   2.226   3.963  0.7060  0.0491 -0.9652
   48DOPE   C33 6146   5.098   1.950   2.803 -0.3535  0.4191  0.4211
   48DOPE   H3X 6147   5.207   1.933   2.820 -0.2529 -0.2994 -0.8485
   48DOPE   H3Y 6148   5.084   1.867   2.732  0.3028  0.7155 -0.0732
   48DOPE   C34 6149   5.029   1.922   2.936 -0.2479  0.5244  0.5936
   48DOPE   H4X 6150   5.067   1.990   3.016  0.1410 -0.3425  1.1599
   48DOPE   H4Y 6151   4.922   1.942   2.914  0.4532  2.4479 -1.4645
   48DOPE   C35 6152   5.043   1.767   2.972  0.3965 -0.3673  0.1486
   48DOPE   H5X 6153   5.148   1.742   3.000  0.4781 -1.9465 -1.4366
   48DOPE   H5Y 6154   5.012   1.705   2.886 -0.9380  0.0058  0.3395
   48DOPE   C36 6155   4.965   1.733   3.100  0.0222  0.6308  0.3928
   48DOPE   H6X 6156   4.973   1.623   3.114  1.8529  0.3043 -2.2984
   48DOPE   H6Y 6157   4.858   1.765   3.099  0.0020  0.6290  1.6272
   48DOPE   C37 6158   5.012   1.802   3.233  0.3181  0.1233 -0.1512
   48DOPE   H7X 6159   5.117   1.769   3.245 -0.1571 -1.1389  0.8008
   48DOPE   H7Y 6160   5.006   1.912   3.243  1.2397  0.3463 -1.8603
   48DOPE   C38 6161   4.951   1.747   3.358  0.6037  0.3494 -0.0948
   48DOPE   H8X 6162   5.007   1.785   3.446 -1.6575 -1.4463  2.3196
   48DOPE   H8Y 6163   4.963   1.636   3.359  0.4754  0.2433 -2.9562
   48DOPE   C39 6164   4.808   1.785   3.365  0.3669  0.5122  0.2095
   48DOPE   H9X 6165   4.790   1.893   3.367  0.4387  0.5100  1.4229
   48DOPE  C310 6166   4.704   1.710   3.396 -0.0430 -0.5707 -0.5220
   48DOPE  H10X 6167   4.603   1.750   3.412  0.9480  1.4282  1.3015
   48DOPE  C311 6168   4.724   1.563   3.445 -0.2783 -0.2684 -0.0513
   48DOPE  H11X 6169   4.705   1.494   3.360 -1.7078 -1.7764  1.4041
   48DOPE  H11Y 6170   4.826   1.549   3.486 -0.2319  0.9451  0.2797
   48DOPE  C312 6171   4.624   1.528   3.557  0.5203  0.3880  0.4249
   48DOPE  H12X 6172   4.521   1.527   3.514  0.1370  2.1285  1.2161
   48DOPE  H12Y 6173   4.617   1.617   3.623 -0.9694  1.2522 -0.8027
   48DOPE  C313 6174   4.652   1.401   3.628 -0.7264  0.2621 -0.1086
   48DOPE  H13X 6175   4.616   1.306   3.584 -0.3604 -0.1870  0.5477
   48DOPE  H13Y 6176   4.763   1.390   3.628 -0.7756 -1.3443  3.0749
   48DOPE  C314 6177   4.598   1.401   3.776 -0.4548  0.2700  0.4581
   48DOPE  H14X 6178   4.645   1.316   3.831  2.3254  1.1218 -0.4255
   48DOPE  H14Y 6179   4.488   1.388   3.775 -0.4775  0.4888 -0.0486
   48DOPE  C315 6180   4.620   1.524   3.869 -0.1037  0.2620  0.3152
   48DOPE  H15X 6181   4.560   1.609   3.830  2.5225  2.6820  1.2223
   48DOPE  H15Y 6182   4.730   1.540   3.868  0.0050 -0.4351  0.6283
   48DOPE  C316 6183   4.596   1.480   4.012 -0.3175  0.7243 -0.3526
   48DOPE  H16X 6184   4.677   1.414   4.051 -0.8296  0.0020 -0.4876
   48DOPE  H16Y 6185   4.512   1.406   4.016 -0.3334  0.7666  0.1981
   48DOPE  C317 6186   4.578   1.594   4.108 -0.4078 -0.7884  0.3523
   48DOPE  H17X 6187   4.671   1.655   4.100  0.7521 -2.5902 -0.6547
   48DOPE  H17Y 6188   4.490   1.656   4.081  1.9512  1.3013 -3.6123
   48DOPE  C318 6189   4.578   1.552   4.257 -0.6705 -0.7288 -0.0487
   48DOPE  H18X 6190   4.658   1.478   4.280 -1.1699 -0.5301  2.7148
   48DOPE  H18Y 6191   4.593   1.636   4.328 -2.8465  1.4143 -1.9624
   48DOPE  H18Z 6192   4.478   1.509   4.277 -0.4093 -0.4007  2.3440
   49DOPE     N 6193   1.524   6.617   2.363  0.2630  0.3001  0.2123
   49DOPE   HN1 6194   1.569   6.535   2.317  0.9491  0.8343 -0.0770
   49DOPE   HN2 6195   1.480   6.684   2.297  2.2982  0.7823 -0.7430
   49DOPE   HN3 6196   1.603   6.659   2.416  0.2431 -0.6404  1.0167
   49DOPE   C12 6197   1.432   6.563   2.466  0.3130 -0.1749 -0.2053
   49DOPE  H12A 6198   1.495   6.534   2.554  0.1614  0.6405  0.1856
   49DOPE  H12B 6199   1.372   6.477   2.430  2.2554 -1.0205 -1.5850
   49DOPE   C11 6200   1.350   6.685   2.516  0.3915 -0.1257  0.8080
   49DOPE  H11A 6201   1.286   6.647   2.598 -1.3022 -1.2550 -0.9382
   49DOPE  H11B 6202   1.289   6.722   2.431 -0.3176 -2.8244  0.0260
   49DOPE     P 6203   1.374   6.926   2.620 -0.0974 -0.1008  0.1868
   49DOPE   O13 6204   1.231   6.939   2.585  0.5313 -0.8206 -0.5395
   49DOPE   O14 6205   1.462   7.034   2.570 -0.3568 -0.3983  0.6730
   49DOPE   O11 6206   1.399   6.920   2.772 -0.1676  0.0060  0.1878
   49DOPE   O12 6207   1.427   6.786   2.567 -0.0366 -0.4943 -0.6069
   49DOPE    C1 6208   1.527   6.863   2.820  0.1827 -0.0047 -0.0820
   49DOPE    HA 6209   1.603   6.944   2.815  0.8601 -0.6462 -0.2014
   49DOPE    HB 6210   1.569   6.785   2.753 -0.3951  0.2158 -0.7059
   49DOPE    C2 6211   1.513   6.810   2.968  0.3086 -0.1154 -0.3817
   49DOPE    HS 6212   1.605   6.750   2.985  1.0467  0.5356 -1.8617
   49DOPE   O21 6213   1.388   6.738   2.988 -0.0819  0.3914  0.3591
   49DOPE   C21 6214   1.360   6.639   2.907 -0.2908  0.2124 -0.4902
   49DOPE   O22 6215   1.438   6.571   2.843  0.6826  0.3292 -0.3803
   49DOPE   C22 6216   1.208   6.606   2.929 -0.8637 -0.3693 -0.4831
   49DOPE   H2R 6217   1.157   6.662   2.848 -1.1750 -0.2079 -0.1791
   49DOPE   H2S 6218   1.173   6.652   3.024 -2.0995 -2.1163 -0.0303
   49DOPE    C3 6219   1.506   6.926   3.065 -0.1653  0.0848  0.0019
   49DOPE    HX 6220   1.481   6.872   3.159  0.4095 -0.0144  0.1021
   49DOPE    HY 6221   1.421   6.993   3.039  0.0923  1.9983  3.5321
   49DOPE   O31 6222   1.638   6.990   3.069  0.0700  0.8496 -0.4953
   49DOPE   C31 6223   1.704   6.992   3.180  0.5704 -0.0916  1.1866
   49DOPE   O32 6224   1.682   6.924   3.277 -0.5647  0.2925  1.1487
   49DOPE   C32 6225   1.806   7.109   3.178 -0.0363 -0.7092  0.1319
   49DOPE   H2X 6226   1.874   7.109   3.090  2.0534  2.1870  1.5620
   49DOPE   H2Y 6227   1.744   7.201   3.171  2.1265  0.7173 -1.2663
   49DOPE   C23 6228   1.186   6.449   2.942  0.0504 -0.3828 -0.0105
   49DOPE   H3R 6229   1.232   6.405   3.034  0.1820 -2.2645 -0.9292
   49DOPE   H3S 6230   1.237   6.404   2.854  2.0618 -0.2750  1.0277
   49DOPE   C24 6231   1.037   6.405   2.940  0.0137 -0.0466 -0.0310
   49DOPE   H4R 6232   1.025   6.294   2.938 -2.1922  0.1221  0.4728
   49DOPE   H4S 6233   0.990   6.455   2.853 -0.5900  1.3445  1.0472
   49DOPE   C25 6234   0.968   6.441   3.065  0.5688  0.4026 -0.1846
   49DOPE   H5R 6235   0.970   6.550   3.088  0.2282 -0.2704  3.8965
   49DOPE   H5S 6236   1.022   6.401   3.154 -0.3257  0.8510  0.5768
   49DOPE   C26 6237   0.823   6.383   3.062  0.1517  0.3808  0.1192
   49DOPE   H6R 6238   0.813   6.272   3.063 -0.1673  0.3586 -1.6376
   49DOPE   H6S 6239   0.766   6.406   2.969 -2.9505 -1.6599  1.3262
   49DOPE   C27 6240   0.738   6.425   3.178  0.6123  0.2566  0.4751
   49DOPE   H7R 6241   0.632   6.406   3.151  0.4175 -0.8525  1.8759
   49DOPE   H7S 6242   0.749   6.531   3.212 -1.5981  1.1189 -1.2262
   49DOPE   C28 6243   0.771   6.334   3.301 -1.0907  0.3423 -0.6586
   49DOPE   H8R 6244   0.882   6.343   3.308 -1.2283  1.1161  1.1498
   49DOPE   H8S 6245   0.744   6.227   3.291 -0.8004 -0.0269  1.7908
   49DOPE   C29 6246   0.709   6.375   3.432  0.2943  0.2958 -0.2671
   49DOPE   H9R 6247   0.603   6.351   3.446  0.3246 -0.3457 -1.0772
   49DOPE  C210 6248   0.772   6.431   3.541 -0.3502 -0.3914 -0.2957
   49DOPE  H10R 6249   0.705   6.446   3.627 -0.4790 -0.6373 -0.3511
   49DOPE  C211 6250   0.918   6.460   3.565 -0.7459 -0.1963  0.1165
   49DOPE  H11R 6251   0.982   6.416   3.486 -1.4260 -1.3151  0.1683
   49DOPE  H11S 6252   0.951   6.409   3.657 -2.6221  0.8801  1.4560
   49DOPE  C212 6253   0.950   6.607   3.570  0.4545  0.6991 -0.1404
   49DOPE  H12R 6254   0.906   6.654   3.479 -0.8707  1.1353  0.7055
   49DOPE  H12S 6255   1.061   6.622   3.568  0.7214 -1.1346 -1.2081
   49DOPE  C213 6256   0.907   6.676   3.700  0.7366  0.1899 -0.0161
   49DOPE  H13R 6257   0.921   6.602   3.782  0.9503  0.1226 -0.1105
   49DOPE  H13S 6258   0.799   6.691   3.679 -0.1885 -2.0043  2.5781
   49DOPE  C214 6259   0.988   6.805   3.723  0.5917  0.1762 -0.2039
   49DOPE  H14R 6260   0.923   6.847   3.803  0.2026 -2.0847  0.7380
   49DOPE  H14S 6261   0.985   6.881   3.642  0.2401  0.5867  0.1928
   49DOPE  C215 6262   1.139   6.788   3.769  0.3245 -0.2766  0.8087
   49DOPE  H15R 6263   1.187   6.751   3.676 -0.1932 -0.0249  0.4362
   49DOPE  H15S 6264   1.135   6.706   3.844 -2.1773 -1.5890 -0.6206
   49DOPE  C216 6265   1.214   6.906   3.833 -0.2369 -0.5512 -0.1444
   49DOPE  H16R 6266   1.153   6.935   3.922  1.2222 -0.3477  0.8179
   49DOPE  H16S 6267   1.217   6.996   3.768  1.4078  0.9355  1.8429
   49DOPE  C217 6268   1.352   6.880   3.891  0.7054 -1.4096  1.0617
   49DOPE  H17R 6269   1.368   6.784   3.945  0.9568 -1.2620  1.2512
   49DOPE  H17S 6270   1.359   6.968   3.958  2.1310  0.4132 -1.3284
   49DOPE  C218 6271   1.466   6.899   3.777  0.2957  0.2135 -0.0680
   49DOPE  H18R 6272   1.560   6.920   3.832 -0.1210 -0.0597  0.7653
   49DOPE  H18S 6273   1.431   6.990   3.723  1.2889 -0.3065 -1.6537
   49DOPE  H18T 6274   1.465   6.812   3.708 -1.3292 -0.4817  0.7649
   49DOPE   C33 6275   1.886   7.114   3.307 -0.0255  0.6602 -0.2893
   49DOPE   H3X 6276   1.937   7.016   3.323 -0.4553  0.5826  0.7251
   49DOPE   H3Y 6277   1.821   7.123   3.397  1.3480  2.5169  0.5907
   49DOPE   C34 6278   1.988   7.233   3.301  0.2225 -0.2766  0.2515
   49DOPE   H4X 6279   2.059   7.217   3.217  2.0554  0.5828  1.5676
   49DOPE   H4Y 6280   1.922   7.322   3.288  1.4967  0.7540  0.6580
   49DOPE   C35 6281   2.088   7.242   3.422  0.0951  1.1052 -0.3129
   49DOPE   H5X 6282   2.154   7.331   3.412  2.6130 -0.6194 -0.1052
   49DOPE   H5Y 6283   2.151   7.152   3.407 -2.9073 -1.1227 -0.4909
   49DOPE   C36 6284   2.025   7.224   3.562  0.3717 -0.3452  0.2168
   49DOPE   H6X 6285   2.003   7.117   3.579  0.1178 -0.3324 -0.0270
   49DOPE   H6Y 6286   1.936   7.289   3.573  1.4279  0.8141  2.7363
   49DOPE   C37 6287   2.113   7.273   3.680  0.0238  0.2458 -0.1692
   49DOPE   H7X 6288   2.128   7.383   3.676 -0.9903  0.4737  1.3282
   49DOPE   H7Y 6289   2.050   7.236   3.764  1.0734 -0.8185  0.1846
   49DOPE   C38 6290   2.250   7.211   3.685 -0.7699 -0.1594  1.7757
   49DOPE   H8X 6291   2.303   7.230   3.589 -0.0559 -1.0031  1.9764
   49DOPE   H8Y 6292   2.233   7.101   3.690 -2.4451 -0.0617 -0.5191
   49DOPE   C39 6293   2.341   7.262   3.791 -0.0990  0.1282 -0.4657
   49DOPE   H9X 6294   2.379   7.365   3.783 -0.0526  0.2105  0.7567
   49DOPE  C310 6295   2.372   7.189   3.900  0.1853  0.5076  0.2065
   49DOPE  H10X 6296   2.438   7.232   3.977  1.7401  0.1142 -0.8650
   49DOPE  C311 6297   2.319   7.054   3.927 -0.0956 -0.1506  0.4545
   49DOPE  H11X 6298   2.208   7.060   3.932 -0.1278  3.1261 -1.5553
   49DOPE  H11Y 6299   2.358   6.986   3.848  1.1692 -0.0808  1.0034
   49DOPE  C312 6300   2.379   7.015   4.062  0.7735  0.1389 -0.5560
   49DOPE  H12X 6301   2.344   7.083   4.142 -1.0495 -1.8934  0.4942
   49DOPE  H12Y 6302   2.490   7.020   4.069  0.9007 -2.1166 -0.1961
   49DOPE  C313 6303   2.350   6.863   4.102 -0.6322  0.4661  0.8415
   49DOPE  H13X 6304   2.259   6.845   4.040  0.1621 -0.2050 -0.1612
   49DOPE  H13Y 6305   2.425   6.791   4.064 -0.0620  1.0631  0.8298
   49DOPE  C314 6306   2.321   6.835   4.249 -0.1379 -0.1237  0.7138
   49DOPE  H14X 6307   2.298   6.727   4.268  1.0346 -0.5222 -0.0737
   49DOPE  H14Y 6308   2.229   6.890   4.281  0.4574  0.8639  0.7538
   49DOPE  C315 6309   2.438   6.872   4.344  0.1100  0.1465 -0.1106
   49DOPE  H15X 6310   2.462   6.980   4.334  0.5956 -0.0536 -1.2282
   49DOPE  H15Y 6311   2.530   6.820   4.313  1.3271  2.5085 -0.7029
   49DOPE  C316 6312   2.409   6.841   4.492  0.3453 -0.0064 -0.4036
   49DOPE  H16X 6313   2.394   6.731   4.502  1.6440 -0.3493 -1.7987
   49DOPE  H16Y 6314   2.323   6.897   4.534  0.3820 -0.2841  0.0510
   49DOPE  C317 6315   2.534   6.875   4.575 -0.1606  0.6392 -0.4656
   49DOPE  H17X 6316   2.630   6.857   4.522  0.2717  1.2417  0.1002
   49DOPE  H17Y 6317   2.526   6.985   4.580  1.2561  0.7376  0.1237
   49DOPE  C318 6318   2.547   6.832   4.726  0.1793 -0.3425 -0.1911
   49DOPE  H18X 6319   2.451   6.864   4.772 -0.3695 -2.0804 -0.0382
   49DOPE  H18Y 6320   2.567   6.725   4.749  3.6433  0.3395  0.5345
   49DOPE  H18Z 6321   2.632   6.883   4.777 -0.6510  0.0404  0.8573
   50DOPE     N 6322   0.342   2.647   2.507  0.3998  0.5862  0.4236
   50DOPE   HN1 6323   0.275   2.693   2.571 -0.6882 -1.0555  0.5285
   50DOPE   HN2 6324   0.323   2.690   2.415 -0.1029  1.1740  0.7996
   50DOPE   HN3 6325   0.327   2.544   2.501  1.9330  0.3603 -0.1948
   50DOPE   C12 6326   0.480   2.664   2.566  0.6937  0.0541 -0.2388
   50DOPE  H12A 6327   0.537   2.569   2.565  0.6756 -0.1015  2.8998
   50DOPE  H12B 6328   0.471   2.695   2.673  0.2309 -1.9594  0.3403
   50DOPE   C11 6329   0.559   2.783   2.503 -0.2735  0.0172  0.1634
   50DOPE  H11A 6330   0.581   2.752   2.399 -1.6891 -0.0761 -0.1264
   50DOPE  H11B 6331   0.659   2.798   2.550 -0.7940 -1.6653  1.9414
   50DOPE     P 6332   0.488   3.024   2.404 -0.1472  0.2267 -0.0735
   50DOPE   O13 6333   0.405   3.001   2.282  0.6677 -0.9957 -0.1413
   50DOPE   O14 6334   0.633   3.042   2.379 -0.2888 -0.0992 -0.4842
   50DOPE   O11 6335   0.433   3.142   2.492 -0.1703  0.1243 -0.2861
   50DOPE   O12 6336   0.479   2.899   2.494 -0.1193  0.3698 -0.2571
   50DOPE    C1 6337   0.461   3.137   2.636 -0.3241 -0.5026 -0.7340
   50DOPE    HA 6338   0.484   3.242   2.664 -1.9989 -0.4568  0.6308
   50DOPE    HB 6339   0.549   3.074   2.662 -2.1862 -2.6947  0.6347
   50DOPE    C2 6340   0.335   3.091   2.719 -0.6127 -0.7444  0.5315
   50DOPE    HS 6341   0.319   2.983   2.695 -1.5384 -0.5824  0.3827
   50DOPE   O21 6342   0.229   3.182   2.688 -0.4024 -0.6205 -0.4138
   50DOPE   C21 6343   0.108   3.125   2.708 -0.4389  1.0171  0.5097
   50DOPE   O22 6344   0.097   3.004   2.731 -0.0864  0.0449 -0.0683
   50DOPE   C22 6345  -0.005   3.233   2.702  0.3379  0.8188  0.0249
   50DOPE   H2R 6346  -0.056   3.228   2.604  0.6030  2.1973 -0.2005
   50DOPE   H2S 6347   0.045   3.332   2.709 -1.3667  1.7392 -0.4253
   50DOPE    C3 6348   0.379   3.094   2.867 -0.3233 -0.2297 -0.5335
   50DOPE    HX 6349   0.413   3.197   2.894  2.2085 -0.9977 -0.5045
   50DOPE    HY 6350   0.481   3.051   2.864 -0.1978  0.1081 -2.2680
   50DOPE   O31 6351   0.284   3.045   2.972 -0.0751 -0.0508 -1.1189
   50DOPE   C31 6352   0.288   2.914   2.976 -0.8340  0.0698  0.8209
   50DOPE   O32 6353   0.361   2.840   2.907  0.0021 -0.1442 -0.1350
   50DOPE   C32 6354   0.181   2.872   3.076 -0.2586  0.2403 -0.1238
   50DOPE   H2X 6355   0.167   2.962   3.140  1.8579  0.5837 -0.0848
   50DOPE   H2Y 6356   0.089   2.852   3.017 -1.4628  2.1109  1.0246
   50DOPE   C23 6357  -0.098   3.210   2.823  0.3811  0.3458  0.2692
   50DOPE   H3R 6358  -0.143   3.108   2.815  0.4315  0.4411 -1.7613
   50DOPE   H3S 6359  -0.192   3.263   2.796  0.6924  1.0354  0.5350
   50DOPE   C24 6360  -0.048   3.248   2.961  0.1918 -0.6895  0.3361
   50DOPE   H4R 6361  -0.052   3.359   2.958 -0.0665 -0.5328  3.6696
   50DOPE   H4S 6362   0.059   3.216   2.966 -0.1303 -2.2078 -1.5416
   50DOPE   C25 6363  -0.135   3.201   3.078  0.9639 -0.7282 -0.2838
   50DOPE   H5R 6364  -0.156   3.092   3.065  0.6225 -0.3845 -3.1946
   50DOPE   H5S 6365  -0.233   3.249   3.060  1.3896 -0.0635 -0.8490
   50DOPE   C26 6366  -0.087   3.229   3.215 -0.5016 -0.4006 -0.3560
   50DOPE   H6R 6367  -0.069   3.338   3.224 -1.1686 -0.0181 -2.9278
   50DOPE   H6S 6368   0.014   3.182   3.222 -0.1087  0.3713 -0.7968
   50DOPE   C27 6369  -0.173   3.195   3.338  0.1096 -0.3112 -0.4366
   50DOPE   H7R 6370  -0.170   3.088   3.368 -3.2985 -0.8415 -1.4874
   50DOPE   H7S 6371  -0.280   3.217   3.317 -0.9494 -1.3556  3.2011
   50DOPE   C28 6372  -0.141   3.262   3.475 -0.0399 -1.2119 -0.1524
   50DOPE   H8R 6373  -0.207   3.207   3.545  0.6419 -1.5783  0.2189
   50DOPE   H8S 6374  -0.175   3.368   3.472  0.2726 -1.0259  1.8826
   50DOPE   C29 6375   0.003   3.267   3.518  0.2332  0.3313 -0.3031
   50DOPE   H9R 6376   0.081   3.290   3.443  0.2223  1.3701 -0.0156
   50DOPE  C210 6377   0.046   3.235   3.645  0.0047 -0.3454 -0.1102
   50DOPE  H10R 6378   0.156   3.239   3.654  0.1183  1.1784 -1.6811
   50DOPE  C211 6379  -0.042   3.193   3.761 -0.2407 -0.8078  0.2134
   50DOPE  H11R 6380  -0.010   3.100   3.812  1.7398  0.2811  1.0820
   50DOPE  H11S 6381  -0.148   3.187   3.728 -0.1038  0.8034 -0.6449
   50DOPE  C212 6382  -0.032   3.295   3.878  0.1623  0.1646  0.2519
   50DOPE  H12R 6383   0.078   3.302   3.894  0.8447 -3.0078 -2.0619
   50DOPE  H12S 6384  -0.059   3.245   3.974  0.8476  3.0371  2.0765
   50DOPE  C213 6385  -0.116   3.418   3.835  0.4631  0.0437  0.5480
   50DOPE  H13R 6386  -0.218   3.376   3.829 -0.0845  1.4578 -0.4301
   50DOPE  H13S 6387  -0.090   3.453   3.733  0.2523 -2.4138 -0.4227
   50DOPE  C214 6388  -0.108   3.534   3.937  0.3593  0.2638 -0.1302
   50DOPE  H14R 6389  -0.172   3.615   3.896  2.6134  1.4597 -1.4897
   50DOPE  H14S 6390  -0.004   3.573   3.937 -0.3277  2.1929 -0.9059
   50DOPE  C215 6391  -0.151   3.486   4.077 -0.0951 -0.0091 -0.3986
   50DOPE  H15R 6392  -0.080   3.413   4.120  0.5452  1.6168  1.4183
   50DOPE  H15S 6393  -0.251   3.438   4.081  0.3904 -0.9351  1.3902
   50DOPE  C216 6394  -0.149   3.601   4.178 -0.4411 -0.6064  0.0390
   50DOPE  H16R 6395  -0.054   3.652   4.204  0.0724 -2.2103  1.5049
   50DOPE  H16S 6396  -0.180   3.555   4.274 -0.4826  0.7813  0.7218
   50DOPE  C217 6397  -0.266   3.700   4.141  0.1087  0.1201 -0.6406
   50DOPE  H17R 6398  -0.333   3.668   4.059 -3.2759 -0.8564  2.2437
   50DOPE  H17S 6399  -0.225   3.795   4.100 -0.4730 -0.5870 -3.0003
   50DOPE  C218 6400  -0.356   3.728   4.258  0.5037 -0.6180  0.1704
   50DOPE  H18R 6401  -0.440   3.788   4.218  0.4304 -1.2659 -0.6845
   50DOPE  H18S 6402  -0.309   3.799   4.330  0.5611 -0.7879  0.3016
   50DOPE  H18T 6403  -0.398   3.637   4.306  1.1506 -1.7365 -1.2931
   50DOPE   C33 6404   0.213   2.737   3.158  0.1860  0.4157  0.3005
   50DOPE   H3X 6405   0.320   2.736   3.186 -0.4864  1.1617  3.2528
   50DOPE   H3Y 6406   0.185   2.662   3.081 -2.4805  2.6606 -1.1194
   50DOPE   C34 6407   0.130   2.725   3.287 -0.1257 -0.4332 -0.1059
   50DOPE   H4X 6408   0.147   2.822   3.339  0.1536  0.5145 -1.8971
   50DOPE   H4Y 6409   0.025   2.714   3.250 -0.0016  1.0600 -0.9624
   50DOPE   C35 6410   0.161   2.608   3.378  0.1033 -0.5376 -0.3888
   50DOPE   H5X 6411   0.177   2.522   3.309  0.0906 -2.3081  1.7309
   50DOPE   H5Y 6412   0.080   2.577   3.447  0.3453 -0.9921 -0.3061
   50DOPE   C36 6413   0.300   2.625   3.445  0.3546  0.6529  0.4955
   50DOPE   H6X 6414   0.304   2.722   3.498  0.6632  0.1331  1.4450
   50DOPE   H6Y 6415   0.370   2.636   3.359 -2.5043 -2.9611 -2.6848
   50DOPE   C37 6416   0.347   2.504   3.523  0.0373  0.7371  0.4441
   50DOPE   H7X 6417   0.284   2.492   3.614 -2.5068 -0.3835 -1.3480
   50DOPE   H7Y 6418   0.325   2.416   3.459 -0.2640  0.6902  0.6116
   50DOPE   C38 6419   0.494   2.509   3.552 -0.2264  0.1790 -0.3881
   50DOPE   H8X 6420   0.556   2.500   3.460  0.0099 -1.4842 -0.0917
   50DOPE   H8Y 6421   0.506   2.410   3.599 -2.9099 -0.5816 -1.1229
   50DOPE   C39 6422   0.540   2.635   3.623 -0.1798 -0.3733  0.5499
   50DOPE   H9X 6423   0.516   2.728   3.570 -0.4938  0.2019  1.6479
   50DOPE  C310 6424   0.609   2.636   3.747 -0.2300 -0.4065 -0.4390
   50DOPE  H10X 6425   0.612   2.731   3.801  1.5211 -1.7081  1.9011
   50DOPE  C311 6426   0.656   2.512   3.825  0.2300 -0.3104 -0.1511
   50DOPE  H11X 6427   0.623   2.419   3.774  0.1096 -0.2802 -0.1286
   50DOPE  H11Y 6428   0.766   2.519   3.837 -0.0487  2.3664  1.7769
   50DOPE  C312 6429   0.594   2.514   3.957  0.7390 -0.5092 -0.1967
   50DOPE  H12X 6430   0.590   2.412   4.000  0.7741  0.7942  3.2456
   50DOPE  H12Y 6431   0.491   2.556   3.951  1.3196  0.9221 -0.7506
   50DOPE  C313 6432   0.673   2.597   4.056 -0.0860  0.0315 -0.5277
   50DOPE  H13X 6433   0.780   2.569   4.061  0.0267  0.6821  1.3838
   50DOPE  H13Y 6434   0.653   2.704   4.031 -1.3274 -0.3245 -1.1746
   50DOPE  C314 6435   0.618   2.571   4.202  0.0750  0.0589  0.2674
   50DOPE  H14X 6436   0.624   2.460   4.213 -1.6816 -0.0363  0.6174
   50DOPE  H14Y 6437   0.511   2.599   4.208 -0.0566  0.2438 -2.0319
   50DOPE  C315 6438   0.705   2.662   4.289  1.0788 -0.3060 -0.7876
   50DOPE  H15X 6439   0.685   2.770   4.277  1.0363 -0.2406 -0.1724
   50DOPE  H15Y 6440   0.812   2.651   4.260  1.2434 -0.6859 -0.0784
   50DOPE  C316 6441   0.691   2.624   4.443 -0.0967  0.3377 -0.5732
   50DOPE  H16X 6442   0.720   2.518   4.453  0.7042  0.2350 -3.2511
   50DOPE  H16Y 6443   0.587   2.631   4.483 -0.3756 -1.0161 -1.0211
   50DOPE  C317 6444   0.777   2.711   4.542  0.0430 -1.1893 -0.1202
   50DOPE  H17X 6445   0.886   2.704   4.518  0.5647  1.0394  1.3419
   50DOPE  H17Y 6446   0.755   2.819   4.549 -1.6040 -1.6036  3.0550
   50DOPE  C318 6447   0.755   2.673   4.683  0.4711  0.0467 -0.4261
   50DOPE  H18X 6448   0.786   2.566   4.690  0.6763  0.1056 -0.4257
   50DOPE  H18Y 6449   0.826   2.731   4.746  1.9736  2.6031 -4.1200
   50DOPE  H18Z 6450   0.650   2.682   4.716  0.1092 -2.8944 -0.5291
   51DOPE     N 6451   4.355   6.151   2.700 -0.0563  0.2075  0.0376
   51DOPE   HN1 6452   4.251   6.152   2.691  0.0756  1.8349 -2.4870
   51DOPE   HN2 6453   4.388   6.053   2.710  0.5722  0.1095 -2.3759
   51DOPE   HN3 6454   4.381   6.204   2.786  3.2431 -0.6173 -0.3035
   51DOPE   C12 6455   4.429   6.228   2.594 -0.0186 -0.5903  0.0552
   51DOPE  H12A 6456   4.428   6.332   2.632 -2.6198 -0.0285 -1.3479
   51DOPE  H12B 6457   4.386   6.236   2.492  2.3246  0.2409 -0.9529
   51DOPE   C11 6458   4.578   6.186   2.587 -0.0602  0.5443 -0.4673
   51DOPE  H11A 6459   4.622   6.202   2.687  1.2753 -0.3149 -0.8997
   51DOPE  H11B 6460   4.629   6.256   2.517  0.4127  3.0586  2.1982
   51DOPE     P 6461   4.722   5.996   2.514 -0.0149  0.2088 -0.2422
   51DOPE   O13 6462   4.759   6.086   2.408 -0.3980  0.8646 -0.0578
   51DOPE   O14 6463   4.716   5.851   2.481 -0.0965  0.5193  0.0105
   51DOPE   O11 6464   4.826   6.014   2.631 -0.7604 -0.4049 -0.4985
   51DOPE   O12 6465   4.585   6.047   2.567 -0.2141  0.3614  1.0010
   51DOPE    C1 6466   4.946   5.932   2.651  0.1614 -0.4853 -0.2977
   51DOPE    HA 6467   5.016   5.992   2.713 -0.5216 -1.1074  1.1376
   51DOPE    HB 6468   4.998   5.914   2.555  0.7331 -0.5552  0.0206
   51DOPE    C2 6469   4.920   5.796   2.729  0.0082  0.3439  0.1208
   51DOPE    HS 6470   4.872   5.730   2.653 -0.7079  1.9794 -0.8995
   51DOPE   O21 6471   4.839   5.834   2.843  0.8035 -0.2739  0.6042
   51DOPE   C21 6472   4.751   5.740   2.873  0.0534 -0.0808 -0.6411
   51DOPE   O22 6473   4.748   5.631   2.820  0.2301 -0.0155  0.0685
   51DOPE   C22 6474   4.664   5.786   2.987  0.2082  0.6387  0.4748
   51DOPE   H2R 6475   4.585   5.852   2.944 -0.9063 -2.2830 -2.3481
   51DOPE   H2S 6476   4.734   5.833   3.061 -0.6262 -1.9136  3.0568
   51DOPE    C3 6477   5.046   5.720   2.783  0.0347  0.2948 -0.1107
   51DOPE    HX 6478   4.992   5.629   2.817 -1.9550  1.5811  0.3741
   51DOPE    HY 6479   5.099   5.760   2.872  0.9764  0.7953 -0.8770
   51DOPE   O31 6480   5.144   5.681   2.681  0.3490 -0.3458  0.1213
   51DOPE   C31 6481   5.106   5.599   2.587  0.3123 -1.1638  0.1422
   51DOPE   O32 6482   5.001   5.536   2.585  0.0916  0.2589 -0.1224
   51DOPE   C32 6483   5.204   5.587   2.481 -0.1990 -0.4560  0.0309
   51DOPE   H2X 6484   5.172   5.506   2.411  0.2979  2.1290 -3.4106
   51DOPE   H2Y 6485   5.210   5.681   2.424 -0.2838  0.4416  1.4474
   51DOPE   C23 6486   4.588   5.668   3.061 -0.4213 -0.6095  0.3351
   51DOPE   H3R 6487   4.566   5.587   2.989 -0.3639 -0.8520  0.5891
   51DOPE   H3S 6488   4.487   5.703   3.090 -0.7281  2.1448 -3.2816
   51DOPE   C24 6489   4.663   5.611   3.177  0.2129 -0.4695 -0.3772
   51DOPE   H4R 6490   4.719   5.684   3.239 -0.5481 -0.7498  0.6655
   51DOPE   H4S 6491   4.752   5.558   3.136 -0.7670 -1.9650 -0.6693
   51DOPE   C25 6492   4.585   5.518   3.269 -0.1649 -0.1632 -0.5865
   51DOPE   H5R 6493   4.533   5.452   3.197 -3.3578  1.8161 -0.3175
   51DOPE   H5S 6494   4.505   5.567   3.329  0.3843 -0.9855  0.8734
   51DOPE   C26 6495   4.673   5.425   3.355 -0.0138  0.1375  0.3127
   51DOPE   H6R 6496   4.743   5.494   3.408 -0.5938  2.4211 -1.7265
   51DOPE   H6S 6497   4.728   5.356   3.287 -1.2709 -1.4912  0.8967
   51DOPE   C27 6498   4.597   5.329   3.452 -0.3460  0.3556  1.0519
   51DOPE   H7R 6499   4.519   5.280   3.391 -0.3670  0.8830  0.6456
   51DOPE   H7S 6500   4.544   5.390   3.528 -0.0234  1.9762  0.0375
   51DOPE   C28 6501   4.672   5.219   3.522  0.1028  0.4351 -0.4172
   51DOPE   H8R 6502   4.743   5.172   3.449 -2.2367 -2.0141 -1.3003
   51DOPE   H8S 6503   4.603   5.133   3.535  0.0502  0.6298  0.6357
   51DOPE   C29 6504   4.747   5.259   3.643 -0.0310  0.5687 -0.4625
   51DOPE   H9R 6505   4.853   5.286   3.626  1.1620 -1.6094  2.7115
   51DOPE  C210 6506   4.706   5.253   3.769  0.3463  0.4956 -0.2068
   51DOPE  H10R 6507   4.780   5.254   3.850 -2.4135 -1.4592  2.5412
   51DOPE  C211 6508   4.570   5.204   3.817 -0.5100  0.6291 -0.2781
   51DOPE  H11R 6509   4.490   5.196   3.741 -0.9301  0.7662  0.1457
   51DOPE  H11S 6510   4.523   5.271   3.892  0.1731 -0.1785  0.8947
   51DOPE  C212 6511   4.578   5.073   3.902 -0.0595 -0.4211  0.0784
   51DOPE  H12R 6512   4.619   4.986   3.847  2.6368 -0.3115  1.7425
   51DOPE  H12S 6513   4.478   5.041   3.938  0.0318  1.7644  2.5553
   51DOPE  C213 6514   4.658   5.101   4.035 -0.4262  0.6185 -0.0446
   51DOPE  H13R 6515   4.618   5.189   4.091 -0.9966  0.2088  0.1984
   51DOPE  H13S 6516   4.760   5.133   4.006 -0.4619  0.2602 -0.5724
   51DOPE  C214 6517   4.668   4.979   4.126  0.1587 -0.2099  0.2553
   51DOPE  H14R 6518   4.717   4.893   4.076  3.0816  1.4525  0.0635
   51DOPE  H14S 6519   4.566   4.944   4.152  0.3222 -0.7297  0.1913
   51DOPE  C215 6520   4.758   5.009   4.247 -0.1321  0.6015 -0.0830
   51DOPE  H15R 6521   4.727   5.102   4.300  3.8190  1.9750  0.1843
   51DOPE  H15S 6522   4.862   5.039   4.220 -0.7973  1.8136 -1.4162
   51DOPE  C216 6523   4.761   4.894   4.351 -0.6964  0.0988 -0.1250
   51DOPE  H16R 6524   4.760   4.798   4.294 -2.5279 -0.5927  0.9870
   51DOPE  H16S 6525   4.666   4.898   4.408 -0.2977 -2.7473  0.9145
   51DOPE  C217 6526   4.888   4.899   4.444  0.0253 -0.5344 -0.6958
   51DOPE  H17R 6527   4.972   4.895   4.371 -0.8474 -1.1159 -1.7168
   51DOPE  H17S 6528   4.883   4.808   4.507  2.1765 -0.3981 -0.2743
   51DOPE  C218 6529   4.887   5.030   4.526 -0.1608  0.0561 -0.2822
   51DOPE  H18R 6530   4.812   5.035   4.607 -0.1646  0.1524 -0.2920
   51DOPE  H18S 6531   4.890   5.119   4.460  2.6849  1.5157  1.5891
   51DOPE  H18T 6532   4.984   5.036   4.580  0.1545  1.1786 -0.9472
   51DOPE   C33 6533   5.347   5.558   2.530 -0.4969  0.3939  0.1776
   51DOPE   H3X 6534   5.366   5.633   2.611  1.6633  0.6034 -0.4483
   51DOPE   H3Y 6535   5.420   5.599   2.457 -0.5548  1.5723  0.7563
   51DOPE   C34 6536   5.378   5.407   2.566 -0.1702  0.0261 -0.2405
   51DOPE   H4X 6537   5.380   5.353   2.469  2.0837 -1.0494  0.3459
   51DOPE   H4Y 6538   5.481   5.406   2.606 -0.7954  0.9142  1.4886
   51DOPE   C35 6539   5.276   5.335   2.657 -0.1552  0.1435 -0.3629
   51DOPE   H5X 6540   5.298   5.226   2.661  0.8023  0.3597  0.8048
   51DOPE   H5Y 6541   5.175   5.350   2.615 -0.6347  3.4308  1.6469
   51DOPE   C36 6542   5.271   5.372   2.806 -0.2712 -0.4339  0.5422
   51DOPE   H6X 6543   5.246   5.480   2.809  0.9732 -0.1366  0.6207
   51DOPE   H6Y 6544   5.369   5.362   2.856  0.5455  1.1788 -0.6581
   51DOPE   C37 6545   5.160   5.298   2.877 -0.0246  0.2829 -0.4100
   51DOPE   H7X 6546   5.073   5.301   2.807  0.7041  0.5795 -1.3373
   51DOPE   H7Y 6547   5.194   5.194   2.896  0.6047  0.4016 -0.8189
   51DOPE   C38 6548   5.126   5.386   3.002  0.5227  0.3860 -0.4038
   51DOPE   H8X 6549   5.110   5.494   2.980 -2.0149  0.3206  0.7562
   51DOPE   H8Y 6550   5.208   5.384   3.077  0.3436  1.6835 -0.1430
   51DOPE   C39 6551   5.005   5.325   3.060  0.2173  0.0855 -0.7070
   51DOPE   H9X 6552   4.919   5.389   3.036  0.9297  1.6392  0.6458
   51DOPE  C310 6553   4.984   5.208   3.134 -0.4224  0.1751  0.0386
   51DOPE  H10X 6554   4.890   5.184   3.186  0.5022 -0.5320  1.4577
   51DOPE  C311 6555   5.104   5.123   3.172  0.0912  0.2748 -1.0062
   51DOPE  H11X 6556   5.072   5.018   3.162  0.6452  0.1712 -1.7484
   51DOPE  H11Y 6557   5.191   5.140   3.105  1.1429  2.9538  0.8363
   51DOPE  C312 6558   5.136   5.128   3.325  0.0263  0.7164  0.3637
   51DOPE  H12X 6559   5.167   5.230   3.357  0.3931  0.4320  0.9330
   51DOPE  H12Y 6560   5.232   5.073   3.327 -0.0614  0.4999 -0.7925
   51DOPE  C313 6561   5.048   5.054   3.433 -1.3559 -0.7317  0.0546
   51DOPE  H13X 6562   4.956   5.112   3.459 -0.5902  0.9086 -0.7019
   51DOPE  H13Y 6563   5.029   4.953   3.391  2.9259 -1.7641  0.1284
   51DOPE  C314 6564   5.143   5.036   3.560  0.8100  0.2194 -0.8986
   51DOPE  H14X 6565   5.183   5.131   3.603  0.3517  0.5982 -1.3020
   51DOPE  H14Y 6566   5.237   4.984   3.531  0.4703 -0.2501 -1.1602
   51DOPE  C315 6567   5.056   4.957   3.666 -0.2374  0.1139  0.6172
   51DOPE  H15X 6568   5.016   4.864   3.620  0.1482  1.0107 -1.7171
   51DOPE  H15Y 6569   4.970   5.021   3.696 -0.2889  0.1191  0.4644
   51DOPE  C316 6570   5.133   4.945   3.797  0.2721  0.9058 -0.0327
   51DOPE  H16X 6571   5.218   5.016   3.805  0.4153  1.1491 -2.8023
   51DOPE  H16Y 6572   5.177   4.843   3.797  0.8783  1.0846 -2.8989
   51DOPE  C317 6573   5.038   4.950   3.915 -0.0179 -0.1197 -0.4038
   51DOPE  H17X 6574   5.002   5.055   3.902 -0.5832 -0.2827 -0.1795
   51DOPE  H17Y 6575   4.951   4.881   3.906 -0.4193 -0.0036  1.9023
   51DOPE  C318 6576   5.105   4.956   4.049  0.0365 -0.3155 -0.9214
   51DOPE  H18X 6577   5.034   4.957   4.135 -0.4495 -0.7961 -1.3085
   51DOPE  H18Y 6578   5.169   4.867   4.067  1.0787  0.7256  0.9298
   51DOPE  H18Z 6579   5.172   5.045   4.052  0.1508 -0.4202 -0.3220
   52DOPE     N 6580   7.177   4.291   2.470  0.0494  0.0947 -0.1800
   52DOPE   HN1 6581   7.127   4.216   2.418 -0.3280  1.2563 -1.5631
   52DOPE   HN2 6582   7.271   4.279   2.428 -0.3357 -0.1613 -0.9927
   52DOPE   HN3 6583   7.180   4.269   2.571  0.2968 -0.4327 -0.3004
   52DOPE   C12 6584   7.102   4.410   2.444  0.8125  0.2759  0.2113
   52DOPE  H12A 6585   7.072   4.413   2.337  0.6889 -2.5879  0.0910
   52DOPE  H12B 6586   7.167   4.495   2.473  0.2311  1.7307 -2.3988
   52DOPE   C11 6587   6.970   4.411   2.526  0.1509 -0.2121 -0.5623
   52DOPE  H11A 6588   6.903   4.496   2.502  0.8112  0.1978 -0.9822
   52DOPE  H11B 6589   6.999   4.420   2.632  1.0431 -1.1420 -0.7073
   52DOPE     P 6590   6.766   4.281   2.419  0.4374 -0.4309 -0.0595
   52DOPE   O13 6591   6.765   4.149   2.357 -0.1300  0.4716 -0.3418
   52DOPE   O14 6592   6.744   4.400   2.332 -0.2994  0.2876  0.6190
   52DOPE   O11 6593   6.662   4.286   2.534  0.2186  0.1582  0.2661
   52DOPE   O12 6594   6.903   4.288   2.500 -0.1676  0.2008 -0.6987
   52DOPE    C1 6595   6.673   4.192   2.648  0.2204 -0.0719 -0.4839
   52DOPE    HA 6596   6.764   4.129   2.635  1.2468  1.4120 -0.9074
   52DOPE    HB 6597   6.582   4.130   2.661  0.0955  0.4623  1.3907
   52DOPE    C2 6598   6.693   4.279   2.776  0.7403 -0.3216  0.2669
   52DOPE    HS 6599   6.796   4.320   2.776  0.0811  1.4693  1.5777
   52DOPE   O21 6600   6.670   4.190   2.892 -0.2537 -0.5842  0.0721
   52DOPE   C21 6601   6.785   4.124   2.924 -0.4660 -0.4816 -0.5862
   52DOPE   O22 6602   6.889   4.129   2.863 -0.2397 -0.3329  0.3016
   52DOPE   C22 6603   6.766   4.042   3.052  0.0110  0.4154  0.0524
   52DOPE   H2R 6604   6.833   3.954   3.048 -1.4266 -0.7159  0.0682
   52DOPE   H2S 6605   6.659   4.013   3.050 -0.0127  0.4928  0.1296
   52DOPE    C3 6606   6.587   4.391   2.778 -0.2403 -0.5234  0.2429
   52DOPE    HX 6607   6.493   4.336   2.754 -0.2607 -1.0183  1.3879
   52DOPE    HY 6608   6.606   4.465   2.698  3.5787 -0.6159  0.8876
   52DOPE   O31 6609   6.556   4.444   2.906 -0.1484 -0.4057  0.5246
   52DOPE   C31 6610   6.618   4.551   2.940 -0.3402  0.5399 -0.5473
   52DOPE   O32 6611   6.706   4.611   2.879  0.3618  0.0806  0.3082
   52DOPE   C32 6612   6.571   4.593   3.077 -0.0124 -0.6269  0.1975
   52DOPE   H2X 6613   6.481   4.658   3.072 -0.3103 -1.1139 -3.5423
   52DOPE   H2Y 6614   6.533   4.501   3.126  0.9530 -1.9185 -1.3746
   52DOPE   C23 6615   6.767   4.135   3.178 -0.0422  0.6396  0.4513
   52DOPE   H3R 6616   6.728   4.076   3.264 -2.0693 -0.5236 -1.1890
   52DOPE   H3S 6617   6.701   4.224   3.175  1.7370  2.0340  0.9651
   52DOPE   C24 6618   6.915   4.173   3.220  0.1768  0.4448  0.1213
   52DOPE   H4R 6619   6.907   4.204   3.326  1.8430 -0.9595  0.7025
   52DOPE   H4S 6620   6.933   4.263   3.157 -0.9754 -0.7202 -2.0111
   52DOPE   C25 6621   7.021   4.061   3.214  0.0404 -0.3089 -0.0002
   52DOPE   H5R 6622   7.040   4.031   3.108 -0.8814  0.2782 -0.3448
   52DOPE   H5S 6623   6.989   3.971   3.272 -1.2941  0.7082  0.9073
   52DOPE   C26 6624   7.143   4.116   3.290 -0.8961  0.9304 -0.4296
   52DOPE   H6R 6625   7.100   4.142   3.389 -1.7881  0.3764 -0.6572
   52DOPE   H6S 6626   7.185   4.207   3.240  0.6546  0.4324 -0.0704
   52DOPE   C27 6627   7.250   4.014   3.308 -0.3451  0.0127  0.6502
   52DOPE   H7R 6628   7.298   4.007   3.208  0.1888 -0.5202  0.9368
   52DOPE   H7S 6629   7.215   3.911   3.331 -1.3304 -0.3131 -2.0370
   52DOPE   C28 6630   7.356   4.070   3.407  0.6941  0.9583  0.2067
   52DOPE   H8R 6631   7.303   4.072   3.504 -2.0301  1.2217 -1.1891
   52DOPE   H8S 6632   7.397   4.167   3.373  0.7431  0.3708 -1.4964
   52DOPE   C29 6633   7.480   3.984   3.421  0.5212  0.1173  0.3757
   52DOPE   H9R 6634   7.536   3.974   3.327  1.4449  0.5057  0.8757
   52DOPE  C210 6635   7.527   3.915   3.528  0.0674  0.3617  0.4043
   52DOPE  H10R 6636   7.615   3.851   3.520 -0.7033 -0.7493  0.5478
   52DOPE  C211 6637   7.462   3.916   3.661 -0.3888 -0.2489  0.5335
   52DOPE  H11R 6638   7.465   3.812   3.700  0.0397 -0.7888 -0.8850
   52DOPE  H11S 6639   7.354   3.942   3.664 -0.1233  1.3899 -1.5793
   52DOPE  C212 6640   7.539   4.009   3.762  0.1053  0.0157  0.1270
   52DOPE  H12R 6641   7.544   4.114   3.727  2.1133  0.0643  0.4475
   52DOPE  H12S 6642   7.648   3.987   3.767  0.4573  1.7861  1.0240
   52DOPE  C213 6643   7.479   3.992   3.897 -0.1268 -0.0173 -0.2449
   52DOPE  H13R 6644   7.486   3.883   3.916  0.8160  0.0237 -0.2788
   52DOPE  H13S 6645   7.373   4.025   3.899 -0.1141  0.0007  0.2183
   52DOPE  C214 6646   7.566   4.062   4.005  0.1879  0.1945 -0.0130
   52DOPE  H14R 6647   7.575   4.172   3.989 -1.3424  0.6651  1.9649
   52DOPE  H14S 6648   7.669   4.022   4.013 -0.5096 -1.2970  2.2644
   52DOPE  C215 6649   7.496   4.049   4.145  0.2364  0.3055  0.1383
   52DOPE  H15R 6650   7.479   3.942   4.168  2.9402  0.0607  1.3123
   52DOPE  H15S 6651   7.394   4.094   4.136  0.6815  1.0968 -1.3055
   52DOPE  C216 6652   7.581   4.101   4.260 -0.6751  0.0301  0.5321
   52DOPE  H16R 6653   7.601   4.205   4.229  2.6410 -0.3461  1.0657
   52DOPE  H16S 6654   7.683   4.056   4.252  0.0270  1.5057  0.8692
   52DOPE  C217 6655   7.521   4.105   4.400  0.7585 -0.7510  0.5459
   52DOPE  H17R 6656   7.443   4.183   4.406 -1.3662 -2.5320 -1.5963
   52DOPE  H17S 6657   7.604   4.130   4.470  1.7617 -0.2055 -0.7959
   52DOPE  C218 6658   7.465   3.972   4.439 -0.4906 -0.9690 -0.3749
   52DOPE  H18R 6659   7.405   3.963   4.532  1.6975 -0.4302  1.1644
   52DOPE  H18S 6660   7.393   3.932   4.365  1.4652 -3.3129 -1.1381
   52DOPE  H18T 6661   7.537   3.888   4.450  1.7505  1.0356  1.5725
   52DOPE   C33 6662   6.689   4.656   3.147 -0.2344 -0.0901 -0.4596
   52DOPE   H3X 6663   6.664   4.699   3.247 -0.8258 -0.4155 -0.4603
   52DOPE   H3Y 6664   6.740   4.737   3.092  4.1696 -0.3847  2.6669
   52DOPE   C34 6665   6.792   4.542   3.183  0.1486  0.0454  0.1467
   52DOPE   H4X 6666   6.749   4.464   3.250 -0.2742  0.0330 -0.1340
   52DOPE   H4Y 6667   6.820   4.488   3.090  0.1438  1.6890 -0.8664
   52DOPE   C35 6668   6.912   4.585   3.259  0.1636 -0.1230  0.6405
   52DOPE   H5X 6669   6.879   4.635   3.353 -1.5457 -0.5959  0.3157
   52DOPE   H5Y 6670   6.966   4.661   3.198 -0.3178  0.4458  0.9034
   52DOPE   C36 6671   7.011   4.479   3.292 -0.3114 -0.9215 -0.5933
   52DOPE   H6X 6672   7.051   4.449   3.193 -0.4386  0.1667 -0.9885
   52DOPE   H6Y 6673   6.962   4.386   3.330  0.6788 -1.3587 -0.3612
   52DOPE   C37 6674   7.125   4.527   3.384  0.1887  0.1635  0.9523
   52DOPE   H7X 6675   7.216   4.463   3.373 -0.0891  0.1200 -1.5150
   52DOPE   H7Y 6676   7.157   4.631   3.364  2.8584 -0.8763 -0.8397
   52DOPE   C38 6677   7.090   4.532   3.530 -0.4476  0.6063  0.3462
   52DOPE   H8X 6678   7.006   4.604   3.541 -2.0463 -0.7424 -2.1565
   52DOPE   H8Y 6679   7.182   4.560   3.586 -0.2466 -1.7303  1.2949
   52DOPE   C39 6680   7.043   4.399   3.582  0.6567 -0.2941 -0.6188
   52DOPE   H9X 6681   6.943   4.363   3.552  0.1900 -0.0154  0.5405
   52DOPE  C310 6682   7.099   4.325   3.676  0.3680  0.3824 -0.3347
   52DOPE  H10X 6683   7.053   4.229   3.704  1.3110  0.3201  1.0769
   52DOPE  C311 6684   7.221   4.356   3.760 -0.1778  0.1777  0.4188
   52DOPE  H11X 6685   7.315   4.307   3.725  0.2109  1.0517  0.2020
   52DOPE  H11Y 6686   7.232   4.466   3.773  0.6030 -0.0721  2.1429
   52DOPE  C312 6687   7.204   4.308   3.907  0.0135  0.0183  0.4469
   52DOPE  H12X 6688   7.304   4.285   3.949  0.3287 -0.3560 -0.4770
   52DOPE  H12Y 6689   7.153   4.209   3.909 -1.5567  0.7904 -0.3123
   52DOPE  C313 6690   7.131   4.402   3.994 -0.6794 -0.5449 -0.5545
   52DOPE  H13X 6691   7.189   4.495   4.014  0.7306 -1.5427  0.1920
   52DOPE  H13Y 6692   7.030   4.432   3.959 -0.9221 -0.0392  0.5428
   52DOPE  C314 6693   7.118   4.338   4.136 -0.6756 -0.9857 -0.1421
   52DOPE  H14X 6694   7.126   4.420   4.211 -0.0710 -1.4882  0.3616
   52DOPE  H14Y 6695   7.202   4.266   4.141  0.0361 -0.2980 -1.5508
   52DOPE  C315 6696   6.988   4.260   4.148  0.3551  0.4330 -0.0201
   52DOPE  H15X 6697   6.983   4.193   4.059  0.8312 -0.1710  0.4048
   52DOPE  H15Y 6698   6.904   4.333   4.139  0.1217  0.2626  0.7171
   52DOPE  C316 6699   6.967   4.174   4.275 -0.2493  0.0663 -0.6700
   52DOPE  H16X 6700   6.987   4.239   4.364 -1.4702 -2.5218  1.6353
   52DOPE  H16Y 6701   7.041   4.092   4.272  1.0028  1.1558 -0.6679
   52DOPE  C317 6702   6.826   4.124   4.288  0.7924  0.5497 -0.2955
   52DOPE  H17X 6703   6.757   4.211   4.288 -1.9417 -1.4690  0.0956
   52DOPE  H17Y 6704   6.802   4.068   4.195 -0.1443 -0.7555  0.6959
   52DOPE  C318 6705   6.801   4.042   4.417  0.4465 -0.6543  0.6033
   52DOPE  H18X 6706   6.844   3.940   4.408  1.5463 -0.1575 -0.1020
   52DOPE  H18Y 6707   6.859   4.083   4.503 -0.4615 -1.6964  1.7447
   52DOPE  H18Z 6708   6.693   4.034   4.442  0.1116  1.3305  0.0152
   53DOPE     N 6709   6.641   0.439   1.393  0.7920 -0.9992 -0.2095
   53DOPE   HN1 6710   6.666   0.413   1.295 -0.5446 -0.1627 -0.7973
   53DOPE   HN2 6711   6.539   0.425   1.403  0.6029 -0.2544 -0.9547
   53DOPE   HN3 6712   6.675   0.533   1.421 -3.0145  0.1557  1.1435
   53DOPE   C12 6713   6.704   0.333   1.479 -0.4881  0.0067 -0.0306
   53DOPE  H12A 6714   6.709   0.244   1.413 -0.3142  0.5659 -0.7859
   53DOPE  H12B 6715   6.638   0.322   1.568 -0.5448  0.5068 -0.0090
   53DOPE   C11 6716   6.838   0.376   1.523 -0.5183 -0.3728 -0.0212
   53DOPE  H11A 6717   6.906   0.375   1.435 -1.2684  0.5748 -0.6252
   53DOPE  H11B 6718   6.870   0.295   1.593 -1.2280 -1.8085 -1.2868
   53DOPE     P 6719   6.942   0.594   1.618 -0.0658  0.0512  0.0857
   53DOPE   O13 6720   6.898   0.725   1.561  0.1418  0.2484 -0.4786
   53DOPE   O14 6721   7.074   0.549   1.570 -0.0917  0.5893 -0.2385
   53DOPE   O11 6722   6.946   0.586   1.774  0.1388 -0.0014 -0.0589
   53DOPE   O12 6723   6.821   0.502   1.584 -0.5512 -0.0500  0.0850
   53DOPE    C1 6724   6.846   0.513   1.852 -0.6367  0.4660 -1.2854
   53DOPE    HA 6725   6.862   0.403   1.851  0.7439  0.5125  2.1322
   53DOPE    HB 6726   6.741   0.521   1.816  0.0837  0.9211 -3.4657
   53DOPE    C2 6727   6.864   0.545   2.006 -0.5800 -0.2543  0.3191
   53DOPE    HS 6728   6.768   0.526   2.059 -1.2700  3.2634  0.5761
   53DOPE   O21 6729   6.879   0.691   2.026 -0.5328  0.1025  0.6758
   53DOPE   C21 6730   6.768   0.755   2.005 -0.4210 -0.1159  0.0623
   53DOPE   O22 6731   6.664   0.714   1.957  0.0154 -0.7054  0.2949
   53DOPE   C22 6732   6.800   0.900   2.053 -0.5427  0.1611  0.2273
   53DOPE   H2R 6733   6.737   0.960   1.984  0.3231  0.0478 -0.6741
   53DOPE   H2S 6734   6.905   0.936   2.041 -0.1042 -0.9454  0.6531
   53DOPE    C3 6735   6.982   0.465   2.068  0.4693 -0.1515 -0.0820
   53DOPE    HX 6736   7.075   0.491   2.012  1.5552  0.3891  1.8527
   53DOPE    HY 6737   6.961   0.357   2.055  0.2777  0.0587 -1.7013
   53DOPE   O31 6738   6.993   0.509   2.207  0.0826  0.1449 -0.2505
   53DOPE   C31 6739   6.945   0.433   2.306  0.3044 -0.2989  0.5055
   53DOPE   O32 6740   6.877   0.328   2.287 -0.2449 -0.2819 -0.3250
   53DOPE   C32 6741   6.967   0.486   2.442 -0.0724  0.0522 -0.8405
   53DOPE   H2X 6742   7.077   0.487   2.459 -0.3546 -0.2791  1.1725
   53DOPE   H2Y 6743   6.922   0.586   2.460 -2.4124 -1.4873  3.0298
   53DOPE   C23 6744   6.761   0.926   2.197  0.1634  0.2739 -0.3314
   53DOPE   H3R 6745   6.656   0.893   2.212 -0.6248  2.4366 -0.7349
   53DOPE   H3S 6746   6.754   1.036   2.211  3.2205  0.6194 -0.8461
   53DOPE   C24 6747   6.856   0.866   2.305 -0.3156 -0.2167 -0.4286
   53DOPE   H4R 6748   6.957   0.898   2.275 -0.8266  1.2945 -0.6243
   53DOPE   H4S 6749   6.855   0.755   2.299  1.1038 -0.2084 -1.1443
   53DOPE   C25 6750   6.820   0.931   2.443 -0.0817  0.2351 -0.1647
   53DOPE   H5R 6751   6.710   0.916   2.454  0.4449 -2.5722  2.5976
   53DOPE   H5S 6752   6.845   1.039   2.441  3.2311 -0.4226 -1.1372
   53DOPE   C26 6753   6.889   0.858   2.559 -0.5048 -0.5046 -0.2590
   53DOPE   H6R 6754   6.866   0.749   2.559 -1.0767 -0.3849 -0.3406
   53DOPE   H6S 6755   6.863   0.898   2.660 -3.1373  2.0479 -1.7933
   53DOPE   C27 6756   7.043   0.869   2.531  0.3193  0.3622  0.5226
   53DOPE   H7R 6757   7.085   0.971   2.517 -1.4249  1.0111 -0.3394
   53DOPE   H7S 6758   7.056   0.808   2.439  1.3352 -0.3103  1.0890
   53DOPE   C28 6759   7.121   0.808   2.649  0.8369 -0.3211 -0.4509
   53DOPE   H8R 6760   7.227   0.823   2.620  0.6611 -0.6047 -1.2602
   53DOPE   H8S 6761   7.102   0.698   2.643 -1.8176  0.1414 -2.3172
   53DOPE   C29 6762   7.098   0.876   2.780 -0.1340  0.3513 -0.4663
   53DOPE   H9R 6763   7.055   0.976   2.766  0.0042  0.0806 -3.6277
   53DOPE  C210 6764   7.102   0.812   2.897 -0.3691 -0.2635  0.3821
   53DOPE  H10R 6765   7.056   0.869   2.980  0.7676  0.7085  0.3640
   53DOPE  C211 6766   7.130   0.666   2.917 -1.1666 -0.1659  0.5883
   53DOPE  H11R 6767   7.207   0.626   2.847 -2.2094 -0.2237 -0.5702
   53DOPE  H11S 6768   7.041   0.611   2.880  0.0790 -1.3871 -0.7390
   53DOPE  C212 6769   7.168   0.639   3.066  0.7525  0.2314  0.3857
   53DOPE  H12R 6770   7.265   0.688   3.090  0.4172  2.3719 -2.1409
   53DOPE  H12S 6771   7.198   0.531   3.067 -0.7046 -0.1853  0.6097
   53DOPE  C213 6772   7.065   0.675   3.174  0.1128  0.0495  0.1271
   53DOPE  H13R 6773   6.965   0.634   3.147  1.7681 -2.1299 -3.2777
   53DOPE  H13S 6774   7.037   0.782   3.167  0.1600  0.0660  0.1867
   53DOPE  C214 6775   7.108   0.636   3.317 -0.0135 -0.1243 -1.2672
   53DOPE  H14R 6776   7.212   0.670   3.336 -0.4310 -0.1070  1.3593
   53DOPE  H14S 6777   7.103   0.526   3.327 -1.2007 -0.0563 -0.9778
   53DOPE  C215 6778   7.014   0.684   3.422 -0.4341  0.0395  0.5770
   53DOPE  H15R 6779   6.909   0.653   3.403 -0.8192  1.4983  0.1888
   53DOPE  H15S 6780   7.004   0.794   3.421 -3.6272 -0.1492  0.4253
   53DOPE  C216 6781   7.051   0.633   3.567 -0.0989  0.1411  0.5999
   53DOPE  H16R 6782   7.158   0.654   3.586  0.3733 -0.9429 -0.6897
   53DOPE  H16S 6783   7.038   0.524   3.584 -0.5782  0.2387  0.8802
   53DOPE  C217 6784   6.969   0.713   3.662 -0.3260 -0.3475 -0.0182
   53DOPE  H17R 6785   6.863   0.686   3.643 -0.1044 -0.2535 -1.5689
   53DOPE  H17S 6786   6.983   0.823   3.653  1.0928 -0.2216  2.8451
   53DOPE  C218 6787   7.004   0.682   3.808  0.0114  0.2175  0.0400
   53DOPE  H18R 6788   6.961   0.753   3.881  1.3832  0.6377  0.4595
   53DOPE  H18S 6789   7.114   0.682   3.821  0.2079  0.9400 -1.4210
   53DOPE  H18T 6790   6.959   0.586   3.840 -0.1667 -0.2490 -1.5158
   53DOPE   C33 6791   6.919   0.388   2.553  0.1244  0.1505  0.1339
   53DOPE   H3X 6792   6.982   0.297   2.544  0.0125  0.0959 -0.1175
   53DOPE   H3Y 6793   6.816   0.356   2.527  0.0065  1.0605 -0.5924
   53DOPE   C34 6794   6.911   0.435   2.698 -0.1725 -0.3520 -0.1076
   53DOPE   H4X 6795   7.015   0.461   2.728 -0.3380  0.0032  0.1668
   53DOPE   H4Y 6796   6.861   0.533   2.713  1.4258  0.5606 -0.5501
   53DOPE   C35 6797   6.850   0.339   2.798  0.1395  0.1543 -0.1516
   53DOPE   H5X 6798   6.906   0.244   2.791  0.3548  0.2281  0.4746
   53DOPE   H5Y 6799   6.746   0.320   2.764  0.4605 -0.8418 -0.6142
   53DOPE   C36 6800   6.835   0.382   2.944 -0.4189 -0.2088 -0.0312
   53DOPE   H6X 6801   6.780   0.479   2.939 -2.4155 -1.3410 -2.0466
   53DOPE   H6Y 6802   6.932   0.400   2.995 -1.3187  0.1380  1.6183
   53DOPE   C37 6803   6.754   0.283   3.033  0.3647 -0.2528 -0.2246
   53DOPE   H7X 6804   6.661   0.250   2.982 -0.3606 -0.8616  1.4379
   53DOPE   H7Y 6805   6.817   0.195   3.058  0.1647 -0.3094  0.0889
   53DOPE   C38 6806   6.715   0.353   3.162 -0.5646  0.1874 -0.0235
   53DOPE   H8X 6807   6.661   0.447   3.141  1.7751  1.7482  0.5691
   53DOPE   H8Y 6808   6.806   0.394   3.211 -0.9077  2.9292 -1.5385
   53DOPE   C39 6809   6.620   0.267   3.247  0.2468 -0.0228  0.2775
   53DOPE   H9X 6810   6.553   0.208   3.185  0.4417  1.2529 -1.2038
   53DOPE  C310 6811   6.619   0.256   3.378 -0.0256  0.1813 -0.2073
   53DOPE  H10X 6812   6.551   0.190   3.434  2.9010 -1.4592  1.6899
   53DOPE  C311 6813   6.711   0.333   3.469 -0.1716  0.2769  0.4797
   53DOPE  H11X 6814   6.813   0.291   3.458  0.7518  2.4353  0.2105
   53DOPE  H11Y 6815   6.731   0.432   3.421 -3.0131  0.2258 -1.0461
   53DOPE  C312 6816   6.666   0.351   3.614  0.2885 -0.1677 -0.2569
   53DOPE  H12X 6817   6.594   0.271   3.643  1.9471 -2.2487 -1.5638
   53DOPE  H12Y 6818   6.616   0.449   3.627  0.6593 -0.2430  2.3242
   53DOPE  C313 6819   6.773   0.346   3.721  0.1907  0.5306  0.1917
   53DOPE  H13X 6820   6.790   0.239   3.744  0.8370  0.7460  0.7561
   53DOPE  H13Y 6821   6.872   0.384   3.687  0.0787 -0.0226 -0.7998
   53DOPE  C314 6822   6.729   0.422   3.850  0.5437  0.4125  0.8173
   53DOPE  H14X 6823   6.697   0.524   3.820 -1.7006  0.1417  2.0513
   53DOPE  H14Y 6824   6.810   0.436   3.926  0.2903 -0.2395  1.2156
   53DOPE  C315 6825   6.607   0.364   3.921  0.4883 -0.5393  0.4145
   53DOPE  H15X 6826   6.621   0.262   3.963  0.4839 -1.5310 -1.8420
   53DOPE  H15Y 6827   6.527   0.357   3.844  0.8214  1.3841 -0.1532
   53DOPE  C316 6828   6.553   0.455   4.037  0.1113 -0.1737  0.2756
   53DOPE  H16X 6829   6.622   0.429   4.120  0.8358 -1.6705 -0.7492
   53DOPE  H16Y 6830   6.452   0.424   4.069 -0.0486  1.2776  1.2743
   53DOPE  C317 6831   6.553   0.607   4.018  0.5330 -0.0082  0.2139
   53DOPE  H17X 6832   6.648   0.663   4.014  0.1110  0.8489  1.5528
   53DOPE  H17Y 6833   6.520   0.624   3.913  1.2134 -0.5883 -0.0965
   53DOPE  C318 6834   6.467   0.684   4.112 -0.0032 -0.9174  0.2490
   53DOPE  H18X 6835   6.511   0.708   4.211  1.1841 -0.2135 -0.4218
   53DOPE  H18Y 6836   6.449   0.788   4.076  3.5001  0.0985  1.0307
   53DOPE  H18Z 6837   6.365   0.642   4.123  0.7597 -2.3761  2.4962
   54DOPE     N 6838   6.509   3.415   2.281 -0.3037  0.2408  0.2621
   54DOPE   HN1 6839   6.580   3.429   2.207  0.3237 -1.2284  0.5681
   54DOPE   HN2 6840   6.503   3.314   2.303 -0.7942 -0.3667 -2.3124
   54DOPE   HN3 6841   6.419   3.443   2.236 -0.6222  0.3842  0.9741
   54DOPE   C12 6842   6.534   3.517   2.391 -0.3748  0.4152  0.0592
   54DOPE  H12A 6843   6.455   3.493   2.465 -0.8338  2.4440  0.2935
   54DOPE  H12B 6844   6.506   3.620   2.360 -1.0489  1.0904  2.6795
   54DOPE   C11 6845   6.677   3.529   2.438 -0.3528 -0.0365 -0.7736
   54DOPE  H11A 6846   6.704   3.427   2.475  1.4198  0.7541  0.2212
   54DOPE  H11B 6847   6.683   3.602   2.521 -0.5200  1.8144 -2.3104
   54DOPE     P 6848   6.918   3.577   2.349  0.4302 -0.2693  0.0144
   54DOPE   O13 6849   6.988   3.622   2.227  0.4260  0.0450  0.0102
   54DOPE   O14 6850   6.974   3.454   2.418 -0.0955 -0.4505 -0.5520
   54DOPE   O11 6851   6.911   3.701   2.440  0.0602 -0.1849  0.1098
   54DOPE   O12 6852   6.764   3.555   2.325  0.2790  0.5280  0.1133
   54DOPE    C1 6853   7.012   3.733   2.542  0.7158  0.0207 -0.4306
   54DOPE    HA 6854   7.025   3.841   2.566  1.2109 -0.3644  1.1422
   54DOPE    HB 6855   7.112   3.689   2.525  0.8142  0.2760 -0.5249
   54DOPE    C2 6856   6.982   3.672   2.687  0.1767 -0.0583  0.5818
   54DOPE    HS 6857   7.023   3.569   2.687  1.7487  0.5239  1.9209
   54DOPE   O21 6858   6.840   3.669   2.721 -0.2366 -0.3924 -0.1661
   54DOPE   C21 6859   6.805   3.562   2.796  0.3121  0.2607 -0.0445
   54DOPE   O22 6860   6.875   3.466   2.820  0.4254 -0.2847 -0.0955
   54DOPE   C22 6861   6.660   3.584   2.844  0.1759  0.3659 -0.3489
   54DOPE   H2R 6862   6.593   3.593   2.756  0.1050 -2.2158 -0.6342
   54DOPE   H2S 6863   6.671   3.681   2.898  3.3094  0.8425 -1.6036
   54DOPE    C3 6864   7.052   3.763   2.794  0.5540  0.4828  0.6059
   54DOPE    HX 6865   7.005   3.864   2.794  1.3315  0.9023 -1.5366
   54DOPE    HY 6866   7.158   3.775   2.761  0.4205  0.3037  0.1043
   54DOPE   O31 6867   7.041   3.709   2.931 -0.2900  0.5423 -0.1023
   54DOPE   C31 6868   7.124   3.607   2.954  0.0904 -0.1386  0.8682
   54DOPE   O32 6869   7.205   3.562   2.874  0.1929  0.7732  0.0371
   54DOPE   C32 6870   7.129   3.576   3.104 -0.2570  0.1398 -1.1161
   54DOPE   H2X 6871   7.235   3.556   3.127 -0.7453 -0.6646  0.5994
   54DOPE   H2Y 6872   7.122   3.666   3.168 -0.5621 -0.4198 -0.3450
   54DOPE   C23 6873   6.593   3.472   2.937 -0.1265 -0.2806  0.4815
   54DOPE   H3R 6874   6.673   3.416   2.989 -1.2162 -1.0004  1.4315
   54DOPE   H3S 6875   6.548   3.402   2.863  1.7318  0.2728 -1.2793
   54DOPE   C24 6876   6.493   3.526   3.040 -0.9858 -0.1597 -0.5825
   54DOPE   H4R 6877   6.397   3.560   2.995 -0.5308  1.5225 -0.3458
   54DOPE   H4S 6878   6.537   3.620   3.080 -3.0443 -0.3508  2.4029
   54DOPE   C25 6879   6.466   3.433   3.164 -0.1411  0.2602  0.6699
   54DOPE   H5R 6880   6.418   3.492   3.245 -0.7383  2.0230 -0.9052
   54DOPE   H5S 6881   6.561   3.389   3.203  0.1573  0.8368  0.6051
   54DOPE   C26 6882   6.381   3.305   3.128 -0.6467 -0.6621  0.0690
   54DOPE   H6R 6883   6.438   3.229   3.071  0.4288  0.5055 -0.4473
   54DOPE   H6S 6884   6.292   3.332   3.066 -0.9887 -2.5656 -0.3357
   54DOPE   C27 6885   6.309   3.238   3.254  0.0704  0.0084 -0.1164
   54DOPE   H7R 6886   6.237   3.166   3.209 -0.9618  2.1615 -2.0948
   54DOPE   H7S 6887   6.249   3.319   3.302  0.5805  0.0222  0.5201
   54DOPE   C28 6888   6.412   3.177   3.352 -0.0092  0.0066  1.0531
   54DOPE   H8R 6889   6.475   3.260   3.391 -1.2328  1.3626  0.2551
   54DOPE   H8S 6890   6.486   3.106   3.310  0.0940  0.4227  0.5226
   54DOPE   C29 6891   6.335   3.116   3.468 -0.7124  0.5776  0.9842
   54DOPE   H9R 6892   6.336   3.007   3.478  1.5494  0.4972  0.3616
   54DOPE  C210 6893   6.273   3.181   3.569  0.8083 -0.3096  0.0503
   54DOPE  H10R 6894   6.221   3.123   3.647  1.0026 -1.1016 -0.4002
   54DOPE  C211 6895   6.265   3.324   3.587 -0.0578  0.0348  0.1035
   54DOPE  H11R 6896   6.168   3.349   3.634 -0.1666  1.7105 -0.9285
   54DOPE  H11S 6897   6.269   3.380   3.490 -0.7806  0.1627  0.1446
   54DOPE  C212 6898   6.378   3.381   3.674 -0.5020 -0.1641 -0.6546
   54DOPE  H12R 6899   6.476   3.355   3.631  1.1751  2.2112  1.4107
   54DOPE  H12S 6900   6.375   3.318   3.765 -1.5847 -1.7428 -1.7279
   54DOPE  C213 6901   6.374   3.534   3.688 -0.1698 -0.8368  0.4806
   54DOPE  H13R 6902   6.338   3.578   3.592 -1.5474 -0.2501  1.2381
   54DOPE  H13S 6903   6.481   3.553   3.714 -0.4351  0.8605  0.4757
   54DOPE  C214 6904   6.282   3.594   3.795 -0.0999  0.3005 -0.1678
   54DOPE  H14R 6905   6.294   3.535   3.889 -1.8423  0.0037 -0.1126
   54DOPE  H14S 6906   6.178   3.584   3.759 -0.8723  1.2113  1.6905
   54DOPE  C215 6907   6.311   3.738   3.825  0.1360 -0.4266 -0.4825
   54DOPE  H15R 6908   6.325   3.799   3.732  1.7568  1.5952  0.9787
   54DOPE  H15S 6909   6.404   3.758   3.882 -0.1964  1.1556 -0.4264
   54DOPE  C216 6910   6.199   3.819   3.905  0.0870  0.0993  0.0670
   54DOPE  H16R 6911   6.180   3.748   3.988  0.0333  1.0977  0.9187
   54DOPE  H16S 6912   6.106   3.827   3.843  0.4279  2.5609 -0.2079
   54DOPE  C217 6913   6.246   3.948   3.977 -0.0487 -0.3428  0.5018
   54DOPE  H17R 6914   6.228   4.020   3.896  3.6399 -2.2246 -2.2926
   54DOPE  H17S 6915   6.353   3.948   4.008 -0.6887  1.7649  3.1034
   54DOPE  C218 6916   6.158   3.988   4.095  0.8296 -0.2601  0.4180
   54DOPE  H18R 6917   6.184   4.086   4.140 -2.6138  1.6261 -1.3376
   54DOPE  H18S 6918   6.136   3.901   4.161  1.0087 -2.1051 -1.8347
   54DOPE  H18T 6919   6.056   4.004   4.055  0.4202 -1.3267  0.9906
   54DOPE   C33 6920   7.022   3.481   3.158 -0.2947 -0.2264  0.0746
   54DOPE   H3X 6921   7.047   3.376   3.133  1.0068 -0.4078  1.8844
   54DOPE   H3Y 6922   6.926   3.504   3.107 -1.0376 -0.6986  1.2172
   54DOPE   C34 6923   7.002   3.499   3.307 -0.5372  0.3213 -0.2006
   54DOPE   H4X 6924   7.091   3.486   3.371 -0.0084  1.5124 -0.6729
   54DOPE   H4Y 6925   6.987   3.608   3.323  0.8877  0.4554  0.2829
   54DOPE   C35 6926   6.890   3.412   3.374  1.2107  0.2484  0.7368
   54DOPE   H5X 6927   6.911   3.309   3.338 -0.3015 -0.1530  0.9578
   54DOPE   H5Y 6928   6.790   3.436   3.333  0.8445 -1.0197  0.8412
   54DOPE   C36 6929   6.893   3.423   3.528  0.6515  0.4055 -0.1912
   54DOPE   H6X 6930   6.857   3.524   3.555 -0.7617  0.5542 -2.4321
   54DOPE   H6Y 6931   7.002   3.414   3.550  0.6559  1.2678  0.1852
   54DOPE   C37 6932   6.813   3.318   3.614 -0.2520  0.2905 -0.0941
   54DOPE   H7X 6933   6.706   3.344   3.606 -0.6076 -0.5381  1.4804
   54DOPE   H7Y 6934   6.826   3.220   3.563 -2.3405  0.3625 -0.8485
   54DOPE   C38 6935   6.872   3.323   3.755  0.2383  1.1675 -1.6113
   54DOPE   H8X 6936   6.859   3.427   3.792  0.7058  0.2156  1.5280
   54DOPE   H8Y 6937   6.979   3.293   3.756  0.2653  1.0977  1.0688
   54DOPE   C39 6938   6.787   3.246   3.853 -0.4122 -0.3928  0.9182
   54DOPE   H9X 6939   6.691   3.294   3.878 -0.0813  0.7403  0.1004
   54DOPE  C310 6940   6.830   3.144   3.922  0.4278 -0.0931 -0.1202
   54DOPE  H10X 6941   6.763   3.102   3.999  0.0333  0.1143 -0.3464
   54DOPE  C311 6942   6.967   3.080   3.924 -0.6915  0.0924 -0.3926
   54DOPE  H11X 6943   6.949   2.988   3.864 -2.5923  0.5183 -0.5235
   54DOPE  H11Y 6944   7.049   3.134   3.872 -1.0412  2.7721  1.6291
   54DOPE  C312 6945   7.014   3.028   4.062 -0.7375 -1.0195 -0.1419
   54DOPE  H12X 6946   7.094   2.953   4.047 -0.8702 -1.2641  0.3367
   54DOPE  H12Y 6947   6.935   2.973   4.118  0.1964 -2.0448  0.2031
   54DOPE  C313 6948   7.061   3.149   4.157 -0.2984  0.5074  0.0496
   54DOPE  H13X 6949   7.137   3.220   4.119  1.9490 -1.7911 -0.0383
   54DOPE  H13Y 6950   6.973   3.208   4.188 -2.3020 -1.6807 -1.1386
   54DOPE  C314 6951   7.122   3.084   4.279 -0.5089 -0.0134  0.1143
   54DOPE  H14X 6952   7.212   3.027   4.246  0.5114  0.8807  1.2758
   54DOPE  H14Y 6953   7.047   3.019   4.328 -0.5924 -0.4332 -0.5609
   54DOPE  C315 6954   7.174   3.179   4.392  0.3197 -0.4238  0.4876
   54DOPE  H15X 6955   7.097   3.254   4.422  0.4150  0.9897 -2.4959
   54DOPE  H15Y 6956   7.255   3.245   4.355 -0.1188 -1.0170 -1.6963
   54DOPE  C316 6957   7.208   3.114   4.523 -0.1363 -0.0437 -0.4454
   54DOPE  H16X 6958   7.303   3.060   4.500  1.5381  2.3489  0.4876
   54DOPE  H16Y 6959   7.129   3.040   4.549  0.8738 -0.5931  1.1890
   54DOPE  C317 6960   7.228   3.212   4.648 -0.5723 -0.3788  0.1983
   54DOPE  H17X 6961   7.319   3.273   4.627  0.2129 -1.7942 -0.6902
   54DOPE  H17Y 6962   7.139   3.278   4.662  0.4804  0.9203  1.0443
   54DOPE  C318 6963   7.255   3.145   4.786  0.3934  0.6049  0.0048
   54DOPE  H18X 6964   7.286   3.212   4.868  2.3948 -2.2633  1.7893
   54DOPE  H18Y 6965   7.181   3.072   4.826  0.9840 -0.1756 -0.2785
   54DOPE  H18Z 6966   7.345   3.082   4.769 -0.9203 -0.9302 -1.7642
   55DOPE     N 6967   0.921   6.038   2.472  0.6941  0.1184  0.1323
   55DOPE   HN1 6968   0.859   6.120   2.467 -0.5989 -0.7093  1.6616
   55DOPE   HN2 6969   1.016   6.072   2.498  0.8609 -0.4901  0.3551
   55DOPE   HN3 6970   0.919   5.995   2.377 -0.0813  1.2338 -0.3689
   55DOPE   C12 6971   0.874   5.951   2.581  0.2974 -0.0990  0.0494
   55DOPE  H12A 6972   0.858   5.849   2.541 -0.1271  0.2437 -0.6860
   55DOPE  H12B 6973   0.770   5.977   2.612  0.3950 -0.6020  0.8309
   55DOPE   C11 6974   0.964   5.952   2.706  0.1202  0.2308  0.8947
   55DOPE  H11A 6975   0.934   5.861   2.762 -0.4358 -1.6742 -2.2270
   55DOPE  H11B 6976   0.958   6.053   2.751  1.9362  1.0245 -0.5028
   55DOPE     P 6977   1.205   5.862   2.750 -0.2052 -0.2608 -0.0114
   55DOPE   O13 6978   1.327   5.947   2.741 -0.5886 -0.1553 -0.8572
   55DOPE   O14 6979   1.222   5.731   2.697 -0.3586 -0.4545 -0.1341
   55DOPE   O11 6980   1.144   5.862   2.897  0.4889 -0.0882 -0.2733
   55DOPE   O12 6981   1.098   5.938   2.650 -0.2657 -0.4330  0.0883
   55DOPE    C1 6982   1.172   5.977   2.977  0.1201 -0.4822 -0.0031
   55DOPE    HA 6983   1.166   6.070   2.917  1.6820 -0.0010  0.5234
   55DOPE    HB 6984   1.275   5.979   3.019  0.1635  0.9423 -0.1290
   55DOPE    C2 6985   1.083   5.983   3.108 -0.8811 -0.1866 -0.9611
   55DOPE    HS 6986   1.097   5.888   3.164  0.8653  0.3218 -0.4824
   55DOPE   O21 6987   0.949   6.013   3.068  0.0228  0.1817 -0.3189
   55DOPE   C21 6988   0.854   5.931   3.120  0.3335  0.1152 -0.4252
   55DOPE   O22 6989   0.870   5.862   3.218 -0.3401 -0.0563  0.4539
   55DOPE   C22 6990   0.719   5.932   3.044 -0.1431  0.8370 -0.1915
   55DOPE   H2R 6991   0.728   5.871   2.952 -1.0788 -1.6780  1.3029
   55DOPE   H2S 6992   0.698   6.040   3.025 -1.8567  0.3630 -1.2883
   55DOPE    C3 6993   1.141   6.095   3.197  0.2243  0.2299 -0.1824
   55DOPE    HX 6994   1.148   6.186   3.134 -0.3574 -0.4011 -1.1892
   55DOPE    HY 6995   1.246   6.080   3.232 -0.2063 -1.7255  0.3983
   55DOPE   O31 6996   1.067   6.113   3.321 -0.5496 -0.7804 -0.1989
   55DOPE   C31 6997   1.080   6.022   3.415 -0.6392 -0.8062 -0.0473
   55DOPE   O32 6998   1.153   5.922   3.416  0.7903 -0.3819 -0.0279
   55DOPE   C32 6999   1.004   6.065   3.539 -0.3581  0.7869  0.4506
   55DOPE   H2X 7000   1.081   6.131   3.585  1.6101 -0.2090 -1.2199
   55DOPE   H2Y 7001   0.911   6.120   3.514 -0.1026  0.8174 -0.4739
   55DOPE   C23 7002   0.603   5.883   3.139 -1.1200 -0.0373  0.5038
   55DOPE   H3R 7003   0.647   5.789   3.179  1.0035  0.5708 -0.2263
   55DOPE   H3S 7004   0.502   5.858   3.101 -1.4614 -1.9895  2.5159
   55DOPE   C24 7005   0.575   5.984   3.254 -0.6404  0.2516 -0.9719
   55DOPE   H4R 7006   0.520   6.073   3.219 -1.2403  0.4022  0.3138
   55DOPE   H4S 7007   0.673   6.011   3.300 -0.3481 -2.1748  0.0356
   55DOPE   C25 7008   0.496   5.918   3.374 -0.7086  0.3221 -0.2275
   55DOPE   H5R 7009   0.558   5.846   3.433  0.6346 -0.5105 -2.5247
   55DOPE   H5S 7010   0.417   5.853   3.331  0.6926  0.0232 -2.5264
   55DOPE   C26 7011   0.440   6.017   3.466  0.5786  0.2336 -0.3789
   55DOPE   H6R 7012   0.370   5.971   3.539  1.6069  0.3060  0.6877
   55DOPE   H6S 7013   0.386   6.091   3.402 -1.1087 -1.6007 -1.2008
   55DOPE   C27 7014   0.549   6.090   3.550 -0.5637  0.2848  0.4602
   55DOPE   H7R 7015   0.630   6.129   3.486  0.1079 -0.7594  0.6440
   55DOPE   H7S 7016   0.593   6.018   3.623  1.3398  1.2577  0.3538
   55DOPE   C28 7017   0.492   6.204   3.637 -0.2765  0.3030  0.3947
   55DOPE   H8R 7018   0.435   6.272   3.570 -0.5074  1.9445  2.1476
   55DOPE   H8S 7019   0.569   6.270   3.683 -0.3694  0.5423  0.2109
   55DOPE   C29 7020   0.396   6.141   3.732 -0.0963  0.0563  0.5215
   55DOPE   H9R 7021   0.312   6.089   3.684  1.2378  0.9337 -3.0588
   55DOPE  C210 7022   0.391   6.167   3.867 -0.1956 -0.0307 -0.0912
   55DOPE  H10R 7023   0.316   6.125   3.935  1.8425 -0.8954  1.7410
   55DOPE  C211 7024   0.477   6.266   3.937 -0.3273 -0.1769  0.0719
   55DOPE  H11R 7025   0.441   6.371   3.937  1.2519  0.4042  1.4419
   55DOPE  H11S 7026   0.573   6.286   3.884  0.0221 -1.7817  0.0660
   55DOPE  C212 7027   0.504   6.221   4.084  0.5310  0.1298  0.2974
   55DOPE  H12R 7028   0.605   6.247   4.122  0.0191  1.4760  0.8106
   55DOPE  H12S 7029   0.495   6.111   4.087 -0.5935  0.2116  0.2822
   55DOPE  C213 7030   0.403   6.277   4.191 -0.0698 -0.0121 -0.0494
   55DOPE  H13R 7031   0.295   6.268   4.164  0.0287 -0.3984 -0.3277
   55DOPE  H13S 7032   0.418   6.384   4.216  1.2809 -0.2221  0.1231
   55DOPE  C214 7033   0.426   6.206   4.328 -0.1753 -1.0336  0.5918
   55DOPE  H14R 7034   0.533   6.209   4.357  0.1961 -0.5972 -0.7413
   55DOPE  H14S 7035   0.405   6.099   4.309  1.0551 -1.2949  0.6319
   55DOPE  C215 7036   0.348   6.273   4.447 -0.2819  0.1985  0.2731
   55DOPE  H15R 7037   0.241   6.288   4.421 -0.0628 -0.8355 -1.4320
   55DOPE  H15S 7038   0.402   6.367   4.472  0.6067 -0.6519  1.6657
   55DOPE  C216 7039   0.362   6.193   4.580 -0.1076 -0.4988 -0.6969
   55DOPE  H16R 7040   0.352   6.270   4.660 -0.7690 -1.5468  0.2464
   55DOPE  H16S 7041   0.467   6.156   4.591 -0.5105 -0.9509  3.3897
   55DOPE  C217 7042   0.267   6.079   4.600 -0.1827 -0.1329  0.4510
   55DOPE  H17R 7043   0.279   6.046   4.706 -0.0460 -1.1422  0.1351
   55DOPE  H17S 7044   0.293   5.993   4.534  1.2878  0.7867 -0.1928
   55DOPE  C218 7045   0.124   6.112   4.568  0.9879  0.4288  0.1676
   55DOPE  H18R 7046   0.051   6.036   4.602  1.7962 -0.3061  0.2890
   55DOPE  H18S 7047   0.109   6.130   4.459 -1.3042  1.6959  0.6247
   55DOPE  H18T 7048   0.102   6.208   4.620  2.0937  0.2260  1.0503
   55DOPE   C33 7049   0.975   5.946   3.630  0.4672 -0.1985  0.3832
   55DOPE   H3X 7050   1.074   5.901   3.652  1.1809  0.0357 -2.0048
   55DOPE   H3Y 7051   0.912   5.870   3.580 -0.4347 -1.0207  2.6382
   55DOPE   C34 7052   0.913   5.989   3.760  0.3423 -0.1427 -0.5032
   55DOPE   H4X 7053   0.980   6.062   3.809 -0.6106 -0.3929  1.2618
   55DOPE   H4Y 7054   0.812   6.032   3.741  0.8402  0.7295 -1.2338
   55DOPE   C35 7055   0.904   5.873   3.861 -1.2782  0.5704  0.3520
   55DOPE   H5X 7056   1.000   5.818   3.855 -0.6713  1.7075 -0.6662
   55DOPE   H5Y 7057   0.823   5.801   3.835 -0.8740  0.0715  0.4576
   55DOPE   C36 7058   0.885   5.914   4.008 -0.0788 -0.3771  0.0550
   55DOPE   H6X 7059   0.806   5.992   4.007 -0.4170 -0.6516  2.1623
   55DOPE   H6Y 7060   0.968   5.964   4.061 -1.2437  1.2889  0.3870
   55DOPE   C37 7061   0.842   5.795   4.095  0.0204  0.1908 -0.2058
   55DOPE   H7X 7062   0.742   5.751   4.073  0.2178 -0.7819  0.7870
   55DOPE   H7Y 7063   0.912   5.717   4.059  1.4999  1.8440 -1.0885
   55DOPE   C38 7064   0.859   5.827   4.245  0.0433 -0.0944 -0.0360
   55DOPE   H8X 7065   0.964   5.861   4.257 -0.6153  1.8526  0.5280
   55DOPE   H8Y 7066   0.846   5.725   4.287 -1.5727  0.4675  0.9412
   55DOPE   C39 7067   0.755   5.921   4.306  0.0228  0.5576 -0.4651
   55DOPE   H9X 7068   0.779   6.027   4.296 -2.2741  0.9717 -2.6018
   55DOPE  C310 7069   0.641   5.889   4.371 -0.3075  0.3362  0.1451
   55DOPE  H10X 7070   0.593   5.974   4.421  1.9032 -0.1890  3.4655
   55DOPE  C311 7071   0.590   5.745   4.399  0.0876  0.0860 -0.2582
   55DOPE  H11X 7072   0.509   5.705   4.333  0.9612 -0.0650 -1.2580
   55DOPE  H11Y 7073   0.670   5.672   4.374  0.1890 -0.5727  1.7846
   55DOPE  C312 7074   0.552   5.719   4.549  0.2443 -0.3074  0.3238
   55DOPE  H12X 7075   0.571   5.610   4.558  1.5217 -0.2691 -1.4510
   55DOPE  H12Y 7076   0.445   5.746   4.560  0.1452 -0.5755  0.0391
   55DOPE  C313 7077   0.637   5.801   4.646  0.0229  0.1119 -0.2612
   55DOPE  H13X 7078   0.747   5.788   4.635  0.1590  0.1055  0.9608
   55DOPE  H13Y 7079   0.624   5.910   4.625 -0.1925 -0.2162 -1.9348
   55DOPE  C314 7080   0.610   5.770   4.793 -0.6003 -0.0900 -0.6037
   55DOPE  H14X 7081   0.680   5.826   4.859 -0.0075 -2.0489  0.5354
   55DOPE  H14Y 7082   0.623   5.662   4.816  0.4047  0.4437  1.5815
   55DOPE  C315 7083   0.476   5.830   4.854  0.0750 -0.7536 -0.3021
   55DOPE  H15X 7084   0.408   5.815   4.768  0.1640 -0.1464 -0.4818
   55DOPE  H15Y 7085   0.483   5.940   4.857  2.6488 -0.6576 -3.6034
   55DOPE  C316 7086   0.435   5.774   4.989 -0.2848 -0.2494  0.9117
   55DOPE  H16X 7087   0.503   5.796   5.075  1.7927 -1.7751 -0.2648
   55DOPE  H16Y 7088   0.429   5.664   4.997 -1.2729 -0.0994  2.9277
   55DOPE  C317 7089   0.294   5.817   5.016 -0.6286  0.2480  0.0107
   55DOPE  H17X 7090   0.288   5.785   5.122  1.4013  1.8232  0.6674
   55DOPE  H17Y 7091   0.289   5.927   5.004  1.8928  0.6886  2.2515
   55DOPE  C318 7092   0.195   5.734   4.932 -0.6740  0.0326 -0.0699
   55DOPE  H18X 7093   0.220   5.735   4.823  2.7004  1.1652  0.5888
   55DOPE  H18Y 7094   0.195   5.632   4.975  3.5970 -0.3126 -0.4409
   55DOPE  H18Z 7095   0.090   5.769   4.947 -1.7635 -2.0598 -2.0695
   56DOPE     N 7096   1.074   7.197   2.658 -0.0071  0.4919  0.8831
   56DOPE   HN1 7097   1.074   7.295   2.693  0.9058 -0.0314  2.4073
   56DOPE   HN2 7098   1.121   7.153   2.739  0.0515 -0.3265  0.4146
   56DOPE   HN3 7099   1.137   7.202   2.575 -1.7700  2.5587 -0.4653
   56DOPE   C12 7100   0.932   7.149   2.630  0.3025  0.3317 -0.7092
   56DOPE  H12A 7101   0.921   7.039   2.623 -0.5242  0.4705 -1.8288
   56DOPE  H12B 7102   0.898   7.198   2.537  0.7469 -1.8562 -2.0902
   56DOPE   C11 7103   0.831   7.186   2.748  0.3215  0.1049 -0.1792
   56DOPE  H11A 7104   0.872   7.128   2.834  1.2995  0.2868 -0.5030
   56DOPE  H11B 7105   0.733   7.144   2.719 -0.1801  0.9483  0.2379
   56DOPE     P 7106   0.710   7.371   2.882  0.8771  0.1623  0.1384
   56DOPE   O13 7107   0.586   7.291   2.865  0.1356  0.2281  0.8558
   56DOPE   O14 7108   0.695   7.515   2.849  0.2057  0.2893 -0.1203
   56DOPE   O11 7109   0.763   7.350   3.021  0.2625 -0.2827  0.0922
   56DOPE   O12 7110   0.820   7.326   2.776 -0.7984  0.1257  0.1280
   56DOPE    C1 7111   0.888   7.286   3.051 -0.2350  0.0661  0.1929
   56DOPE    HA 7112   0.963   7.294   2.969 -0.7837  0.5802 -0.2660
   56DOPE    HB 7113   0.868   7.178   3.068  0.3888  0.1995  2.1087
   56DOPE    C2 7114   0.963   7.343   3.175 -0.5500  0.2449 -0.1835
   56DOPE    HS 7115   1.034   7.426   3.157  1.3623 -0.6509  2.6046
   56DOPE   O21 7116   1.032   7.228   3.239 -0.2902  0.0430 -0.0146
   56DOPE   C21 7117   1.158   7.222   3.187  0.4042 -0.3202 -0.2959
   56DOPE   O22 7118   1.200   7.304   3.110  0.2607  0.3082  0.0178
   56DOPE   C22 7119   1.225   7.102   3.244 -0.6203  0.1496  0.1321
   56DOPE   H2R 7120   1.335   7.115   3.250 -0.5362  0.2171 -1.2217
   56DOPE   H2S 7121   1.216   7.024   3.166  2.8943  0.5858 -0.8877
   56DOPE    C3 7122   0.861   7.412   3.278  0.0294 -1.2044  0.1671
   56DOPE    HX 7123   0.795   7.334   3.322  1.6343 -1.3639  2.4947
   56DOPE    HY 7124   0.796   7.473   3.213 -1.9895 -3.4689 -0.0773
   56DOPE   O31 7125   0.927   7.494   3.379  0.2926  0.2212  0.2367
   56DOPE   C31 7126   0.978   7.611   3.346  0.1435  0.1106  0.8197
   56DOPE   O32 7127   0.978   7.666   3.240  0.4593 -0.0731 -0.1683
   56DOPE   C32 7128   1.059   7.669   3.472  0.2885  0.0042  0.2795
   56DOPE   H2X 7129   0.994   7.656   3.561 -0.4505  1.1213 -0.0646
   56DOPE   H2Y 7130   1.126   7.582   3.485 -1.2230 -1.4519 -1.1166
   56DOPE   C23 7131   1.170   7.047   3.384 -0.4225  0.2577 -0.1332
   56DOPE   H3R 7132   1.063   7.027   3.360 -0.4058  1.3766 -1.2562
   56DOPE   H3S 7133   1.175   7.122   3.465 -1.4927 -0.3094  0.4814
   56DOPE   C24 7134   1.253   6.922   3.427 -1.1428 -0.1418 -0.1814
   56DOPE   H4R 7135   1.245   6.901   3.536  1.0973  3.3842  0.8026
   56DOPE   H4S 7136   1.360   6.936   3.405 -0.6924 -0.6162  1.5103
   56DOPE   C25 7137   1.218   6.796   3.343  0.2859 -0.1600 -0.0410
   56DOPE   H5R 7138   1.245   6.808   3.235 -1.1094  1.2811 -0.2610
   56DOPE   H5S 7139   1.110   6.771   3.356  0.3909 -0.1095  0.9783
   56DOPE   C26 7140   1.293   6.669   3.384  0.5527  0.5021 -0.1096
   56DOPE   H6R 7141   1.270   6.668   3.493  2.1011 -0.8139  0.2473
   56DOPE   H6S 7142   1.402   6.690   3.379  0.3390  1.5246 -0.7960
   56DOPE   C27 7143   1.252   6.531   3.321  0.0051  0.3958  0.4024
   56DOPE   H7R 7144   1.282   6.520   3.214 -2.2374 -0.2894 -0.1978
   56DOPE   H7S 7145   1.142   6.518   3.319  0.0671 -0.1284 -0.3931
   56DOPE   C28 7146   1.304   6.403   3.396 -0.0911 -0.0310 -0.7638
   56DOPE   H8R 7147   1.253   6.307   3.373  1.0210 -0.9048  0.2425
   56DOPE   H8S 7148   1.283   6.425   3.503  2.4799 -1.2484  0.0724
   56DOPE   C29 7149   1.451   6.385   3.378 -0.2063 -0.0558 -0.1932
   56DOPE   H9R 7150   1.477   6.331   3.286 -0.1157  0.1704 -0.3018
   56DOPE  C210 7151   1.550   6.420   3.462 -0.1674  0.4273  0.3730
   56DOPE  H10R 7152   1.651   6.395   3.426 -0.4543 -3.2225  1.6744
   56DOPE  C211 7153   1.545   6.485   3.600  0.7461 -0.3314 -0.0930
   56DOPE  H11R 7154   1.469   6.438   3.667  0.5133  0.3418  0.1194
   56DOPE  H11S 7155   1.520   6.593   3.597  1.5424 -0.1685 -2.0679
   56DOPE  C212 7156   1.678   6.484   3.680 -0.2958 -0.2385 -0.3270
   56DOPE  H12R 7157   1.753   6.555   3.639  1.1409 -0.8298  1.1778
   56DOPE  H12S 7158   1.731   6.386   3.678 -0.2777 -0.2381  0.0086
   56DOPE  C213 7159   1.652   6.531   3.830 -0.3951 -0.1607 -0.1960
   56DOPE  H13R 7160   1.608   6.632   3.818  2.1049  1.2203  1.4083
   56DOPE  H13S 7161   1.747   6.552   3.885  0.5513 -0.8579 -1.5092
   56DOPE  C214 7162   1.572   6.442   3.920  0.5563 -0.1992  0.5195
   56DOPE  H14R 7163   1.612   6.339   3.908 -0.6653 -0.4489 -2.1462
   56DOPE  H14S 7164   1.464   6.448   3.898  0.1270  1.8928  2.7814
   56DOPE  C215 7165   1.580   6.485   4.065  0.5019  0.3987 -0.2132
   56DOPE  H15R 7166   1.553   6.591   4.081  0.7912  0.3780  0.4477
   56DOPE  H15S 7167   1.687   6.472   4.094 -0.1192 -1.5618  1.5000
   56DOPE  C216 7168   1.501   6.396   4.163  0.0509  0.4652 -0.9640
   56DOPE  H16R 7169   1.555   6.379   4.259 -0.0736 -1.2133 -1.1473
   56DOPE  H16S 7170   1.490   6.297   4.113 -0.7554  0.4744 -0.8185
   56DOPE  C217 7171   1.364   6.445   4.208 -0.2799 -0.2338 -0.3346
   56DOPE  H17R 7172   1.306   6.451   4.113  0.6547 -1.4061 -1.0047
   56DOPE  H17S 7173   1.363   6.542   4.261 -2.5776 -0.8774  0.9629
   56DOPE  C218 7174   1.278   6.341   4.282  0.6653  0.4175  0.6398
   56DOPE  H18R 7175   1.188   6.391   4.324 -1.5164  1.4703 -4.5284
   56DOPE  H18S 7176   1.333   6.291   4.365  2.0113  2.3240  0.9519
   56DOPE  H18T 7177   1.240   6.266   4.210 -1.4557  1.4710  0.5752
   56DOPE   C33 7178   1.122   7.806   3.472  0.3195  0.4884  0.2537
   56DOPE   H3X 7179   1.041   7.877   3.446  0.7414  0.8154 -0.1867
   56DOPE   H3Y 7180   1.201   7.817   3.395  0.5450  1.9096  0.6579
   56DOPE   C34 7181   1.189   7.851   3.602  0.4411 -0.3236  0.4086
   56DOPE   H4X 7182   1.275   7.784   3.618  0.3693 -0.0539  2.2606
   56DOPE   H4Y 7183   1.233   7.951   3.583  0.4521  0.3849  3.5415
   56DOPE   C35 7184   1.093   7.844   3.726 -0.2800  0.0881  0.7131
   56DOPE   H5X 7185   1.035   7.749   3.733  1.6770 -1.2992 -0.6003
   56DOPE   H5Y 7186   1.017   7.925   3.725 -1.4685 -0.9842  0.8235
   56DOPE   C36 7187   1.182   7.868   3.850 -1.0567  0.6978  0.0405
   56DOPE   H6X 7188   1.239   7.962   3.835 -0.2057 -0.0052 -1.4034
   56DOPE   H6Y 7189   1.266   7.794   3.845 -2.5413 -1.0148 -0.5392
   56DOPE   C37 7190   1.114   7.855   3.982 -0.3438 -0.2049  0.7460
   56DOPE   H7X 7191   1.039   7.938   3.986 -0.5950 -0.4560  4.2209
   56DOPE   H7Y 7192   1.051   7.764   3.985  1.9463 -1.8538  2.8135
   56DOPE   C38 7193   1.197   7.902   4.104 -0.0018  0.3627  0.1922
   56DOPE   H8X 7194   1.123   7.930   4.182  1.1350  1.5020  0.9063
   56DOPE   H8Y 7195   1.249   7.994   4.068 -2.4374  0.8204 -2.4882
   56DOPE   C39 7196   1.293   7.795   4.142 -0.6941  0.2827 -0.5203
   56DOPE   H9X 7197   1.374   7.767   4.074  2.7791  2.3235  2.4340
   56DOPE  C310 7198   1.301   7.736   4.265 -0.0098 -0.6500  0.3207
   56DOPE  H10X 7199   1.374   7.655   4.275 -0.8954 -1.2928  2.0046
   56DOPE  C311 7200   1.219   7.766   4.389  0.6009  0.0367 -0.3160
   56DOPE  H11X 7201   1.123   7.815   4.361  0.9297  0.0103 -1.5513
   56DOPE  H11Y 7202   1.185   7.672   4.437  0.4703  0.4408  0.3880
   56DOPE  C312 7203   1.299   7.856   4.486  0.1573  1.0382 -0.2866
   56DOPE  H12X 7204   1.305   7.959   4.445  0.6682  0.8326 -0.7448
   56DOPE  H12Y 7205   1.402   7.817   4.501 -0.7893 -0.5955  3.0774
   56DOPE  C313 7206   1.208   7.875   4.620 -0.3303 -0.9533  0.8090
   56DOPE  H13X 7207   1.115   7.921   4.581 -0.9254 -2.2954  0.6140
   56DOPE  H13Y 7208   1.190   7.775   4.664 -0.6053 -1.3043 -0.0926
   56DOPE  C314 7209   1.285   7.963   4.724  0.1047  0.4232  0.1161
   56DOPE  H14X 7210   1.238   7.968   4.824  1.0552  0.4749  0.5745
   56DOPE  H14Y 7211   1.304   8.065   4.685  2.6610  0.1100  0.3466
   56DOPE  C315 7212   1.427   7.906   4.754 -0.7272  0.4531 -0.3111
   56DOPE  H15X 7213   1.484   7.892   4.660 -1.3748 -1.2599 -0.4797
   56DOPE  H15Y 7214   1.413   7.808   4.804  0.4038  0.5565  0.2478
   56DOPE  C316 7215   1.499   8.000   4.846  0.4979  0.0198  0.0352
   56DOPE  H16X 7216   1.442   8.019   4.939  2.4331  2.4783  0.8232
   56DOPE  H16Y 7217   1.495   8.098   4.793 -1.1276  0.5286  1.0524
   56DOPE  C317 7218   1.637   7.947   4.873 -0.4281  0.1546  0.3633
   56DOPE  H17X 7219   1.689   7.924   4.778  0.8711 -0.4807  1.1989
   56DOPE  H17Y 7220   1.705   8.022   4.919  1.3545 -0.5665 -0.9749
   56DOPE  C318 7221   1.657   7.825   4.958 -1.2283  0.1390 -1.0402
   56DOPE  H18X 7222   1.607   7.726   4.944 -1.8122 -0.8388  5.0050
   56DOPE  H18Y 7223   1.767   7.806   4.963 -1.3284 -0.1928  0.2865
   56DOPE  H18Z 7224   1.639   7.844   5.066 -1.0503 -1.7714 -0.6242
   57DOPE     N 7225   7.131   1.807   2.204 -0.5230  0.0200  1.0407
   57DOPE   HN1 7226   7.157   1.891   2.260  0.5677 -0.9351  2.0106
   57DOPE   HN2 7227   7.213   1.756   2.166 -1.3326  1.4181 -3.1725
   57DOPE   HN3 7228   7.075   1.842   2.123  0.2621  1.3471  1.0355
   57DOPE   C12 7229   7.061   1.721   2.303 -0.2040 -0.2207 -0.1922
   57DOPE  H12A 7230   7.130   1.695   2.386 -2.6217 -2.0212  1.3662
   57DOPE  H12B 7231   7.035   1.622   2.260 -3.3275 -0.0057  0.9921
   57DOPE   C11 7232   6.933   1.787   2.358  0.3291 -0.0358  0.6044
   57DOPE  H11A 7233   6.968   1.878   2.412  0.0488  1.3260 -1.3880
   57DOPE  H11B 7234   6.891   1.705   2.420  2.5014 -2.3295 -0.7299
   57DOPE     P 7235   6.824   1.971   2.202  0.1098  0.6506 -0.2631
   57DOPE   O13 7236   6.759   1.958   2.071 -0.1066  0.4170 -0.3284
   57DOPE   O14 7237   6.958   2.030   2.197 -0.6408 -0.0431 -0.2601
   57DOPE   O11 7238   6.731   2.045   2.304 -0.2470  0.8786 -0.3007
   57DOPE   O12 7239   6.839   1.824   2.258 -0.2640  0.8653  0.1868
   57DOPE    C1 7240   6.697   1.999   2.435  0.3113  0.0110  0.4509
   57DOPE    HA 7241   6.672   2.082   2.504 -1.2321  0.2782 -0.3910
   57DOPE    HB 7242   6.783   1.945   2.481  0.4660  0.3953  0.6131
   57DOPE    C2 7243   6.574   1.900   2.436 -1.2070 -0.1687 -0.6108
   57DOPE    HS 7244   6.572   1.847   2.339 -0.5860 -0.9837 -0.1907
   57DOPE   O21 7245   6.447   1.982   2.456 -0.3959 -0.0217 -0.0980
   57DOPE   C21 7246   6.332   1.922   2.450  0.5564  0.6489 -0.1982
   57DOPE   O22 7247   6.316   1.810   2.400 -0.3376 -0.4535 -0.0411
   57DOPE   C22 7248   6.227   2.019   2.511  0.1929 -0.1312 -0.1736
   57DOPE   H2R 7249   6.201   2.090   2.430  0.8806 -1.2707 -1.4185
   57DOPE   H2S 7250   6.270   2.091   2.584  0.1529 -1.6442  1.4261
   57DOPE    C3 7251   6.590   1.783   2.542  0.6317 -0.0835  0.0198
   57DOPE    HX 7252   6.679   1.729   2.505  0.4792  2.0624 -4.0954
   57DOPE    HY 7253   6.501   1.717   2.532  1.0763 -0.8701  1.0891
   57DOPE   O31 7254   6.602   1.842   2.679  0.2874  0.3877 -0.0442
   57DOPE   C31 7255   6.715   1.821   2.747  0.2217 -0.1224  0.3375
   57DOPE   O32 7256   6.818   1.778   2.704  0.4220  0.3326  0.5993
   57DOPE   C32 7257   6.695   1.868   2.889  0.0767 -0.3594  0.1141
   57DOPE   H2X 7258   6.681   1.776   2.949  1.4671 -0.0612  0.9586
   57DOPE   H2Y 7259   6.795   1.912   2.910  0.3900 -1.6710  1.5136
   57DOPE   C23 7260   6.099   1.952   2.563 -0.0876 -0.0756 -0.4164
   57DOPE   H3R 7261   6.040   1.910   2.479 -0.6176 -0.2306  0.0317
   57DOPE   H3S 7262   6.046   2.033   2.617 -0.4805 -0.5649 -0.0569
   57DOPE   C24 7263   6.114   1.843   2.670 -0.3093 -0.2477  0.2191
   57DOPE   H4R 7264   6.156   1.753   2.621 -1.4080 -1.9672  2.2603
   57DOPE   H4S 7265   6.014   1.831   2.715 -0.6338 -0.1120 -0.4536
   57DOPE   C25 7266   6.211   1.889   2.790  0.1128  0.4487 -0.3542
   57DOPE   H5R 7267   6.311   1.918   2.750 -0.5356  2.0355 -0.9384
   57DOPE   H5S 7268   6.227   1.794   2.846  1.2249  0.5167 -0.5304
   57DOPE   C26 7269   6.163   1.992   2.890 -0.2181 -0.4872  0.6816
   57DOPE   H6R 7270   6.114   2.067   2.824  0.6934 -0.1454  0.3747
   57DOPE   H6S 7271   6.246   2.042   2.944  0.0434  2.2090 -1.9929
   57DOPE   C27 7272   6.057   1.931   2.983  0.3298 -0.1232 -0.8300
   57DOPE   H7R 7273   6.088   1.838   3.036  0.3531  0.2779 -0.1186
   57DOPE   H7S 7274   5.970   1.921   2.915  0.0950 -1.9514 -0.3238
   57DOPE   C28 7275   6.016   2.030   3.093  0.3438 -0.1570 -0.3655
   57DOPE   H8R 7276   5.951   1.981   3.169  0.6785 -0.6356 -0.3861
   57DOPE   H8S 7277   5.964   2.117   3.046  0.6575 -0.2611 -0.9043
   57DOPE   C29 7278   6.130   2.093   3.174  0.2483 -0.1319 -0.4484
   57DOPE   H9R 7279   6.181   2.178   3.126  0.1558 -0.1909 -0.6483
   57DOPE  C210 7280   6.184   2.054   3.289  0.1923 -0.7078 -0.6100
   57DOPE  H10R 7281   6.275   2.102   3.327  0.5906 -1.1903 -0.9392
   57DOPE  C211 7282   6.154   1.934   3.369  0.5034  0.2458 -0.6176
   57DOPE  H11R 7283   6.218   1.853   3.329  1.5232  1.1423 -0.8498
   57DOPE  H11S 7284   6.049   1.908   3.344  0.3169  0.6390 -0.2620
   57DOPE  C212 7285   6.167   1.944   3.522 -0.2123  0.0699 -0.7191
   57DOPE  H12R 7286   6.262   1.996   3.548 -1.4968  0.9903  2.6196
   57DOPE  H12S 7287   6.164   1.846   3.574  2.6089  1.6762  3.0030
   57DOPE  C213 7288   6.053   2.029   3.572  0.1581 -0.0505  1.4190
   57DOPE  H13R 7289   5.966   1.970   3.536  1.4249  0.0310 -2.1400
   57DOPE  H13S 7290   6.050   2.128   3.522 -0.8911  0.7047  2.8736
   57DOPE  C214 7291   6.053   2.043   3.725  0.0997 -0.1078  0.1830
   57DOPE  H14R 7292   6.066   1.944   3.774  1.0015  0.5164  1.2384
   57DOPE  H14S 7293   5.950   2.084   3.739  0.1779  1.0059 -2.0254
   57DOPE  C215 7294   6.160   2.146   3.767 -0.0759  0.6329  0.3281
   57DOPE  H15R 7295   6.160   2.236   3.702  1.9781  0.2825 -0.2321
   57DOPE  H15S 7296   6.262   2.102   3.761 -0.1898 -0.1426  2.8487
   57DOPE  C216 7297   6.144   2.186   3.912 -0.0589  0.3610  0.3407
   57DOPE  H16R 7298   6.134   2.103   3.985 -2.4799  0.2695 -0.0168
   57DOPE  H16S 7299   6.045   2.237   3.917  0.1479  0.6659  1.9044
   57DOPE  C217 7300   6.255   2.291   3.941 -0.9699 -0.1335  0.6532
   57DOPE  H17R 7301   6.239   2.381   3.879  1.1044 -0.5355 -0.5846
   57DOPE  H17S 7302   6.351   2.239   3.920 -0.8868 -0.5772  2.0285
   57DOPE  C218 7303   6.249   2.332   4.091 -0.7674  0.4989 -0.0480
   57DOPE  H18R 7304   6.156   2.288   4.133 -1.7046 -0.0795 -2.5602
   57DOPE  H18S 7305   6.217   2.439   4.092  2.0174  1.4521 -1.5073
   57DOPE  H18T 7306   6.342   2.316   4.150  1.0220  0.9219 -2.6036
   57DOPE   C33 7307   6.594   1.977   2.930  0.5793 -0.2913 -0.4083
   57DOPE   H3X 7308   6.498   1.925   2.956  0.2570 -0.3931 -1.7499
   57DOPE   H3Y 7309   6.567   2.048   2.850  0.7544 -1.2257 -1.3181
   57DOPE   C34 7310   6.634   2.052   3.059  0.6391 -0.0572 -0.2938
   57DOPE   H4X 7311   6.743   2.073   3.061  0.3777  1.3761  0.3124
   57DOPE   H4Y 7312   6.584   2.150   3.075 -0.7757 -0.3962 -2.2472
   57DOPE   C35 7313   6.616   1.960   3.180  0.8841  0.4543 -0.2042
   57DOPE   H5X 7314   6.626   1.852   3.156 -0.7801  0.4585 -1.0870
   57DOPE   H5Y 7315   6.509   1.971   3.208  0.7435  1.5501 -1.1288
   57DOPE   C36 7316   6.717   1.997   3.283 -0.0530  0.0870  0.1586
   57DOPE   H6X 7317   6.711   2.107   3.297  1.5696  0.1606  0.4136
   57DOPE   H6Y 7318   6.821   1.971   3.254  0.0061 -1.8491  1.8494
   57DOPE   C37 7319   6.688   1.945   3.429 -0.3629  0.2043 -0.2292
   57DOPE   H7X 7320   6.772   1.978   3.493 -0.3554 -0.3098  0.0376
   57DOPE   H7Y 7321   6.589   1.982   3.462 -0.4468 -1.1754  1.1715
   57DOPE   C38 7322   6.696   1.790   3.452 -0.3051 -0.6579 -0.0573
   57DOPE   H8X 7323   6.786   1.751   3.399  0.4419  0.6676  0.1943
   57DOPE   H8Y 7324   6.609   1.752   3.393 -0.6838 -1.4953  0.9997
   57DOPE   C39 7325   6.701   1.756   3.601 -0.1631  0.5669  0.8535
   57DOPE   H9X 7326   6.769   1.672   3.621 -0.8346 -0.1420  0.1878
   57DOPE  C310 7327   6.636   1.797   3.709  0.6308 -1.2070 -0.0565
   57DOPE  H10X 7328   6.661   1.756   3.808  0.3610  0.6631  0.8316
   57DOPE  C311 7329   6.522   1.902   3.719  0.7567 -0.4588 -0.6401
   57DOPE  H11X 7330   6.476   1.937   3.623  1.4868  0.7122 -0.5714
   57DOPE  H11Y 7331   6.436   1.873   3.783 -0.7120  2.5532 -1.0734
   57DOPE  C312 7332   6.566   2.023   3.797 -0.8123 -0.3061  0.0705
   57DOPE  H12X 7333   6.490   2.103   3.783 -1.7193 -1.2943 -0.9336
   57DOPE  H12Y 7334   6.665   2.053   3.756 -0.9237  0.0542  0.0583
   57DOPE  C313 7335   6.565   2.001   3.946  0.5928  0.0596  0.5238
   57DOPE  H13X 7336   6.461   1.980   3.979  0.0670  1.6972 -0.0256
   57DOPE  H13Y 7337   6.633   1.916   3.969 -0.8553 -1.1771  0.4091
   57DOPE  C314 7338   6.607   2.119   4.034 -0.5352  0.5514  0.6203
   57DOPE  H14X 7339   6.539   2.206   4.027  1.8016  2.4555 -0.0977
   57DOPE  H14Y 7340   6.698   2.155   3.980 -2.0055  0.5528 -2.0484
   57DOPE  C315 7341   6.627   2.080   4.177  0.0483  0.7034 -0.8482
   57DOPE  H15X 7342   6.533   2.046   4.224 -0.1502 -2.2442 -3.0527
   57DOPE  H15Y 7343   6.653   2.171   4.236  1.7954 -1.4963  2.0059
   57DOPE  C316 7344   6.721   1.956   4.199 -0.5306  0.1798 -0.3280
   57DOPE  H16X 7345   6.808   1.945   4.131  1.0296 -2.0559  1.8652
   57DOPE  H16Y 7346   6.651   1.870   4.185 -3.6346  2.2666  1.0944
   57DOPE  C317 7347   6.783   1.953   4.338 -0.4827 -0.3011 -0.9029
   57DOPE  H17X 7348   6.697   1.947   4.408 -1.3270 -1.0162 -1.9649
   57DOPE  H17Y 7349   6.850   1.865   4.345  0.7995  0.7713  2.1569
   57DOPE  C318 7350   6.868   2.082   4.378 -0.3335  0.0454 -0.3663
   57DOPE  H18X 7351   6.926   2.059   4.469  0.2109  1.3825 -0.3641
   57DOPE  H18Y 7352   6.935   2.112   4.294 -0.1367 -1.6736 -0.8583
   57DOPE  H18Z 7353   6.794   2.161   4.401 -1.4716 -0.7529 -1.1316
   58DOPE     N 7354   5.419   6.108   1.945  0.3109 -0.4098 -0.3720
   58DOPE   HN1 7355   5.423   6.083   1.844 -0.5902  1.9676 -1.0663
   58DOPE   HN2 7356   5.515   6.116   1.983 -0.3182 -0.6672  1.4172
   58DOPE   HN3 7357   5.372   6.025   1.988  2.0505 -0.3125  1.9387
   58DOPE   C12 7358   5.328   6.230   1.983  0.0098  0.3091 -0.5903
   58DOPE  H12A 7359   5.384   6.313   1.935  2.3274 -0.3746  0.7627
   58DOPE  H12B 7360   5.334   6.253   2.092 -0.1175 -0.2106 -0.4700
   58DOPE   C11 7361   5.183   6.208   1.926 -0.4545  0.3915  0.0762
   58DOPE  H11A 7362   5.149   6.120   1.985  2.7070 -0.9349  0.1059
   58DOPE  H11B 7363   5.191   6.182   1.819 -1.1796  1.1509 -0.1708
   58DOPE     P 7364   5.017   6.362   2.067 -0.4031  0.2504 -0.2307
   58DOPE   O13 7365   4.903   6.272   2.063  0.7861  0.2162 -0.0140
   58DOPE   O14 7366   4.990   6.510   2.076  0.6174  0.0590  0.6288
   58DOPE   O11 7367   5.104   6.317   2.186 -0.1394  0.0252 -0.4047
   58DOPE   O12 7368   5.108   6.332   1.943  0.3971  0.2425  0.1180
   58DOPE    C1 7369   5.133   6.405   2.297  0.7212 -0.4209 -0.0304
   58DOPE    HA 7370   5.069   6.495   2.303 -0.3773 -1.0675 -1.4053
   58DOPE    HB 7371   5.235   6.444   2.278 -0.3793  2.3480 -0.6699
   58DOPE    C2 7372   5.145   6.335   2.439 -0.3607 -0.5801 -0.4225
   58DOPE    HS 7373   5.219   6.398   2.492 -0.5446 -0.1103 -0.7199
   58DOPE   O21 7374   5.177   6.198   2.428  0.1634 -0.1000 -0.2699
   58DOPE   C21 7375   5.305   6.168   2.442 -0.3053 -0.1191 -0.9640
   58DOPE   O22 7376   5.397   6.247   2.461  0.5047 -0.0030  0.8762
   58DOPE   C22 7377   5.322   6.018   2.436 -0.6870 -0.0708  0.3676
   58DOPE   H2R 7378   5.339   5.998   2.328 -0.1279  3.2091 -0.2594
   58DOPE   H2S 7379   5.231   5.961   2.464 -0.8168 -0.9976 -1.7534
   58DOPE    C3 7380   5.014   6.352   2.516  0.5013 -0.1846 -0.1766
   58DOPE    HX 7381   4.940   6.290   2.461  1.3235  0.1672 -1.7676
   58DOPE    HY 7382   4.983   6.459   2.508  1.1556 -0.0388 -0.9870
   58DOPE   O31 7383   5.030   6.301   2.654 -0.0974  0.2769  0.1009
   58DOPE   C31 7384   4.933   6.346   2.733 -0.2670 -0.0381  0.3247
   58DOPE   O32 7385   4.842   6.429   2.701  0.7205  0.3308 -0.7508
   58DOPE   C32 7386   4.938   6.284   2.876 -0.2994 -0.5782  0.5979
   58DOPE   H2X 7387   4.899   6.359   2.948  1.4031  1.1211 -0.1468
   58DOPE   H2Y 7388   4.870   6.196   2.873  0.6690 -1.3339  0.1928
   58DOPE   C23 7389   5.450   5.964   2.507  0.7374  0.0973  0.3873
   58DOPE   H3R 7390   5.537   6.028   2.480  1.4573 -0.5717  1.0704
   58DOPE   H3S 7391   5.475   5.865   2.464  1.1372  0.8623 -1.2487
   58DOPE   C24 7392   5.431   5.933   2.664 -0.7448  0.5356  0.9351
   58DOPE   H4R 7393   5.360   5.848   2.665 -0.7075  0.2542 -3.1441
   58DOPE   H4S 7394   5.378   6.019   2.711 -1.3745  1.3694 -1.1649
   58DOPE   C25 7395   5.572   5.888   2.717  0.1558 -0.5531 -0.0576
   58DOPE   H5R 7396   5.649   5.964   2.692  0.6350 -1.4391 -1.4120
   58DOPE   H5S 7397   5.595   5.795   2.660  1.5382 -1.4423  1.8320
   58DOPE   C26 7398   5.577   5.855   2.863 -0.2001 -0.5530 -0.1292
   58DOPE   H6R 7399   5.564   5.945   2.926 -2.4515 -1.2175  0.4418
   58DOPE   H6S 7400   5.678   5.817   2.889 -0.1495 -1.9036 -2.0487
   58DOPE   C27 7401   5.479   5.752   2.920 -0.0297  0.2277  0.1947
   58DOPE   H7R 7402   5.502   5.655   2.871  1.4598  0.7204 -0.1606
   58DOPE   H7S 7403   5.376   5.783   2.893 -0.1652 -0.8143 -0.5722
   58DOPE   C28 7404   5.487   5.724   3.076 -0.4130 -0.0905 -0.7132
   58DOPE   H8R 7405   5.458   5.815   3.132 -1.0259 -0.8903  0.3021
   58DOPE   H8S 7406   5.596   5.707   3.085 -0.1604  0.7256 -1.9046
   58DOPE   C29 7407   5.404   5.604   3.123  0.0608  0.2696 -0.4404
   58DOPE   H9R 7408   5.309   5.595   3.069 -0.9965  0.3773  1.3297
   58DOPE  C210 7409   5.434   5.510   3.216 -0.3179 -0.1557  0.4408
   58DOPE  H10R 7410   5.369   5.424   3.240  0.0013 -0.7002 -0.6007
   58DOPE  C211 7411   5.560   5.515   3.302  0.1635 -0.5322 -0.0586
   58DOPE  H11R 7412   5.640   5.582   3.261  1.1608 -2.3344 -1.2063
   58DOPE  H11S 7413   5.616   5.420   3.318 -2.0752 -1.9031  0.0766
   58DOPE  C212 7414   5.531   5.562   3.443 -0.0853 -0.1043  0.0952
   58DOPE  H12R 7415   5.464   5.486   3.489 -1.3757 -0.9841 -3.0067
   58DOPE  H12S 7416   5.470   5.655   3.439  0.4587  0.2131 -2.4622
   58DOPE  C213 7417   5.658   5.594   3.529 -0.0918  0.6157 -0.2419
   58DOPE  H13R 7418   5.720   5.665   3.469  2.2847 -0.8295  0.3626
   58DOPE  H13S 7419   5.722   5.505   3.549  0.4461  1.4043  1.7959
   58DOPE  C214 7420   5.618   5.666   3.667 -0.2603  0.4459 -0.1712
   58DOPE  H14R 7421   5.563   5.584   3.717  0.1335 -0.6848 -1.5289
   58DOPE  H14S 7422   5.553   5.753   3.644  0.6258  1.2215  0.1886
   58DOPE  C215 7423   5.741   5.715   3.755  0.6999 -0.2890 -0.5860
   58DOPE  H15R 7424   5.786   5.805   3.707 -0.0904  0.1546 -0.5293
   58DOPE  H15S 7425   5.818   5.636   3.759 -0.5049 -1.4704  1.7247
   58DOPE  C216 7426   5.694   5.743   3.896 -0.7132  0.2100 -0.5177
   58DOPE  H16R 7427   5.628   5.667   3.943 -0.6519  0.4214 -0.0874
   58DOPE  H16S 7428   5.615   5.821   3.892 -1.3685 -0.4388 -0.4012
   58DOPE  C217 7429   5.806   5.756   3.993 -0.4336  0.2900  0.5081
   58DOPE  H17R 7430   5.881   5.828   3.954  0.7360 -0.7490  0.7908
   58DOPE  H17S 7431   5.859   5.658   3.992  2.2363  1.5883 -2.4003
   58DOPE  C218 7432   5.776   5.790   4.137 -0.1508  0.6319 -0.2990
   58DOPE  H18R 7433   5.858   5.849   4.183  0.4685 -0.9233  0.6763
   58DOPE  H18S 7434   5.773   5.696   4.195  1.4216  0.0796 -1.0679
   58DOPE  H18T 7435   5.682   5.848   4.152 -0.6004 -0.5043  1.5704
   58DOPE   C33 7436   5.077   6.233   2.922  0.7877 -0.4943 -0.4579
   58DOPE   H3X 7437   5.145   6.320   2.911  1.0993 -0.6186  0.4010
   58DOPE   H3Y 7438   5.125   6.162   2.852  0.9243  0.3480 -1.2305
   58DOPE   C34 7439   5.073   6.170   3.060  0.2315  0.3324 -0.5796
   58DOPE   H4X 7440   5.165   6.194   3.118  0.1571  0.5559 -0.5490
   58DOPE   H4Y 7441   4.997   6.223   3.122  1.9744 -0.4312  2.4254
   58DOPE   C35 7442   5.049   6.017   3.062 -0.2361  0.4394 -0.5141
   58DOPE   H5X 7443   5.120   5.959   2.999  0.8687  1.1693  0.0242
   58DOPE   H5Y 7444   4.946   6.002   3.024 -0.6163 -0.0491  0.6466
   58DOPE   C36 7445   5.062   5.948   3.203 -0.2158 -0.3897  0.6362
   58DOPE   H6X 7446   4.989   5.987   3.276  1.0895  3.3200  0.1912
   58DOPE   H6Y 7447   5.166   5.974   3.234  0.4418  2.5305 -3.1924
   58DOPE   C37 7448   5.039   5.805   3.198  0.3738  0.7980 -0.5780
   58DOPE   H7X 7449   4.932   5.791   3.172  0.4470  2.9067 -2.3315
   58DOPE   H7Y 7450   5.105   5.760   3.121  0.1038 -1.7535  0.5869
   58DOPE   C38 7451   5.068   5.750   3.339  0.0191 -0.2060 -0.0601
   58DOPE   H8X 7452   5.039   5.822   3.419 -0.9015 -0.6882  0.0491
   58DOPE   H8Y 7453   5.179   5.750   3.351 -0.1715  0.0495  2.0848
   58DOPE   C39 7454   5.015   5.612   3.349  0.3619  0.0872 -0.1646
   58DOPE   H9X 7455   4.933   5.608   3.276  0.5480  2.5581 -0.6152
   58DOPE  C310 7456   5.042   5.505   3.425 -0.6741 -0.7713  0.3165
   58DOPE  H10X 7457   4.989   5.409   3.409 -1.2896 -0.2533 -0.9177
   58DOPE  C311 7458   5.157   5.493   3.528 -0.9246 -0.2257 -0.2103
   58DOPE  H11X 7459   5.231   5.415   3.499 -0.6773 -0.1804  0.2936
   58DOPE  H11Y 7460   5.217   5.586   3.531  1.3639 -1.5963 -0.6550
   58DOPE  C312 7461   5.114   5.450   3.669  0.2654  0.3755  0.2951
   58DOPE  H12X 7462   5.109   5.340   3.661  3.0510  0.1876  0.1310
   58DOPE  H12Y 7463   5.017   5.503   3.685 -0.4080 -0.7278 -0.0338
   58DOPE  C313 7464   5.220   5.501   3.773  0.3058  1.1128 -0.5222
   58DOPE  H13X 7465   5.321   5.454   3.773 -0.5800 -1.1064  2.9240
   58DOPE  H13Y 7466   5.224   5.611   3.756  0.4773  1.7618  3.0163
   58DOPE  C314 7467   5.164   5.485   3.917  0.0787 -0.4759  0.6409
   58DOPE  H14X 7468   5.130   5.382   3.940  0.2887 -0.6632  0.1403
   58DOPE  H14Y 7469   5.076   5.552   3.926 -0.3998 -0.6275 -1.9813
   58DOPE  C315 7470   5.265   5.542   4.016  0.7696  0.7236  0.3426
   58DOPE  H15X 7471   5.367   5.503   3.994  0.4962 -0.7240  1.5171
   58DOPE  H15Y 7472   5.252   5.505   4.120 -0.4747 -0.3348 -0.1700
   58DOPE  C316 7473   5.265   5.696   4.025  0.5704  0.1728 -0.6194
   58DOPE  H16X 7474   5.166   5.728   4.065  1.7431 -0.5679  3.2632
   58DOPE  H16Y 7475   5.282   5.737   3.923  0.6848  1.1212 -0.2254
   58DOPE  C317 7476   5.367   5.753   4.123 -0.2301  0.4195  0.2056
   58DOPE  H17X 7477   5.323   5.738   4.224  0.6658  0.5743  0.6336
   58DOPE  H17Y 7478   5.463   5.697   4.115 -0.4740 -0.4684  2.7336
   58DOPE  C318 7479   5.403   5.903   4.097 -0.1847 -0.9163 -0.2087
   58DOPE  H18X 7480   5.312   5.967   4.096  1.0357  0.9137  1.2910
   58DOPE  H18Y 7481   5.469   5.957   4.168  1.8369 -2.5697 -0.7096
   58DOPE  H18Z 7482   5.456   5.909   4.000 -0.7840  1.5410 -0.4357
   59DOPE     N 7483   0.322   0.682   2.332 -0.0537  0.2004  0.1702
   59DOPE   HN1 7484   0.392   0.670   2.407 -0.7489 -0.7358  0.6836
   59DOPE   HN2 7485   0.349   0.611   2.261  0.6222  0.4295  0.1936
   59DOPE   HN3 7486   0.328   0.777   2.291  1.7497 -0.4816 -1.3074
   59DOPE   C12 7487   0.194   0.653   2.394  0.8469  0.3398 -0.1500
   59DOPE  H12A 7488   0.195   0.544   2.417 -1.0459 -0.6305 -3.7424
   59DOPE  H12B 7489   0.115   0.671   2.318  1.5237 -0.3542 -1.0473
   59DOPE   C11 7490   0.187   0.748   2.516 -0.1083 -0.4795  0.2669
   59DOPE  H11A 7491   0.271   0.722   2.584 -1.6758  1.4128  3.0924
   59DOPE  H11B 7492   0.100   0.721   2.579  0.3905 -1.9928  0.3553
   59DOPE     P 7493   0.064   0.969   2.492  0.1596 -0.3486 -0.1848
   59DOPE   O13 7494  -0.051   0.890   2.453  0.1501  0.0028  0.5551
   59DOPE   O14 7495   0.092   1.095   2.417 -0.2957  0.2187 -0.2137
   59DOPE   O11 7496   0.050   0.995   2.644 -0.3124  0.1672 -0.6131
   59DOPE   O12 7497   0.191   0.887   2.486 -0.1595  0.8248 -0.1220
   59DOPE    C1 7498   0.168   1.003   2.726  0.0724  0.1218  0.6237
   59DOPE    HA 7499   0.249   1.074   2.697 -0.0276  0.1907  0.5135
   59DOPE    HB 7500   0.208   0.902   2.747 -0.0230  0.3269  1.9205
   59DOPE    C2 7501   0.114   1.058   2.860  0.0063  0.3702 -0.1524
   59DOPE    HS 7502   0.066   1.158   2.852 -2.2701 -0.7014 -0.9992
   59DOPE   O21 7503   0.226   1.048   2.954  0.1742 -0.1071  0.6186
   59DOPE   C21 7504   0.271   1.166   2.998 -0.1440  0.2999  0.2921
   59DOPE   O22 7505   0.240   1.277   2.962  0.1478  0.1106  0.0316
   59DOPE   C22 7506   0.371   1.151   3.112 -0.2672  0.1388 -0.1521
   59DOPE   H2R 7507   0.477   1.176   3.087  0.1806 -2.1263 -0.7476
   59DOPE   H2S 7508   0.375   1.041   3.123 -0.4726  0.0189 -1.1518
   59DOPE    C3 7509  -0.012   0.978   2.913 -0.5266  0.8470 -0.3670
   59DOPE    HX 7510   0.007   0.869   2.913  1.8615  1.2182 -0.5181
   59DOPE    HY 7511  -0.088   0.997   2.835 -1.4755 -1.3051 -0.0391
   59DOPE   O31 7512  -0.055   1.031   3.039 -0.1311  0.2336 -0.4302
   59DOPE   C31 7513  -0.016   0.962   3.153  0.5388  0.0716  0.2867
   59DOPE   O32 7514   0.064   0.872   3.161  0.1835  0.1481  0.1479
   59DOPE   C32 7515  -0.123   1.008   3.256  0.2792  0.2758  0.4267
   59DOPE   H2X 7516  -0.131   1.119   3.252  1.2449  0.3638  0.6316
   59DOPE   H2Y 7517  -0.219   0.962   3.225  1.9401 -3.5319  0.4380
   59DOPE   C23 7518   0.324   1.214   3.247  0.7328  0.7101  0.5041
   59DOPE   H3R 7519   0.229   1.169   3.283 -0.1227  2.7005  0.9029
   59DOPE   H3S 7520   0.317   1.325   3.246  0.9959  0.7341  1.0227
   59DOPE   C24 7521   0.435   1.201   3.354 -0.0238  0.2597  0.1686
   59DOPE   H4R 7522   0.526   1.254   3.318  0.5936 -2.1223 -2.1314
   59DOPE   H4S 7523   0.455   1.092   3.358  0.6288  0.3331 -0.6346
   59DOPE   C25 7524   0.390   1.252   3.496 -0.0098  0.0073  0.2346
   59DOPE   H5R 7525   0.279   1.258   3.504  0.1368  0.9353  2.1178
   59DOPE   H5S 7526   0.417   1.359   3.504 -0.5862  0.3169 -1.5998
   59DOPE   C26 7527   0.450   1.171   3.604 -0.1233 -0.2445 -0.0513
   59DOPE   H6R 7528   0.561   1.180   3.609 -0.1016 -0.8309  0.7181
   59DOPE   H6S 7529   0.428   1.065   3.578  1.3770 -0.9080  1.1997
   59DOPE   C27 7530   0.388   1.220   3.734 -0.2853  0.0446 -0.4735
   59DOPE   H7R 7531   0.278   1.212   3.725 -0.2353 -1.1245 -0.1720
   59DOPE   H7S 7532   0.413   1.325   3.758 -0.5638 -0.1742  0.8203
   59DOPE   C28 7533   0.419   1.124   3.853 -0.2263 -0.2684 -0.6342
   59DOPE   H8R 7534   0.385   1.022   3.826 -0.9583  0.3491 -2.0974
   59DOPE   H8S 7535   0.356   1.151   3.940  1.7269  1.2464  0.3774
   59DOPE   C29 7536   0.566   1.106   3.884 -0.1601 -0.0092 -0.0694
   59DOPE   H9R 7537   0.623   1.062   3.801  3.0040  2.6186  0.4866
   59DOPE  C210 7538   0.621   1.132   4.004 -0.3365 -0.5429 -0.4762
   59DOPE  H10R 7539   0.724   1.107   4.035 -0.4570 -0.5216 -0.0504
   59DOPE  C211 7540   0.559   1.182   4.138  0.9384  0.1303  0.5424
   59DOPE  H11R 7541   0.639   1.201   4.213 -0.9940  0.7222  2.5824
   59DOPE  H11S 7542   0.499   1.096   4.176  0.1573  0.4780  0.1224
   59DOPE  C212 7543   0.460   1.303   4.128 -0.3887 -0.4824  0.4172
   59DOPE  H12R 7544   0.361   1.266   4.092  1.0614 -0.7823 -3.7156
   59DOPE  H12S 7545   0.503   1.368   4.050 -2.4395 -2.0117 -2.1470
   59DOPE  C213 7546   0.450   1.371   4.253  0.3946 -1.0804  0.7804
   59DOPE  H13R 7547   0.410   1.472   4.229  0.6920 -1.2637 -0.5316
   59DOPE  H13S 7548   0.548   1.390   4.302 -0.0217  1.7946  0.6631
   59DOPE  C214 7549   0.354   1.301   4.353 -0.4891 -0.2455 -0.0844
   59DOPE  H14R 7550   0.378   1.193   4.356  0.9493  0.0777  0.9548
   59DOPE  H14S 7551   0.251   1.311   4.313 -1.5361 -2.1260  1.9475
   59DOPE  C215 7552   0.361   1.353   4.492  0.0364 -0.1637  0.0605
   59DOPE  H15R 7553   0.377   1.463   4.482  0.1693 -0.3840 -3.3400
   59DOPE  H15S 7554   0.451   1.303   4.534  1.1479 -0.0550 -2.0291
   59DOPE  C216 7555   0.247   1.323   4.591 -0.6646 -0.2760  0.6637
   59DOPE  H16R 7556   0.249   1.213   4.605  0.4518 -0.7169 -2.2798
   59DOPE  H16S 7557   0.152   1.348   4.539 -1.2542 -1.7122  0.9843
   59DOPE  C217 7558   0.255   1.390   4.728  0.0176  0.6879  1.5752
   59DOPE  H17R 7559   0.249   1.501   4.721  2.9984  0.8794  0.6392
   59DOPE  H17S 7560   0.361   1.378   4.759  1.5666 -0.0073 -3.1584
   59DOPE  C218 7561   0.165   1.317   4.825  0.0236 -0.2540  0.1326
   59DOPE  H18R 7562   0.191   1.357   4.925 -0.3600  1.6698 -0.5079
   59DOPE  H18S 7563   0.171   1.206   4.814 -0.6315 -0.3897  1.0023
   59DOPE  H18T 7564   0.058   1.339   4.805  0.3500  0.7310 -0.5633
   59DOPE   C33 7565  -0.099   0.954   3.394  0.0628 -0.1135  0.7584
   59DOPE   H3X 7566  -0.074   0.846   3.393  0.2746 -0.0653  0.5607
   59DOPE   H3Y 7567  -0.196   0.961   3.447 -1.7245 -0.7524 -2.1797
   59DOPE   C34 7568   0.001   1.031   3.471 -0.0477  0.1455  0.0027
   59DOPE   H4X 7569   0.102   1.020   3.426 -0.3611  0.3569 -0.7744
   59DOPE   H4Y 7570  -0.030   1.137   3.475  1.7276  0.6614  1.5429
   59DOPE   C35 7571   0.023   0.976   3.621  0.0545  0.2081  0.1307
   59DOPE   H5X 7572   0.104   1.032   3.673 -0.4386  0.2507  0.8674
   59DOPE   H5Y 7573   0.042   0.867   3.620  2.1328  0.5395 -0.2805
   59DOPE   C36 7574  -0.106   1.004   3.710 -0.0577  0.8248 -0.1406
   59DOPE   H6X 7575  -0.189   0.943   3.668  1.6094 -1.5134 -0.2536
   59DOPE   H6Y 7576  -0.124   1.113   3.698 -0.5782  0.7832  0.2321
   59DOPE   C37 7577  -0.091   0.961   3.859  0.5978 -0.1563 -0.3041
   59DOPE   H7X 7578  -0.081   0.851   3.847 -0.5918 -0.3028 -0.0590
   59DOPE   H7Y 7579   0.001   0.993   3.913  0.1263 -1.3045  1.2424
   59DOPE   C38 7580  -0.217   1.005   3.947 -0.6128 -0.0545 -0.0990
   59DOPE   H8X 7581  -0.308   1.003   3.884 -0.9117  3.9137 -0.0074
   59DOPE   H8Y 7582  -0.205   1.114   3.966  2.1749  0.0507 -1.9457
   59DOPE   C39 7583  -0.240   0.919   4.065 -0.1245 -0.2316 -0.3402
   59DOPE   H9X 7584  -0.252   0.813   4.042 -1.0232  0.1634 -1.8577
   59DOPE  C310 7585  -0.274   0.951   4.187 -0.3220 -0.1566  0.1003
   59DOPE  H10X 7586  -0.289   0.866   4.255  1.7106 -0.3342  0.3713
   59DOPE  C311 7587  -0.296   1.090   4.242 -0.2618 -0.3016  0.3157
   59DOPE  H11X 7588  -0.232   1.157   4.182 -1.1135  0.9660  0.7902
   59DOPE  H11Y 7589  -0.402   1.120   4.225 -0.5688 -0.9160  1.0610
   59DOPE  C312 7590  -0.275   1.093   4.393 -0.2770 -0.0701  0.1318
   59DOPE  H12X 7591  -0.357   1.030   4.433 -1.2047  0.1826 -1.2780
   59DOPE  H12Y 7592  -0.298   1.200   4.412  0.2703 -0.2718  2.1165
   59DOPE  C313 7593  -0.141   1.058   4.462  0.5869 -0.5067 -0.7078
   59DOPE  H13X 7594  -0.116   0.954   4.431 -1.0581 -0.0861 -3.8292
   59DOPE  H13Y 7595  -0.063   1.124   4.417 -1.6816  2.0053 -1.1910
   59DOPE  C314 7596  -0.140   1.073   4.617 -0.2189  0.2947  0.0082
   59DOPE  H14X 7597  -0.179   1.175   4.635 -0.8466 -0.0839  0.8410
   59DOPE  H14Y 7598  -0.034   1.076   4.651 -0.7551  1.1914  1.6641
   59DOPE  C315 7599  -0.213   0.966   4.691 -0.8076  0.4218 -0.0118
   59DOPE  H15X 7600  -0.288   0.921   4.623  0.2841  0.6743 -1.4408
   59DOPE  H15Y 7601  -0.264   1.008   4.780 -2.1209  0.5984 -0.8216
   59DOPE  C316 7602  -0.122   0.852   4.740 -0.1073  0.1006 -0.1708
   59DOPE  H16X 7603  -0.067   0.808   4.654  2.1515 -0.1247  1.3103
   59DOPE  H16Y 7604  -0.183   0.767   4.778  1.5744 -0.5072  1.3136
   59DOPE  C317 7605  -0.018   0.872   4.853 -0.7670 -0.2853 -0.2134
   59DOPE  H17X 7606   0.025   0.780   4.898  0.4201  0.0209 -0.6837
   59DOPE  H17Y 7607   0.059   0.940   4.811 -0.9779  1.5519  2.1535
   59DOPE  C318 7608  -0.066   0.956   4.968  0.1431  0.0419  0.2494
   59DOPE  H18X 7609   0.011   0.960   5.048 -0.0580  3.5424  0.4353
   59DOPE  H18Y 7610  -0.106   1.058   4.948  0.0107 -0.0426  0.0819
   59DOPE  H18Z 7611  -0.149   0.900   5.017  0.3226  0.1843  0.7196
   60DOPE     N 7612   7.324   6.795   2.108  0.1526 -0.7903 -0.5002
   60DOPE   HN1 7613   7.399   6.780   2.179  1.7250  2.2468 -1.3552
   60DOPE   HN2 7614   7.311   6.896   2.089  1.3967 -0.8360 -1.7834
   60DOPE   HN3 7615   7.233   6.754   2.135  0.8840 -1.7234  0.6627
   60DOPE   C12 7616   7.358   6.738   1.981  0.5810  0.1672 -0.4459
   60DOPE  H12A 7617   7.464   6.770   1.972  0.5257  0.5714  0.2822
   60DOPE  H12B 7618   7.290   6.774   1.901 -1.4808 -2.6197 -0.1022
   60DOPE   C11 7619   7.343   6.583   1.980  0.4534  0.0124 -0.0816
   60DOPE  H11A 7620   7.348   6.542   1.876 -0.1717  0.2247 -0.2026
   60DOPE  H11B 7621   7.240   6.567   2.019  0.9410  1.0654  1.7466
   60DOPE     P 7622   7.460   6.382   2.094  0.0371  0.2271 -0.1376
   60DOPE   O13 7623   7.602   6.360   2.079  0.7341  0.9196 -0.1262
   60DOPE   O14 7624   7.364   6.311   2.001 -0.1624 -0.2831 -0.6486
   60DOPE   O11 7625   7.419   6.343   2.247  0.0984  0.2795 -0.4146
   60DOPE   O12 7626   7.437   6.534   2.072 -0.0791  0.1647  0.6848
   60DOPE    C1 7627   7.357   6.445   2.330 -0.2505  0.0577  0.6862
   60DOPE    HA 7628   7.251   6.461   2.300  0.6271  0.3567 -2.7099
   60DOPE    HB 7629   7.422   6.534   2.313  0.7496 -1.2384 -3.2747
   60DOPE    C2 7630   7.350   6.407   2.480  0.0172  0.5257 -0.4017
   60DOPE    HS 7631   7.451   6.367   2.504  0.4152  1.9906  0.4834
   60DOPE   O21 7632   7.248   6.308   2.497  0.4801 -0.2749 -0.0033
   60DOPE   C21 7633   7.282   6.204   2.572 -0.0399 -0.4453  0.2527
   60DOPE   O22 7634   7.390   6.192   2.625  0.4501 -0.0594  0.3993
   60DOPE   C22 7635   7.173   6.106   2.586  0.7927 -0.7444 -0.0777
   60DOPE   H2R 7636   7.206   6.018   2.527 -0.3972 -0.1749 -1.6821
   60DOPE   H2S 7637   7.079   6.141   2.538  0.5091  0.2330  1.1619
   60DOPE    C3 7638   7.327   6.536   2.567 -0.3090  1.1012  0.5427
   60DOPE    HX 7639   7.228   6.569   2.527  0.2183 -0.0261 -1.8555
   60DOPE    HY 7640   7.404   6.606   2.530 -0.7520  1.0294 -0.5589
   60DOPE   O31 7641   7.317   6.500   2.704 -0.1325  0.5678 -0.7910
   60DOPE   C31 7642   7.434   6.502   2.763  0.0916 -0.2251 -0.1531
   60DOPE   O32 7643   7.541   6.508   2.706  0.8056 -0.0213 -0.0846
   60DOPE   C32 7644   7.426   6.486   2.913 -0.3100  0.3478  0.0597
   60DOPE   H2X 7645   7.424   6.377   2.937  0.9229  0.7785  2.3560
   60DOPE   H2Y 7646   7.525   6.525   2.945 -0.3045 -0.2674  0.8153
   60DOPE   C23 7647   7.158   6.063   2.730  0.2975  0.4720 -0.5510
   60DOPE   H3R 7648   7.261   6.047   2.770  0.4238  1.3235 -0.5092
   60DOPE   H3S 7649   7.100   5.969   2.740  0.6317  0.3920  0.8515
   60DOPE   C24 7650   7.098   6.177   2.813  0.8396  0.2878 -0.0955
   60DOPE   H4R 7651   6.995   6.186   2.770  0.5089 -0.1423  0.5946
   60DOPE   H4S 7652   7.162   6.267   2.803  1.4015 -0.1649 -0.5987
   60DOPE   C25 7653   7.080   6.149   2.961 -0.2384  0.1191  1.1295
   60DOPE   H5R 7654   7.181   6.135   3.004 -0.2927 -1.1181  0.8940
   60DOPE   H5S 7655   7.028   6.050   2.962 -3.6877  1.7251 -0.3740
   60DOPE   C26 7656   6.997   6.256   3.038  0.1560  0.4759  1.0278
   60DOPE   H6R 7657   6.900   6.273   2.986  1.3378  2.0118 -0.7822
   60DOPE   H6S 7658   7.045   6.356   3.045 -0.7598  1.0838 -0.8005
   60DOPE   C27 7659   6.964   6.210   3.185  0.8239  0.3118 -0.4575
   60DOPE   H7R 7660   7.061   6.207   3.239 -0.3634  2.6129  2.0512
   60DOPE   H7S 7661   6.917   6.110   3.180 -2.3779  1.4287  2.5419
   60DOPE   C28 7662   6.869   6.309   3.258  0.5659  1.2616 -0.7360
   60DOPE   H8R 7663   6.766   6.311   3.217 -0.7738  0.7763  2.3290
   60DOPE   H8S 7664   6.909   6.412   3.245  1.5641  0.8404 -1.1279
   60DOPE   C29 7665   6.873   6.275   3.406 -0.2723 -0.6644  0.4942
   60DOPE   H9R 7666   6.971   6.295   3.453  1.3217 -1.2829 -2.3170
   60DOPE  C210 7667   6.793   6.192   3.468 -0.3285  0.5731  0.3441
   60DOPE  H10R 7668   6.810   6.172   3.575  0.8147  3.2500  0.7410
   60DOPE  C211 7669   6.680   6.105   3.414 -0.3322 -0.3303 -0.1584
   60DOPE  H11R 7670   6.626   6.161   3.335 -3.5151 -0.3968  1.7737
   60DOPE  H11S 7671   6.601   6.089   3.491 -1.2862  0.5456 -0.9208
   60DOPE  C212 7672   6.721   5.961   3.372 -0.6576  0.4894  0.3220
   60DOPE  H12R 7673   6.741   5.895   3.459  2.6689  1.4202  0.4109
   60DOPE  H12S 7674   6.820   5.970   3.321  1.9272  0.1905  4.7874
   60DOPE  C213 7675   6.615   5.915   3.276  0.1443  0.0663 -0.6474
   60DOPE  H13R 7676   6.612   5.988   3.192 -1.5881 -0.2201 -0.8768
   60DOPE  H13S 7677   6.515   5.911   3.324  1.4008 -0.2571  2.1076
   60DOPE  C214 7678   6.642   5.782   3.208  0.0297  0.8208  0.5208
   60DOPE  H14R 7679   6.553   5.744   3.153  0.5951  0.6507 -0.2918
   60DOPE  H14S 7680   6.658   5.697   3.278  1.4052  0.7148  0.1100
   60DOPE  C215 7681   6.768   5.788   3.112 -0.7707 -0.1471 -0.0995
   60DOPE  H15R 7682   6.857   5.801   3.178 -0.6499  0.5665 -0.3933
   60DOPE  H15S 7683   6.764   5.880   3.050  1.9747  2.2493  2.9247
   60DOPE  C216 7684   6.783   5.661   3.030 -0.5473  0.2739 -0.7267
   60DOPE  H16R 7685   6.693   5.630   2.971 -2.3898  1.5317  1.2631
   60DOPE  H16S 7686   6.801   5.580   3.104  0.8269  1.5588  0.3878
   60DOPE  C217 7687   6.909   5.659   2.945  0.8010 -0.1671  0.2785
   60DOPE  H17R 7688   6.916   5.560   2.894 -0.4025  1.3616 -3.2307
   60DOPE  H17S 7689   6.999   5.683   3.005  2.0394 -2.9633 -0.2915
   60DOPE  C218 7690   6.901   5.759   2.829  0.3944  0.3501  0.6848
   60DOPE  H18R 7691   6.993   5.759   2.766 -0.7624 -2.4655 -1.2156
   60DOPE  H18S 7692   6.883   5.861   2.869  0.9106  1.4073 -1.5898
   60DOPE  H18T 7693   6.828   5.714   2.758  1.0785 -2.0829  1.4146
   60DOPE   C33 7694   7.316   6.555   2.989  0.0007 -0.4988 -0.4273
   60DOPE   H3X 7695   7.217   6.512   2.963 -0.1385 -0.5960  0.2466
   60DOPE   H3Y 7696   7.298   6.662   2.963  0.8818  0.1730  1.4731
   60DOPE   C34 7697   7.338   6.534   3.137 -0.3709 -0.1251  0.4311
   60DOPE   H4X 7698   7.350   6.425   3.153  3.9904 -0.0345 -0.8750
   60DOPE   H4Y 7699   7.429   6.586   3.174  0.1458 -0.3740 -0.4667
   60DOPE   C35 7700   7.224   6.588   3.223  0.5627  0.3159  0.0596
   60DOPE   H5X 7701   7.132   6.553   3.171  1.0450 -1.0044  0.0429
   60DOPE   H5Y 7702   7.223   6.699   3.221  2.7808  0.4053  1.2474
   60DOPE   C36 7703   7.238   6.536   3.366 -0.0867  0.1563  0.2381
   60DOPE   H6X 7704   7.342   6.557   3.399  0.7503 -2.9278 -0.1066
   60DOPE   H6Y 7705   7.224   6.426   3.363 -0.0301  0.1578 -0.2598
   60DOPE   C37 7706   7.145   6.602   3.470  0.6300 -0.4297  0.2495
   60DOPE   H7X 7707   7.143   6.713   3.465  0.2218 -0.4063  0.8748
   60DOPE   H7Y 7708   7.043   6.563   3.450  0.6464 -1.1458  1.4855
   60DOPE   C38 7709   7.195   6.566   3.613 -0.2268  0.2325  0.2415
   60DOPE   H8X 7710   7.298   6.607   3.625 -0.3091  0.8574 -1.1219
   60DOPE   H8Y 7711   7.213   6.456   3.607  0.0723  0.3652 -1.6455
   60DOPE   C39 7712   7.105   6.615   3.728 -0.0477 -0.3760 -0.5670
   60DOPE   H9X 7713   7.110   6.724   3.746  1.1968 -0.2963 -1.2869
   60DOPE  C310 7714   7.025   6.547   3.812  0.1770 -0.3692 -0.1269
   60DOPE  H10X 7715   6.963   6.611   3.877  1.5742  0.6606  0.2348
   60DOPE  C311 7716   7.001   6.397   3.809 -0.4083 -0.1006 -0.0801
   60DOPE  H11X 7717   6.954   6.364   3.714 -2.3495 -0.0043  0.7836
   60DOPE  H11Y 7718   7.100   6.347   3.813  0.1225  0.9315  0.2097
   60DOPE  C312 7719   6.916   6.342   3.932  0.2239 -0.0595 -0.8114
   60DOPE  H12X 7720   6.953   6.394   4.023  1.1566 -0.8944 -0.7006
   60DOPE  H12Y 7721   6.935   6.233   3.924  0.2853 -0.2641  1.3708
   60DOPE  C313 7722   6.768   6.381   3.918  0.0554  0.8519 -0.3133
   60DOPE  H13X 7723   6.713   6.343   4.007 -0.5329  1.5231 -0.3908
   60DOPE  H13Y 7724   6.759   6.491   3.912  2.0454  1.0667 -0.0631
   60DOPE  C314 7725   6.688   6.303   3.807  0.0796  0.0254 -0.2189
   60DOPE  H14X 7726   6.710   6.195   3.821  3.0496  0.6563  0.6548
   60DOPE  H14Y 7727   6.741   6.340   3.716  1.5578  0.5211  0.8129
   60DOPE  C315 7728   6.540   6.329   3.796  0.1579 -0.0279  0.3442
   60DOPE  H15X 7729   6.505   6.306   3.899  0.0543 -0.9179  0.1217
   60DOPE  H15Y 7730   6.483   6.264   3.725  0.9695  0.3043 -0.6415
   60DOPE  C316 7731   6.511   6.472   3.763  0.4897 -0.4131 -0.0524
   60DOPE  H16X 7732   6.526   6.483   3.654  0.3789 -2.6952 -0.3476
   60DOPE  H16Y 7733   6.581   6.545   3.810  0.7774 -0.5264 -0.2991
   60DOPE  C317 7734   6.368   6.523   3.817  0.3675 -0.3328  0.2074
   60DOPE  H17X 7735   6.375   6.524   3.928 -0.7862  0.4728  0.2940
   60DOPE  H17Y 7736   6.355   6.628   3.784 -0.9840 -0.0841  1.4341
   60DOPE  C318 7737   6.248   6.439   3.775 -0.1272 -0.3901  0.2593
   60DOPE  H18X 7738   6.238   6.445   3.665 -2.0967  1.3389  0.4691
   60DOPE  H18Y 7739   6.255   6.334   3.810 -1.5999 -0.5373  0.1508
   60DOPE  H18Z 7740   6.158   6.482   3.823  0.2084  1.0351 -0.3123
   6123SM     N 7741   2.962   5.842   6.858 -0.4692 -0.4862 -0.7238
   6123SM   C15 7742   2.947   5.929   6.977 -0.6614 -0.0060 -0.1545
   6123SM  H15A 7743   2.983   6.025   6.942 -1.3070  0.0345 -0.7491
   6123SM  H15B 7744   3.005   5.890   7.059 -0.5940 -0.3671 -0.3747
   6123SM  H15C 7745   2.845   5.945   7.008 -0.5263 -0.3819  0.4805
   6123SM   C14 7746   2.957   5.700   6.898 -0.0890  0.1811 -0.8642
   6123SM  H14A 7747   2.857   5.668   6.925  1.0087 -2.6285  0.2497
   6123SM  H14B 7748   3.031   5.686   6.975  0.9619  1.1802 -1.6632
   6123SM  H14C 7749   2.986   5.642   6.811 -3.0381 -1.8553 -0.6389
   6123SM   C13 7750   2.860   5.883   6.758 -0.4046  0.3200 -1.1305
   6123SM  H13A 7751   2.868   5.991   6.756  2.6516  0.2452  1.1622
   6123SM  H13B 7752   2.757   5.855   6.775 -0.4175 -0.2004 -1.9967
   6123SM  H13C 7753   2.896   5.841   6.665  1.9940 -2.2183  0.8005
   6123SM   C12 7754   3.099   5.871   6.808 -0.4344 -0.1353 -0.5530
   6123SM  H12A 7755   3.164   5.848   6.891 -1.3712 -0.2454  0.1638
   6123SM  H12B 7756   3.123   5.975   6.787 -2.3475  0.1969 -1.3821
   6123SM   C11 7757   3.157   5.780   6.696 -0.2854  0.7245  0.1511
   6123SM  H11A 7758   3.243   5.826   6.644  0.2819 -0.1417  0.3069
   6123SM  H11B 7759   3.080   5.769   6.617  1.6121  0.6834 -1.7791
   6123SM     P 7760   3.355   5.618   6.774 -0.3411  0.2587 -0.4555
   6123SM   O13 7761   3.423   5.725   6.850 -0.1449 -0.4541  0.3014
   6123SM   O14 7762   3.370   5.477   6.827  0.1417  0.6705 -0.1124
   6123SM   O11 7763   3.425   5.617   6.628 -0.6391  0.4753 -0.4015
   6123SM   O12 7764   3.201   5.656   6.746 -0.1880 -0.3149  0.1015
   6123SM   C1S 7765   3.361   5.533   6.527 -0.5933 -0.3953  0.5247
   6123SM   H1S 7766   3.270   5.590   6.497 -0.1564  0.6163  1.0580
   6123SM   H1T 7767   3.336   5.434   6.570 -3.2827  0.6727  1.6277
   6123SM    NF 7768   3.365   5.449   6.296 -1.0300 -0.6986  0.8782
   6123SM   HNF 7769   3.388   5.352   6.302  0.3411 -0.7001 -2.6250
   6123SM   C2S 7770   3.446   5.523   6.398  0.1673  0.5148 -0.1877
   6123SM   H2S 7771   3.471   5.625   6.361 -2.7572  1.0380 -0.9705
   6123SM   C3S 7772   3.585   5.452   6.442  0.0122 -0.7955  0.6230
   6123SM   H3S 7773   3.548   5.361   6.493 -2.1932  0.5332  1.5193
   6123SM    O3 7774   3.643   5.534   6.538 -0.2726  0.5469 -0.4257
   6123SM   HO3 7775   3.571   5.583   6.578  1.9948  2.3303  1.8363
   6123SM   C4S 7776   3.686   5.437   6.327  0.3299  0.1383  0.3629
   6123SM   H4S 7777   3.685   5.525   6.261  2.5913 -1.2029 -1.6020
   6123SM   C5S 7778   3.779   5.339   6.312 -0.4335 -0.2239  1.0190
   6123SM   H5S 7779   3.802   5.280   6.402 -2.3752  0.1178  1.7804
   6123SM   C6S 7780   3.874   5.339   6.197 -0.9381 -0.4020  0.4935
   6123SM   H6S 7781   3.891   5.239   6.150 -1.8074 -1.5500  2.5108
   6123SM   H6T 7782   3.974   5.365   6.239 -1.7778 -0.3895  2.5962
   6123SM   C7S 7783   3.861   5.443   6.077 -0.6803  0.5140 -0.6677
   6123SM   H7S 7784   3.879   5.546   6.113 -0.0025  0.6927 -1.4624
   6123SM   H7T 7785   3.757   5.436   6.039 -1.0226  0.6301  0.2369
   6123SM   C8S 7786   3.963   5.399   5.972 -0.3064 -0.1614 -0.9319
   6123SM   H8S 7787   3.949   5.295   5.938  2.3548 -0.1024 -2.5528
   6123SM   H8T 7788   4.061   5.416   6.023 -0.7865  1.6672 -0.5504
   6123SM   C9S 7789   3.952   5.486   5.848  1.0862  0.0984  0.0138
   6123SM   H9S 7790   3.941   5.595   5.867  1.9434  0.1820  0.0810
   6123SM   H9T 7791   3.851   5.461   5.808  1.4192 -0.6948 -0.3583
   6123SM  C10S 7792   4.066   5.461   5.756 -0.0811  0.2551 -0.2945
   6123SM  H10S 7793   4.043   5.358   5.721 -3.1807  0.5698  0.5661
   6123SM  H10T 7794   4.165   5.464   5.806 -0.1270 -2.4931  0.1125
   6123SM  C11S 7795   4.079   5.533   5.618  0.3968 -0.4408 -0.1289
   6123SM  H11S 7796   4.008   5.489   5.545  1.3101 -0.7521 -0.8495
   6123SM  H11T 7797   4.181   5.524   5.575  0.5498  1.6058 -0.2939
   6123SM  C12S 7798   4.046   5.681   5.616 -0.4377 -0.0427 -0.2520
   6123SM  H12S 7799   4.092   5.740   5.697  0.0377  0.6595 -1.0146
   6123SM  H12T 7800   3.938   5.693   5.639  0.0931 -0.4735  2.9432
   6123SM  C13S 7801   4.068   5.740   5.472  0.2356 -0.2286  0.3681
   6123SM  H13S 7802   4.010   5.833   5.456  1.3856  0.5147  0.4027
   6123SM  H13T 7803   4.047   5.668   5.389  0.5720  0.9511 -0.7685
   6123SM  C14S 7804   4.209   5.792   5.444  0.3028  0.0357  0.2106
   6123SM  H14S 7805   4.284   5.710   5.445 -0.1855 -0.4255 -0.4284
   6123SM  H14T 7806   4.236   5.869   5.519  0.1573 -1.5788  2.0163
   6123SM  C15S 7807   4.225   5.845   5.302  0.0681 -0.2298 -0.8641
   6123SM  H15S 7808   4.174   5.943   5.294 -1.0165 -0.7517 -0.5930
   6123SM  H15T 7809   4.166   5.781   5.234  0.7471  0.7187 -2.3973
   6123SM  C16S 7810   4.363   5.861   5.257  0.5847 -0.4354 -0.0436
   6123SM  H16S 7811   4.400   5.762   5.224  1.0526  0.4502 -2.3687
   6123SM  H16T 7812   4.430   5.909   5.332  0.3999 -1.0096  0.4949
   6123SM  C17S 7813   4.387   5.968   5.140 -0.4342  0.1980 -0.2235
   6123SM  H17S 7814   4.487   5.943   5.098 -1.0029 -1.9510 -0.3710
   6123SM  H17T 7815   4.371   6.067   5.189 -0.8330 -0.6327  1.3818
   6123SM  C18S 7816   4.274   5.969   5.032 -0.1668 -0.0800  0.1458
   6123SM  H18S 7817   4.174   5.983   5.079 -0.3546  0.9922 -0.5431
   6123SM  H18T 7818   4.268   5.871   4.980 -1.2847 -0.3654  0.7707
   6123SM  H18U 7819   4.292   6.049   4.957 -0.5743  1.0352  1.2082
   6123SM   C1F 7820   3.265   5.508   6.230  0.0744  0.1943 -0.3073
   6123SM    OF 7821   3.226   5.622   6.249 -0.0782 -0.0213 -0.0621
   6123SM   C2F 7822   3.198   5.409   6.132 -0.2020 -0.7551 -0.6301
   6123SM   H2F 7823   3.136   5.348   6.200  0.0449  0.3491  0.6250
   6123SM   H2G 7824   3.277   5.348   6.082 -0.5606 -1.3503 -0.4719
   6123SM   C3F 7825   3.114   5.493   6.035 -0.2601  0.3328 -0.1604
   6123SM   H3F 7826   3.175   5.547   5.960  1.5008 -1.5959 -0.1949
   6123SM   H3G 7827   3.057   5.567   6.095 -0.5236 -0.0681  0.0915
   6123SM   C4F 7828   3.010   5.409   5.955  0.1488 -1.0689 -0.2105
   6123SM   H4F 7829   2.934   5.461   5.894 -0.1505  0.2057  1.1971
   6123SM   H4G 7830   2.953   5.348   6.029  0.0308  0.7722  1.2785
   6123SM   C5F 7831   3.086   5.321   5.852 -0.5607  0.5346  0.4382
   6123SM   H5F 7832   3.168   5.258   5.893  0.2705  2.0929  1.2363
   6123SM   H5G 7833   3.141   5.370   5.770  0.3438 -2.9815 -1.2591
   6123SM   C6F 7834   2.991   5.222   5.779 -0.5539  0.3675  0.5807
   6123SM   H6F 7835   2.905   5.280   5.740 -2.3034 -0.9935  2.1568
   6123SM   H6G 7836   2.949   5.154   5.857  0.2308  1.9882  2.5038
   6123SM   C7F 7837   3.059   5.128   5.675  0.3473  0.1463 -0.1032
   6123SM   H7F 7838   3.135   5.062   5.722  0.7894  0.8232  0.1458
   6123SM   H7G 7839   3.120   5.191   5.607  2.7013 -0.7910  1.0216
   6123SM   C8F 7840   2.960   5.042   5.593 -0.3468  0.7425  0.1108
   6123SM   H8F 7841   2.899   5.118   5.540  2.3641  1.5009 -2.1751
   6123SM   H8G 7842   2.901   4.967   5.651 -1.1962 -1.9198 -3.8049
   6123SM   C9F 7843   3.042   4.972   5.477 -0.1529 -0.1090 -0.0978
   6123SM   H9F 7844   3.137   4.922   5.506  0.6071  1.1312 -0.3808
   6123SM   H9G 7845   3.071   5.059   5.415 -0.0917 -0.0396  0.0276
   6123SM  C10F 7846   2.962   4.880   5.382 -0.3768 -0.1360 -0.1532
   6123SM  H10F 7847   2.861   4.927   5.380  0.1012  0.9355  0.4652
   6123SM  H10G 7848   2.942   4.781   5.429 -0.4894 -1.0247 -1.9943
   6123SM  C11F 7849   3.023   4.845   5.246  0.0032  0.5186 -0.7761
   6123SM  H11F 7850   2.980   4.747   5.218  0.4558 -0.5191  1.8707
   6123SM  H11G 7851   3.131   4.834   5.268 -0.9068 -1.6640  3.7621
   6123SM  C12F 7852   2.995   4.953   5.146 -0.1307 -0.5032 -0.2430
   6123SM  H12F 7853   3.045   5.045   5.186 -0.3039 -1.0134  1.2068
   6123SM  H12G 7854   2.887   4.974   5.139  0.2727  2.5302  0.9929
   6123SM  C13F 7855   3.044   4.916   5.009 -0.6861 -0.3109  0.4265
   6123SM  H13F 7856   2.991   4.828   4.967 -1.2579  0.9978 -1.7566
   6123SM  H13G 7857   3.150   4.887   5.025 -0.1815  1.8961  1.4474
   6123SM  C14F 7858   3.036   5.036   4.913  0.5662  0.5326  0.0229
   6123SM  H14F 7859   3.112   5.021   4.833  0.1689  1.1092 -0.4693
   6123SM  H14G 7860   3.066   5.133   4.957  0.0806  1.5995 -1.8903
   6123SM  C15F 7861   2.900   5.051   4.849 -0.2164 -0.2180  0.2584
   6123SM  H15F 7862   2.810   5.036   4.912  0.3783  0.4824  1.3030
   6123SM  H15G 7863   2.896   4.982   4.762  2.1787  0.1573 -0.2326
   6123SM  C16F 7864   2.877   5.190   4.779 -0.2972 -0.2416 -0.4943
   6123SM  H16F 7865   2.965   5.213   4.715  0.4275 -0.1976  0.4958
   6123SM  H16G 7866   2.878   5.266   4.859  0.6325 -0.2505 -0.4947
   6123SM  C17F 7867   2.738   5.197   4.709 -0.5731  0.1434  0.2199
   6123SM  H17F 7868   2.672   5.133   4.772 -1.1093  1.4050  0.9805
   6123SM  H17G 7869   2.748   5.145   4.611  0.3059 -1.1674  0.9770
   6123SM  C18F 7870   2.681   5.339   4.682 -0.7478  0.1215  0.7611
   6123SM  H18F 7871   2.765   5.392   4.632 -1.1159 -0.5473 -0.6194
   6123SM  H18G 7872   2.654   5.373   4.784 -0.2915 -0.1286  0.9663
   6123SM  C19F 7873   2.564   5.342   4.576  0.4941  0.6895 -0.1447
   6123SM  H19F 7874   2.593   5.300   4.478 -0.9146 -1.7323  0.4096
   6123SM  H19G 7875   2.538   5.448   4.553 -0.0507  0.7506  0.6915
   6123SM  C20F 7876   2.439   5.268   4.630  0.2082  0.3096  0.2481
   6123SM  H20F 7877   2.393   5.334   4.707  0.7750  0.5239  0.4134
   6123SM  H20G 7878   2.451   5.170   4.680  2.7260  1.3350  1.8351
   6123SM  C21F 7879   2.344   5.242   4.512  0.1425 -0.2462 -0.3015
   6123SM  H21F 7880   2.406   5.211   4.426  0.7174 -1.5009  0.5431
   6123SM  H21G 7881   2.300   5.343   4.493  1.8946  0.4547 -0.7915
   6123SM  C22F 7882   2.228   5.147   4.537 -0.0475 -0.4581 -0.4161
   6123SM  H22F 7883   2.267   5.046   4.562 -2.0932 -1.0585  0.5893
   6123SM  H22G 7884   2.162   5.146   4.447 -0.1612  2.4237 -0.4313
   6123SM  C23F 7885   2.136   5.180   4.654  0.9081 -0.1108  0.4465
   6123SM  H23F 7886   2.103   5.286   4.654 -1.3459 -0.7489  0.6297
   6123SM  H23G 7887   2.187   5.171   4.752  1.8301  1.1232  0.0941
   6123SM  H23H 7888   2.050   5.111   4.640  0.9845 -0.1332  0.0877
   6223SM     N 7889   2.097   3.147   7.143 -0.0325  0.1741  0.3031
   6223SM   C15 7890   2.238   3.168   7.175 -0.2239  0.3856  0.0064
   6223SM  H15A 7891   2.259   3.269   7.208  1.2901  0.7575 -1.8894
   6223SM  H15B 7892   2.306   3.136   7.097 -1.0080 -0.5691 -0.2990
   6223SM  H15C 7893   2.272   3.098   7.250  0.4196 -0.0954 -0.7194
   6223SM   C14 7894   2.015   3.183   7.266 -0.2778  0.0199  0.3114
   6223SM  H14A 7895   1.908   3.177   7.251 -0.4278  0.4369  1.1386
   6223SM  H14B 7896   2.036   3.284   7.299  0.1800  0.3002 -0.8138
   6223SM  H14C 7897   2.032   3.116   7.349 -0.1854  1.6673  1.6795
   6223SM   C13 7898   2.069   3.249   7.041  0.1151 -0.0212  0.3177
   6223SM  H13A 7899   2.145   3.236   6.965 -0.7934 -1.6789 -0.3578
   6223SM  H13B 7900   2.066   3.351   7.075  0.7787 -0.1000  0.6361
   6223SM  H13C 7901   1.975   3.226   6.994 -1.4333  1.1677  2.6244
   6223SM   C12 7902   2.060   3.005   7.098 -0.5201  0.0420 -0.1150
   6223SM  H12A 7903   1.952   3.001   7.092 -0.5720  0.9007  0.1285
   6223SM  H12B 7904   2.097   2.936   7.173  0.1831 -2.8765 -2.9119
   6223SM   C11 7905   2.107   2.959   6.954  0.2962 -0.5643  0.7705
   6223SM  H11A 7906   2.073   2.854   6.943  1.4642 -1.0634  1.7071
   6223SM  H11B 7907   2.218   2.966   6.959  0.1571  1.6920  2.8811
   6223SM     P 7908   1.919   3.029   6.780 -0.3333 -0.4102  0.1073
   6223SM   O13 7909   1.833   2.930   6.844 -0.4035 -0.3829 -0.3577
   6223SM   O14 7910   1.866   3.171   6.765  0.1170 -0.0208  0.3156
   6223SM   O11 7911   1.949   2.975   6.637 -0.1382  0.4414  0.1623
   6223SM   O12 7912   2.061   3.042   6.848 -0.0228  0.2194 -0.5363
   6223SM   C1S 7913   2.079   2.947   6.580 -0.3548  0.2186  0.0440
   6223SM   H1S 7914   2.112   2.850   6.624  1.2986  1.4998  1.7497
   6223SM   H1T 7915   2.153   3.026   6.604  1.0457 -1.0460  0.1155
   6223SM    NF 7916   2.193   2.881   6.374 -0.5183 -0.5426 -0.1998
   6223SM   HNF 7917   2.278   2.932   6.366 -0.1377 -0.9425  1.1884
   6223SM   C2S 7918   2.071   2.949   6.421  0.0618  0.5360  0.0189
   6223SM   H2S 7919   1.979   2.895   6.390  0.4782  1.4865 -3.2394
   6223SM   C3S 7920   2.052   3.096   6.365 -0.3597  0.4165  0.9251
   6223SM   H3S 7921   2.122   3.165   6.417  0.6263 -0.4566  0.7960
   6223SM    O3 7922   1.920   3.139   6.375 -0.1809 -0.1216 -0.1363
   6223SM   HO3 7923   1.886   3.073   6.436  0.3913  0.2498  0.5975
   6223SM   C4S 7924   2.090   3.107   6.222  0.2345  0.9559 -0.1979
   6223SM   H4S 7925   2.195   3.130   6.200  0.1758 -0.5097 -2.3100
   6223SM   C5S 7926   2.022   3.084   6.105  0.3604 -0.2325  0.0250
   6223SM   H5S 7927   1.913   3.068   6.114 -0.1439  2.1360 -1.1258
   6223SM   C6S 7928   2.083   3.095   5.966 -0.1006 -0.0954  0.2453
   6223SM   H6S 7929   2.032   3.169   5.901 -2.2509 -1.3644  0.4125
   6223SM   H6T 7930   2.060   2.992   5.930 -1.7102 -1.1760  3.8234
   6223SM   C7S 7931   2.235   3.113   5.945  0.6264  0.2166 -0.0760
   6223SM   H7S 7932   2.294   3.045   6.011 -0.4414 -1.5779 -0.8862
   6223SM   H7T 7933   2.280   3.213   5.960  4.0872 -0.9586 -1.5766
   6223SM   C8S 7934   2.270   3.078   5.796  0.4628  0.1441 -0.3140
   6223SM   H8S 7935   2.258   2.969   5.780 -0.0217  0.1113  0.2646
   6223SM   H8T 7936   2.378   3.102   5.785  0.9631 -0.4026  2.6317
   6223SM   C9S 7937   2.190   3.150   5.686 -0.6775 -0.0400 -0.4176
   6223SM   H9S 7938   2.088   3.110   5.670 -1.0120 -0.0009  1.3570
   6223SM   H9T 7939   2.247   3.131   5.593  1.3603  1.0977  0.5196
   6223SM  C10S 7940   2.187   3.306   5.686  0.2718  0.0571 -0.0695
   6223SM  H10S 7941   2.290   3.336   5.711  0.2639 -0.1645  0.2367
   6223SM  H10T 7942   2.120   3.341   5.768  1.2206  0.3817  0.5783
   6223SM  C11S 7943   2.130   3.354   5.554 -0.1444  0.1276 -0.0884
   6223SM  H11S 7944   2.034   3.310   5.520 -0.4040  0.0473  0.7297
   6223SM  H11T 7945   2.209   3.338   5.477 -0.1977  0.8269 -0.2982
   6223SM  C12S 7946   2.112   3.503   5.566 -0.5539  0.1531  0.3287
   6223SM  H12S 7947   2.205   3.564   5.564 -0.2876 -0.1302 -3.5575
   6223SM  H12T 7948   2.060   3.530   5.660 -0.2741  1.5350  0.1021
   6223SM  C13S 7949   2.027   3.557   5.449  0.1066 -0.2909  1.0792
   6223SM  H13S 7950   1.939   3.490   5.452 -1.1404  1.2767  0.6508
   6223SM  H13T 7951   2.090   3.545   5.359 -0.4971 -1.0519  0.7442
   6223SM  C14S 7952   1.994   3.706   5.460 -0.0170 -0.0058  0.0033
   6223SM  H14S 7953   2.095   3.748   5.479  0.9357 -1.9700 -0.4355
   6223SM  H14T 7954   1.925   3.732   5.543  1.5129 -1.7573  1.9475
   6223SM  C15S 7955   1.950   3.776   5.325 -0.5837  0.1327  0.2897
   6223SM  H15S 7956   2.028   3.758   5.247 -0.1249  4.0995 -0.3820
   6223SM  H15T 7957   1.933   3.886   5.333 -0.3993  0.2370 -0.6268
   6223SM  C16S 7958   1.818   3.715   5.275  0.1640 -0.6504  0.0416
   6223SM  H16S 7959   1.739   3.754   5.343 -1.1971  0.6905 -2.1682
   6223SM  H16T 7960   1.842   3.607   5.287 -0.5135 -0.6614  1.4777
   6223SM  C17S 7961   1.784   3.762   5.124 -0.6559  0.4962 -0.9552
   6223SM  H17S 7962   1.861   3.725   5.052 -0.9849 -1.2046 -0.4756
   6223SM  H17T 7963   1.785   3.873   5.127 -0.3160  0.4800 -0.1692
   6223SM  C18S 7964   1.652   3.721   5.069  0.4368  0.7482 -0.2627
   6223SM  H18S 7965   1.639   3.786   4.979  1.0453  0.6002 -0.4621
   6223SM  H18T 7966   1.564   3.748   5.131 -1.0988 -3.1946 -0.4155
   6223SM  H18U 7967   1.647   3.614   5.039  1.8011  0.8744 -1.0479
   6223SM   C1F 7968   2.208   2.753   6.389  0.5251 -0.5302  0.5317
   6223SM    OF 7969   2.114   2.684   6.420  0.0019  0.2542 -0.5622
   6223SM   C2F 7970   2.344   2.703   6.362 -0.1288 -0.6665 -0.0731
   6223SM   H2F 7971   2.379   2.649   6.452 -0.0820 -0.6852 -0.1022
   6223SM   H2G 7972   2.401   2.797   6.353 -2.3078  0.6558 -0.8801
   6223SM   C3F 7973   2.361   2.616   6.235  0.1886  0.2003 -0.5213
   6223SM   H3F 7974   2.278   2.543   6.238 -0.4282  0.9038 -0.0866
   6223SM   H3G 7975   2.456   2.560   6.241  0.4698  0.6789 -0.4510
   6223SM   C4F 7976   2.334   2.698   6.108 -0.5551 -0.0146  0.2261
   6223SM   H4F 7977   2.408   2.778   6.089  1.2552 -2.3189 -3.5470
   6223SM   H4G 7978   2.235   2.740   6.138 -1.3235 -2.1563  0.8548
   6223SM   C5F 7979   2.327   2.607   5.989  0.4587  0.4204  0.0687
   6223SM   H5F 7980   2.244   2.537   6.009 -1.1767  1.7700 -1.6700
   6223SM   H5G 7981   2.416   2.542   5.979  2.0429  2.2477  1.3849
   6223SM   C6F 7982   2.307   2.676   5.853 -0.0071 -0.0185 -0.6670
   6223SM   H6F 7983   2.372   2.766   5.852  0.7053 -0.5266 -1.8240
   6223SM   H6G 7984   2.207   2.719   5.831  0.0338  1.1057  1.1768
   6223SM   C7F 7985   2.363   2.600   5.726 -0.2102 -0.2934 -0.8223
   6223SM   H7F 7986   2.303   2.507   5.711  0.0216 -0.6627  0.4039
   6223SM   H7G 7987   2.470   2.577   5.741 -0.5026 -0.7428  0.8166
   6223SM   C8F 7988   2.341   2.677   5.595 -0.3286 -0.1792  0.4858
   6223SM   H8F 7989   2.410   2.633   5.519  1.0670  3.2426 -0.4523
   6223SM   H8G 7990   2.374   2.781   5.613  1.0636 -0.6745  0.9009
   6223SM   C9F 7991   2.202   2.672   5.533 -0.2255 -0.3888 -0.4828
   6223SM   H9F 7992   2.130   2.720   5.602  0.6708  0.3465 -0.0315
   6223SM   H9G 7993   2.154   2.575   5.507 -0.2081 -0.0488 -1.8193
   6223SM  C10F 7994   2.199   2.756   5.404 -0.0344  0.3395  0.0274
   6223SM  H10F 7995   2.255   2.718   5.316  1.1228  0.5039  0.6674
   6223SM  H10G 7996   2.234   2.859   5.428 -1.3629  0.3428  2.2032
   6223SM  C11F 7997   2.056   2.777   5.340 -0.1050 -0.2354 -0.2517
   6223SM  H11F 7998   1.992   2.815   5.422  0.6734 -1.0029  0.7527
   6223SM  H11G 7999   2.022   2.680   5.298  0.7992 -1.1066  0.9267
   6223SM  C12F 8000   2.056   2.876   5.227 -0.1399 -0.1696 -0.2509
   6223SM  H12F 8001   1.955   2.887   5.181 -0.7151  2.9670  1.5205
   6223SM  H12G 8002   2.133   2.844   5.153 -1.0035  0.1732 -1.3235
   6223SM  C13F 8003   2.098   3.023   5.264  0.1189 -0.0344  0.2449
   6223SM  H13F 8004   2.207   3.025   5.286  0.1174  0.7803  0.2011
   6223SM  H13G 8005   2.032   3.062   5.345 -0.2584  1.0377 -0.5637
   6223SM  C14F 8006   2.069   3.106   5.138  0.2811  0.4859 -0.1750
   6223SM  H14F 8007   1.959   3.096   5.129  0.3713 -0.0412 -0.7067
   6223SM  H14G 8008   2.113   3.064   5.045  0.1409  2.6028 -1.2562
   6223SM  C15F 8009   2.119   3.251   5.137  0.4674  0.2768 -0.4904
   6223SM  H15F 8010   2.230   3.245   5.127  0.5400 -0.2111  0.5394
   6223SM  H15G 8011   2.090   3.291   5.236 -2.4851  0.1258 -1.2080
   6223SM  C16F 8012   2.072   3.331   5.016 -0.5483 -0.9669  1.1515
   6223SM  H16F 8013   2.084   3.274   4.921 -1.3666 -1.0676  1.1011
   6223SM  H16G 8014   2.125   3.428   5.009 -2.2475 -0.1036 -1.1403
   6223SM  C17F 8015   1.922   3.358   5.025 -0.4466  0.1055  0.0319
   6223SM  H17F 8016   1.904   3.410   5.122  0.3826  1.2511 -0.4045
   6223SM  H17G 8017   1.866   3.262   5.032 -1.3055  0.4840 -1.2918
   6223SM  C18F 8018   1.863   3.435   4.899 -0.0164 -0.0524 -0.2702
   6223SM  H18F 8019   1.910   3.535   4.894  2.1215 -1.0437 -2.9716
   6223SM  H18G 8020   1.754   3.436   4.922 -0.1278  0.0955 -0.7948
   6223SM  C19F 8021   1.891   3.381   4.758  0.0045  0.0541  1.1728
   6223SM  H19F 8022   1.871   3.274   4.739  0.9371  0.3103 -1.8223
   6223SM  H19G 8023   1.996   3.405   4.732  0.1598  0.8166  2.4166
   6223SM  C20F 8024   1.802   3.451   4.652 -0.2155 -0.0818  0.1911
   6223SM  H20F 8025   1.694   3.427   4.664 -0.1700 -0.4967 -0.2280
   6223SM  H20G 8026   1.845   3.410   4.558  1.8090  0.2416  0.9298
   6223SM  C21F 8027   1.811   3.606   4.663 -0.0372 -0.0188  0.0378
   6223SM  H21F 8028   1.918   3.637   4.670 -0.2092  0.6823 -0.2685
   6223SM  H21G 8029   1.758   3.647   4.752 -1.6031  0.5111 -1.0917
   6223SM  C22F 8030   1.741   3.644   4.532  0.1950 -0.1287 -0.3638
   6223SM  H22F 8031   1.636   3.609   4.524  0.3366 -0.2724 -1.7492
   6223SM  H22G 8032   1.804   3.588   4.459  1.5707 -0.5143  1.0548
   6223SM  C23F 8033   1.759   3.798   4.512 -0.1782 -0.2954 -0.1183
   6223SM  H23F 8034   1.861   3.822   4.477 -0.8983  1.8486 -0.9088
   6223SM  H23G 8035   1.737   3.856   4.604  0.2707 -0.1653 -0.0929
   6223SM  H23H 8036   1.684   3.826   4.435 -2.2560 -0.7777  1.6334
   6323SM     N 8037   5.367   7.097   8.038  0.9588  0.1809 -0.5139
   6323SM   C15 8038   5.224   7.064   7.990 -0.0036  0.0001 -0.6015
   6323SM  H15A 8039   5.181   7.143   7.931 -3.3238 -0.7655  0.5950
   6323SM  H15B 8040   5.158   7.047   8.074  0.4141  0.8076 -0.1006
   6323SM  H15C 8041   5.227   6.984   7.917  0.1835 -0.2527 -0.3242
   6323SM   C14 8042   5.355   7.207   8.138  0.1128  0.9046  0.6896
   6323SM  H14A 8043   5.451   7.234   8.179  0.5148  1.7911 -0.7364
   6323SM  H14B 8044   5.288   7.179   8.217  1.4355  0.5232  1.7114
   6323SM  H14C 8045   5.319   7.300   8.095  0.7019  0.9405  0.2679
   6323SM   C13 8046   5.418   6.977   8.098 -0.1551 -0.0894 -0.4278
   6323SM  H13A 8047   5.352   6.932   8.171 -0.5013  1.2785  0.1334
   6323SM  H13B 8048   5.513   6.988   8.147 -0.7096 -2.1328  1.2454
   6323SM  H13C 8049   5.435   6.903   8.021  1.4196  0.0354 -0.2199
   6323SM   C12 8050   5.453   7.150   7.922  0.3841 -0.3075 -0.7519
   6323SM  H12A 8051   5.550   7.172   7.963  0.3852  0.0008 -0.9166
   6323SM  H12B 8052   5.413   7.245   7.889 -0.6920 -0.2512  0.6282
   6323SM   C11 8053   5.464   7.062   7.796  0.4904 -0.6015  0.5000
   6323SM  H11A 8054   5.518   7.111   7.712 -2.1970  0.1712 -0.9174
   6323SM  H11B 8055   5.365   7.049   7.747 -0.4582 -0.1827  2.2172
   6323SM     P 8056   5.683   6.921   7.827 -0.2747 -0.0438 -0.1005
   6323SM   O13 8057   5.736   7.011   7.933 -0.0415  1.4298  0.1055
   6323SM   O14 8058   5.716   6.776   7.832 -0.0367 -0.2129  0.0052
   6323SM   O11 8059   5.720   6.980   7.679 -0.4359  0.0813 -0.3903
   6323SM   O12 8060   5.523   6.937   7.840 -0.2915 -0.1863 -0.0858
   6323SM   C1S 8061   5.689   6.900   7.563 -0.1730  0.0655  0.1586
   6323SM   H1S 8062   5.584   6.866   7.571 -0.3649  0.3618 -0.9478
   6323SM   H1T 8063   5.758   6.813   7.554 -0.5623 -0.4115  1.5081
   6323SM    NF 8064   5.682   6.888   7.319 -0.1664  0.3983  0.1184
   6323SM   HNF 8065   5.770   6.852   7.289 -0.9182 -2.2499  0.8232
   6323SM   C2S 8066   5.694   6.979   7.426 -0.2881 -0.2502 -0.9207
   6323SM   H2S 8067   5.609   7.049   7.414 -1.1408 -1.3639 -1.5152
   6323SM   C3S 8068   5.821   7.065   7.408  0.7346 -0.1627 -0.3103
   6323SM   H3S 8069   5.910   7.000   7.421 -0.3188 -1.4841  0.7288
   6323SM    O3 8070   5.842   7.165   7.512  0.3397 -0.0114  0.0935
   6323SM   HO3 8071   5.781   7.127   7.575 -2.1269 -0.9344 -2.6367
   6323SM   C4S 8072   5.821   7.133   7.272 -0.5212 -0.1258  0.0109
   6323SM   H4S 8073   5.730   7.194   7.266 -0.1574  0.4667  0.4170
   6323SM   C5S 8074   5.922   7.124   7.174  0.2643 -0.1346  0.1319
   6323SM   H5S 8075   6.009   7.059   7.190  0.2122 -0.3736 -0.5264
   6323SM   C6S 8076   5.922   7.189   7.041 -0.3393 -0.3133  0.3342
   6323SM   H6S 8077   5.822   7.203   6.995 -0.1578  3.0424  0.6993
   6323SM   H6T 8078   5.977   7.126   6.968 -1.7668 -0.4916 -0.6177
   6323SM   C7S 8079   6.001   7.325   7.045  0.4001  0.3635  0.0483
   6323SM   H7S 8080   6.100   7.299   7.090  0.0523  0.0929  0.6645
   6323SM   H7T 8081   5.951   7.396   7.114 -0.4126  0.1353 -0.2935
   6323SM   C8S 8082   6.026   7.396   6.915 -0.0121 -0.2557  0.3482
   6323SM   H8S 8083   6.072   7.496   6.930  2.5275 -1.4871  1.2697
   6323SM   H8T 8084   5.934   7.412   6.855  0.9280  2.5516 -0.5133
   6323SM   C9S 8085   6.119   7.318   6.817 -0.2011  0.2163 -0.4184
   6323SM   H9S 8086   6.070   7.219   6.806 -1.3477  0.5176  1.5276
   6323SM   H9T 8087   6.213   7.289   6.869 -0.7592  1.7030  1.5740
   6323SM  C10S 8088   6.159   7.398   6.698  0.0850  0.7733  0.6545
   6323SM  H10S 8089   6.209   7.489   6.737 -1.0259  0.8750  1.8777
   6323SM  H10T 8090   6.073   7.440   6.642 -0.8050  0.2589  1.6200
   6323SM  C11S 8091   6.251   7.328   6.608  0.0280 -0.0131 -0.0729
   6323SM  H11S 8092   6.206   7.234   6.568 -0.8556  0.9237 -1.3718
   6323SM  H11T 8093   6.329   7.285   6.674 -2.0882 -1.0865  1.8488
   6323SM  C12S 8094   6.306   7.398   6.480  1.1626 -0.4875 -0.5664
   6323SM  H12S 8095   6.379   7.475   6.512  0.4816  0.6677 -1.6839
   6323SM  H12T 8096   6.222   7.455   6.436  2.0501  0.3835 -1.1919
   6323SM  C13S 8097   6.357   7.296   6.370 -0.2987  0.6254 -0.2869
   6323SM  H13S 8098   6.270   7.230   6.352 -0.0496  0.7346 -2.0376
   6323SM  H13T 8099   6.448   7.244   6.407 -0.0973  0.4215 -1.0466
   6323SM  C14S 8100   6.392   7.378   6.240  0.0197  0.5441 -0.7482
   6323SM  H14S 8101   6.488   7.432   6.252 -0.0510  0.4925  0.0856
   6323SM  H14T 8102   6.307   7.450   6.242 -2.4653 -2.2349 -0.1082
   6323SM  C15S 8103   6.398   7.301   6.109 -0.2316 -0.2920 -0.5100
   6323SM  H15S 8104   6.316   7.226   6.108 -1.7432  1.3161 -0.6477
   6323SM  H15T 8105   6.494   7.246   6.120  0.7315  1.6660  1.7670
   6323SM  C16S 8106   6.395   7.389   5.979 -0.0468  0.2118  0.5520
   6323SM  H16S 8107   6.465   7.471   6.005  0.5012  0.8450 -2.5208
   6323SM  H16T 8108   6.295   7.435   5.964  1.0092  2.1010 -1.1898
   6323SM  C17S 8109   6.427   7.321   5.847 -0.5856  0.5098  0.2110
   6323SM  H17S 8110   6.534   7.293   5.852 -1.0894 -1.3255  1.3353
   6323SM  H17T 8111   6.425   7.408   5.778  0.7288  0.6708  0.3479
   6323SM  C18S 8112   6.336   7.211   5.814 -0.1118  0.6808 -0.1642
   6323SM  H18S 8113   6.232   7.248   5.818 -0.4199 -0.0458 -0.9924
   6323SM  H18T 8114   6.341   7.131   5.891 -1.2874  0.4705 -0.2910
   6323SM  H18U 8115   6.355   7.186   5.708  2.5804  1.4887  0.0518
   6323SM   C1F 8116   5.573   6.816   7.299  0.2841  0.3649 -0.9558
   6323SM    OF 8117   5.475   6.838   7.360  0.1686  0.3030 -0.0948
   6323SM   C2F 8118   5.595   6.690   7.212 -0.6847  0.2578 -0.3519
   6323SM   H2F 8119   5.644   6.618   7.281 -2.6355  0.5806  1.4832
   6323SM   H2G 8120   5.660   6.718   7.126 -1.3647 -1.5589 -1.5261
   6323SM   C3F 8121   5.463   6.623   7.165 -0.0188 -0.8068  0.3725
   6323SM   H3F 8122   5.404   6.694   7.102 -1.8562 -0.0738  2.7752
   6323SM   H3G 8123   5.390   6.589   7.241 -0.4366 -0.0978  0.3003
   6323SM   C4F 8124   5.496   6.490   7.085  0.3606  0.2379 -0.2510
   6323SM   H4F 8125   5.570   6.431   7.143  1.2668  0.7687 -0.8394
   6323SM   H4G 8126   5.550   6.497   6.988  0.1020 -0.1520 -0.4251
   6323SM   C5F 8127   5.375   6.397   7.050  0.3513  0.4462  0.0392
   6323SM   H5F 8128   5.322   6.436   6.961  1.9113 -2.4648 -2.3486
   6323SM   H5G 8129   5.313   6.378   7.140  2.3741  0.5705  1.5396
   6323SM   C6F 8130   5.422   6.253   7.013 -0.3223  1.3866  0.2043
   6323SM   H6F 8131   5.335   6.196   6.973  1.1863 -1.4627  0.7984
   6323SM   H6G 8132   5.451   6.204   7.108  0.6298  0.6410 -0.4558
   6323SM   C7F 8133   5.537   6.237   6.910  0.6533 -0.7828  0.0238
   6323SM   H7F 8134   5.559   6.129   6.899  0.8351 -0.7620  0.1757
   6323SM   H7G 8135   5.628   6.279   6.957 -1.2417 -0.4004  3.7492
   6323SM   C8F 8136   5.510   6.305   6.772  0.4751  0.5326 -0.0331
   6323SM   H8F 8137   5.593   6.301   6.698  1.3441  1.4293  0.8593
   6323SM   H8G 8138   5.498   6.414   6.787  0.3863  0.9100 -2.3587
   6323SM   C9F 8139   5.382   6.258   6.705  0.0441  0.4690  0.0152
   6323SM   H9F 8140   5.297   6.257   6.776 -0.4949 -0.2048 -0.6187
   6323SM   H9G 8141   5.401   6.152   6.676 -0.7076  0.4453 -0.4138
   6323SM  C10F 8142   5.354   6.345   6.579  0.0276  0.9632 -0.3724
   6323SM  H10F 8143   5.436   6.417   6.560  0.3280  1.4734  2.3982
   6323SM  H10G 8144   5.265   6.400   6.616  1.2415  0.5869  3.6317
   6323SM  C11F 8145   5.336   6.263   6.456 -0.2898  0.3012 -0.7311
   6323SM  H11F 8146   5.235   6.217   6.467 -1.7179  3.6358  2.0162
   6323SM  H11G 8147   5.420   6.195   6.432 -0.7804  0.1612 -2.0946
   6323SM  C12F 8148   5.315   6.351   6.330 -0.2208 -0.6685 -0.0178
   6323SM  H12F 8149   5.409   6.407   6.311  0.1988 -0.6493  1.9459
   6323SM  H12G 8150   5.235   6.422   6.358 -1.7292 -1.1741 -2.6511
   6323SM  C13F 8151   5.266   6.274   6.210 -0.5405 -0.2631 -0.2296
   6323SM  H13F 8152   5.157   6.293   6.200 -0.3807  0.9831  0.1849
   6323SM  H13G 8153   5.283   6.166   6.226  0.8336 -0.3119 -1.7564
   6323SM  C14F 8154   5.341   6.309   6.081  0.6032  0.0698  0.6085
   6323SM  H14F 8155   5.446   6.284   6.107  1.9979  2.5955 -1.9561
   6323SM  H14G 8156   5.340   6.419   6.066 -0.1795 -0.0477 -0.2738
   6323SM  C15F 8157   5.281   6.247   5.962 -0.1421  0.9493  0.2480
   6323SM  H15F 8158   5.189   6.298   5.928  0.1392  0.9207 -0.5743
   6323SM  H15G 8159   5.254   6.140   5.976 -0.5271  1.0526  0.2957
   6323SM  C16F 8160   5.382   6.260   5.837 -0.3999  0.3710 -0.4092
   6323SM  H16F 8161   5.479   6.223   5.875 -1.1487  0.5945  1.8616
   6323SM  H16G 8162   5.383   6.366   5.805  1.5655 -0.1002 -2.1489
   6323SM  C17F 8163   5.341   6.179   5.716  0.1076 -0.1733  0.3669
   6323SM  H17F 8164   5.262   6.103   5.739 -0.4259  0.0784 -0.5931
   6323SM  H17G 8165   5.425   6.119   5.674 -0.5154 -1.3572  0.7598
   6323SM  C18F 8166   5.285   6.282   5.609  0.1058 -0.3881 -0.3126
   6323SM  H18F 8167   5.363   6.359   5.586 -1.7845  1.8894  0.4526
   6323SM  H18G 8168   5.201   6.331   5.663  0.7246 -0.9514  1.2212
   6323SM  C19F 8169   5.230   6.223   5.475 -0.1011 -0.4808 -0.2230
   6323SM  H19F 8170   5.147   6.152   5.495 -2.0204  1.7173 -0.0479
   6323SM  H19G 8171   5.313   6.164   5.430  0.5591 -0.1729  0.5550
   6323SM  C20F 8172   5.179   6.325   5.371  0.0217  0.1958  1.1010
   6323SM  H20F 8173   5.161   6.266   5.279 -1.5471 -0.5510  1.8512
   6323SM  H20G 8174   5.268   6.385   5.340 -0.5765  0.3687 -0.3620
   6323SM  C21F 8175   5.064   6.415   5.424  0.3524  0.1574  0.0154
   6323SM  H21F 8176   5.095   6.462   5.520 -1.7432  2.5511 -0.3967
   6323SM  H21G 8177   4.994   6.335   5.457  0.7568  0.3084  1.3045
   6323SM  C22F 8178   5.001   6.520   5.330 -0.2819 -0.0346 -0.0824
   6323SM  H22F 8179   5.074   6.602   5.312 -0.2842 -0.2464 -1.1248
   6323SM  H22G 8180   4.918   6.563   5.389 -1.2931  0.8548 -2.0397
   6323SM  C23F 8181   4.949   6.471   5.195 -0.2193  0.6545  1.1227
   6323SM  H23F 8182   4.876   6.549   5.165  0.3383  1.0462  0.7574
   6323SM  H23G 8183   4.901   6.371   5.201  0.3771  0.1164 -1.6872
   6323SM  H23H 8184   5.025   6.462   5.114 -1.5573  0.3995 -0.1392
   6423SM     N 8185   2.949   3.528   7.173  0.5783  0.5604 -0.3438
   6423SM   C15 8186   2.857   3.438   7.091  0.9218  0.1619 -0.4576
   6423SM  H15A 8187   2.863   3.336   7.125  0.3960  0.2183 -0.1848
   6423SM  H15B 8188   2.873   3.443   6.984 -2.1363 -0.2384 -1.0262
   6423SM  H15C 8189   2.757   3.477   7.107  1.1709  1.1849 -1.2552
   6423SM   C14 8190   2.914   3.671   7.147  0.2523  0.2308 -0.0508
   6423SM  H14A 8191   2.924   3.697   7.042 -0.0883 -0.9890 -0.3974
   6423SM  H14B 8192   2.983   3.738   7.197  0.0711  0.7412 -0.4668
   6423SM  H14C 8193   2.813   3.698   7.174 -0.8640 -1.0886 -2.5582
   6423SM   C13 8194   2.918   3.506   7.318  0.1595  0.7850 -0.4211
   6423SM  H13A 8195   2.928   3.599   7.372  0.5160 -0.4201  1.6952
   6423SM  H13B 8196   2.986   3.432   7.357  0.1767  0.5613 -0.8706
   6423SM  H13C 8197   2.822   3.461   7.340  0.8810 -0.7290 -0.2233
   6423SM   C12 8198   3.089   3.494   7.141 -1.1537  0.6584  0.2695
   6423SM  H12A 8199   3.101   3.505   7.035  0.6671 -0.8725  0.2653
   6423SM  H12B 8200   3.113   3.393   7.171  0.7397  1.1395  0.4859
   6423SM   C11 8201   3.207   3.574   7.204  0.3435 -0.2680 -0.1896
   6423SM  H11A 8202   3.196   3.680   7.171 -0.1182  0.6873  2.7610
   6423SM  H11B 8203   3.304   3.532   7.168 -1.0629 -3.7846 -0.2242
   6423SM     P 8204   3.321   3.516   7.433  0.2584  0.2661  0.1479
   6423SM   O13 8205   3.314   3.574   7.567 -0.2070  0.0065  0.1514
   6423SM   O14 8206   3.294   3.369   7.428  0.2543 -0.1182  0.4755
   6423SM   O11 8207   3.451   3.545   7.354 -0.0317  0.0048  0.3165
   6423SM   O12 8208   3.211   3.576   7.347  0.6136  0.1002  0.4358
   6423SM   C1S 8209   3.519   3.445   7.279 -0.3114 -0.1800  1.2299
   6423SM   H1S 8210   3.452   3.366   7.237 -1.8695  1.6391  0.1519
   6423SM   H1T 8211   3.599   3.390   7.334  1.3565  1.4645  0.5387
   6423SM    NF 8212   3.650   3.421   7.072  0.1176  0.2714 -0.6866
   6423SM   HNF 8213   3.747   3.403   7.085 -0.5580 -2.6884  1.1170
   6423SM   C2S 8214   3.594   3.521   7.167 -0.7565  0.2431  0.5415
   6423SM   H2S 8215   3.535   3.590   7.103  0.8278  0.7593 -0.4040
   6423SM   C3S 8216   3.708   3.613   7.230 -0.1498  0.5740 -0.0116
   6423SM   H3S 8217   3.770   3.539   7.285 -0.4492 -1.8144 -2.6316
   6423SM    O3 8218   3.653   3.707   7.312 -0.0245 -0.1875 -0.3477
   6423SM   HO3 8219   3.560   3.704   7.289  0.3280  0.0287 -1.9300
   6423SM   C4S 8220   3.790   3.683   7.121 -0.2416  0.5130  0.0250
   6423SM   H4S 8221   3.726   3.758   7.071  0.4426  1.0279 -0.0892
   6423SM   C5S 8222   3.915   3.667   7.077  0.5216 -0.3520  0.1318
   6423SM   H5S 8223   3.974   3.587   7.124  0.3315 -1.4085 -1.3583
   6423SM   C6S 8224   3.977   3.750   6.962  0.6772 -0.4259 -0.7506
   6423SM   H6S 8225   4.077   3.786   6.996  0.1537  1.2225 -0.8625
   6423SM   H6T 8226   3.912   3.838   6.942 -0.4078 -1.0179  0.0859
   6423SM   C7S 8227   4.009   3.670   6.832  0.8937 -1.2438 -0.3010
   6423SM   H7S 8228   3.915   3.654   6.775 -0.1252  0.4704  0.8105
   6423SM   H7T 8229   4.048   3.569   6.857 -0.0287 -1.8027 -1.0632
   6423SM   C8S 8230   4.106   3.746   6.739 -0.1051  0.2216  0.2375
   6423SM   H8S 8231   4.205   3.763   6.786 -0.3890 -0.3825  1.0951
   6423SM   H8T 8232   4.058   3.846   6.735 -0.4885 -0.0122 -1.5825
   6423SM   C9S 8233   4.116   3.683   6.606 -0.1213  0.0263 -0.0459
   6423SM   H9S 8234   4.018   3.668   6.558 -0.8302  0.1345  1.3221
   6423SM   H9T 8235   4.160   3.584   6.634  2.6091  1.9603  3.2499
   6423SM  C10S 8236   4.230   3.742   6.526  0.1119  0.0512 -0.0008
   6423SM  H10S 8237   4.325   3.730   6.581  0.7357 -1.4143 -1.3281
   6423SM  H10T 8238   4.202   3.850   6.518  3.9951  1.2464  0.1806
   6423SM  C11S 8239   4.233   3.692   6.376  0.5258 -0.3638 -0.2187
   6423SM  H11S 8240   4.131   3.689   6.333 -0.3357  0.5732  1.6734
   6423SM  H11T 8241   4.277   3.590   6.384  0.2278 -0.4515  0.2877
   6423SM  C12S 8242   4.320   3.777   6.287 -0.5688 -0.8813  0.0860
   6423SM  H12S 8243   4.423   3.770   6.326 -0.2019 -1.8912 -0.9804
   6423SM  H12T 8244   4.285   3.882   6.291 -0.6882 -0.9366  0.5845
   6423SM  C13S 8245   4.318   3.729   6.137  0.0144 -0.5046 -0.7090
   6423SM  H13S 8246   4.352   3.623   6.137 -2.7017 -1.6555  4.0674
   6423SM  H13T 8247   4.393   3.781   6.074  0.1386 -0.4148 -0.4868
   6423SM  C14S 8248   4.183   3.730   6.066 -0.4475 -0.0606  0.4054
   6423SM  H14S 8249   4.142   3.833   6.073 -1.0313 -0.1688 -1.0372
   6423SM  H14T 8250   4.112   3.667   6.125 -0.0721  1.1908  2.2818
   6423SM  C15S 8251   4.178   3.698   5.917  0.1574  0.4318 -0.0685
   6423SM  H15S 8252   4.103   3.620   5.894  2.3427 -1.3665 -1.5119
   6423SM  H15T 8253   4.263   3.635   5.883  0.1548 -0.7622  1.9906
   6423SM  C16S 8254   4.170   3.820   5.824 -0.2366 -0.0359  0.5986
   6423SM  H16S 8255   4.246   3.901   5.834  0.6867 -0.4625 -2.2251
   6423SM  H16T 8256   4.077   3.869   5.860 -1.1954 -1.5880  0.2929
   6423SM  C17S 8257   4.174   3.787   5.673 -0.0421  0.8610 -0.5548
   6423SM  H17S 8258   4.128   3.687   5.657  0.9972  0.3614 -0.5126
   6423SM  H17T 8259   4.281   3.764   5.654 -0.1107  0.7559 -0.8129
   6423SM  C18S 8260   4.126   3.884   5.568 -0.1959 -0.0966 -0.2423
   6423SM  H18S 8261   4.127   3.838   5.467  2.0097  0.9104 -0.7505
   6423SM  H18T 8262   4.190   3.975   5.563 -0.2201 -0.1533 -2.8827
   6423SM  H18U 8263   4.021   3.914   5.587  0.3702  0.5349  2.4088
   6423SM   C1F 8264   3.582   3.343   6.992 -0.0307  0.7955 -0.4164
   6423SM    OF 8265   3.463   3.365   6.970  0.6850  0.2767 -0.3385
   6423SM   C2F 8266   3.662   3.224   6.936  0.6861 -0.4894 -1.0794
   6423SM   H2F 8267   3.727   3.171   7.010  1.2447  0.7423 -0.6616
   6423SM   H2G 8268   3.739   3.266   6.868  0.2565 -1.0188 -1.9057
   6423SM   C3F 8269   3.565   3.129   6.862  0.6220 -0.1930 -0.3153
   6423SM   H3F 8270   3.498   3.182   6.791  1.9557 -1.0790 -2.3216
   6423SM   H3G 8271   3.510   3.078   6.944  0.8442  0.5637  0.3215
   6423SM   C4F 8272   3.636   3.035   6.778  0.6830  0.1570  0.2869
   6423SM   H4F 8273   3.575   2.942   6.767 -0.6101  0.6878  2.4452
   6423SM   H4G 8274   3.720   2.991   6.836  0.1303  0.2103  1.1361
   6423SM   C5F 8275   3.688   3.076   6.641  0.0953  0.4343  0.2366
   6423SM   H5F 8276   3.742   3.172   6.656 -0.6400  0.9805 -0.4698
   6423SM   H5G 8277   3.596   3.109   6.587 -0.2164  1.6449  1.4398
   6423SM   C6F 8278   3.782   2.973   6.573 -0.0892 -0.2635 -0.2361
   6423SM   H6F 8279   3.719   2.883   6.554 -0.8271  0.4129 -1.1338
   6423SM   H6G 8280   3.866   2.946   6.640 -1.1804  2.0644  2.2144
   6423SM   C7F 8281   3.833   3.018   6.441 -0.1802 -0.3084  0.0535
   6423SM   H7F 8282   3.904   2.942   6.402 -0.8472 -0.1901 -1.4617
   6423SM   H7G 8283   3.879   3.118   6.458  2.5558 -1.7501  1.8211
   6423SM   C8F 8284   3.728   3.039   6.328  0.4170 -0.1215  0.2165
   6423SM   H8F 8285   3.654   3.118   6.354 -0.9697 -0.9477 -1.1144
   6423SM   H8G 8286   3.670   2.945   6.336 -1.1182  0.8085  0.5025
   6423SM   C9F 8287   3.793   3.056   6.188 -0.1686 -0.5311  0.3772
   6423SM   H9F 8288   3.860   2.967   6.177  1.2477  0.3935  1.2119
   6423SM   H9G 8289   3.857   3.146   6.178  2.0142 -2.0062  0.3705
   6423SM  C10F 8290   3.690   3.069   6.083 -0.5994 -0.1419  0.5190
   6423SM  H10F 8291   3.637   3.161   6.118  0.9297  0.6713  0.7780
   6423SM  H10G 8292   3.616   2.986   6.090 -0.7763 -0.1284 -0.9768
   6423SM  C11F 8293   3.742   3.071   5.938  0.1048  0.4605 -0.2139
   6423SM  H11F 8294   3.795   2.973   5.929  0.3522  0.4269  1.3802
   6423SM  H11G 8295   3.807   3.158   5.919  1.0153  0.0057  0.7054
   6423SM  C12F 8296   3.631   3.076   5.836 -0.5990  0.2126  0.2136
   6423SM  H12F 8297   3.557   3.154   5.864 -1.2520 -0.3261  0.0331
   6423SM  H12G 8298   3.579   2.978   5.823  0.9014 -0.4217 -1.3304
   6423SM  C13F 8299   3.692   3.104   5.694 -0.2007  0.5034 -0.2141
   6423SM  H13F 8300   3.754   3.015   5.670  0.0956  0.8239 -0.6624
   6423SM  H13G 8301   3.756   3.195   5.689 -1.0917  1.0891 -1.2506
   6423SM  C14F 8302   3.586   3.124   5.583 -0.3169  0.0452  0.3687
   6423SM  H14F 8303   3.550   3.229   5.594 -2.2257 -0.3950 -0.9976
   6423SM  H14G 8304   3.496   3.061   5.601  0.7987 -1.2986  1.3952
   6423SM  C15F 8305   3.628   3.099   5.438  0.4704  0.4002  0.0409
   6423SM  H15F 8306   3.540   3.134   5.379 -0.6873 -1.5683  0.4909
   6423SM  H15G 8307   3.617   2.988   5.439 -0.0245  0.3926 -2.1439
   6423SM  C16F 8308   3.761   3.148   5.402  0.0459 -0.2405 -0.0147
   6423SM  H16F 8309   3.835   3.134   5.484 -0.7030 -0.8054  0.5842
   6423SM  H16G 8310   3.748   3.258   5.390 -4.0021 -0.3371  1.9060
   6423SM  C17F 8311   3.823   3.083   5.272 -0.1830  0.2644 -0.0909
   6423SM  H17F 8312   3.854   2.982   5.306  1.2660  0.4220 -0.8415
   6423SM  H17G 8313   3.923   3.124   5.245 -1.0285  1.3490 -1.7724
   6423SM  C18F 8314   3.720   3.054   5.157  0.0987 -0.1885  0.1076
   6423SM  H18F 8315   3.700   3.151   5.109  0.3963 -0.0976  0.1645
   6423SM  H18G 8316   3.629   3.002   5.195  1.6689 -3.1947  0.0867
   6423SM  C19F 8317   3.761   2.958   5.045  0.9694 -0.2247  0.7946
   6423SM  H19F 8318   3.793   2.866   5.099  1.0849  0.9794  2.8956
   6423SM  H19G 8319   3.845   3.007   4.992 -1.7468  2.6596 -1.2013
   6423SM  C20F 8320   3.646   2.948   4.937 -0.1677  0.1859 -0.2093
   6423SM  H20F 8321   3.547   2.922   4.982 -1.0601 -1.0728 -2.7237
   6423SM  H20G 8322   3.656   2.855   4.876  1.1768  0.4193 -0.3666
   6423SM  C21F 8323   3.627   3.064   4.840 -0.0412 -0.0539  0.2911
   6423SM  H21F 8324   3.714   3.060   4.771  0.1070 -0.3671  0.4941
   6423SM  H21G 8325   3.631   3.158   4.899 -1.3509 -0.8451  1.7183
   6423SM  C22F 8326   3.496   3.084   4.750  0.6658  0.0430  0.1544
   6423SM  H22F 8327   3.512   3.181   4.698 -2.2993  0.8583  0.5392
   6423SM  H22G 8328   3.408   3.092   4.818  0.6457 -2.2953  0.4912
   6423SM  C23F 8329   3.469   2.974   4.646 -0.1988  0.5455  0.6479
   6423SM  H23F 8330   3.364   2.994   4.614 -0.2908  1.3329  1.4145
   6423SM  H23G 8331   3.475   2.870   4.682 -0.5812  0.1670 -0.3444
   6423SM  H23H 8332   3.538   2.993   4.560 -0.7117 -0.7346 -0.0793
   6523SM     N 8333   4.112   4.850   7.711  0.0122 -0.2608 -0.4007
   6523SM   C15 8334   4.117   4.849   7.859 -0.7222  0.0479 -0.1832
   6523SM  H15A 8335   4.188   4.921   7.896  0.5717 -0.0006 -2.3873
   6523SM  H15B 8336   4.138   4.755   7.907  1.0585  0.5022  0.0143
   6523SM  H15C 8337   4.019   4.888   7.885  0.0791  0.9223  1.7488
   6523SM   C14 8338   3.995   4.770   7.672 -0.0528  0.0611 -0.2296
   6523SM  H14A 8339   3.979   4.769   7.565  1.6588 -0.1909 -0.5084
   6523SM  H14B 8340   3.907   4.803   7.726 -0.6712 -1.3184 -0.3515
   6523SM  H14C 8341   4.006   4.670   7.712  1.2223 -0.1478 -1.0381
   6523SM   C13 8342   4.086   4.992   7.667 -0.2673  0.5942  0.3393
   6523SM  H13A 8343   4.167   5.049   7.710  0.9175 -0.8552  0.1366
   6523SM  H13B 8344   3.985   5.021   7.693 -0.0811 -0.6402  2.7750
   6523SM  H13C 8345   4.095   5.000   7.560 -0.1226  1.3381  0.4031
   6523SM   C12 8346   4.246   4.802   7.660  0.3663  0.3932 -0.3677
   6523SM  H12A 8347   4.256   4.698   7.689 -1.4333  0.8012  2.0793
   6523SM  H12B 8348   4.323   4.870   7.695  1.6755 -1.1107 -0.1869
   6523SM   C11 8349   4.262   4.810   7.500 -0.5190  0.1184  0.1384
   6523SM  H11A 8350   4.189   4.741   7.453 -0.5417  0.1704  0.0972
   6523SM  H11B 8351   4.362   4.768   7.476 -1.0105 -0.4943 -0.8750
   6523SM     P 8352   4.371   5.037   7.437 -0.4285  0.5322  0.0548
   6523SM   O13 8353   4.333   5.178   7.424  0.4743  0.1322 -0.5982
   6523SM   O14 8354   4.465   4.999   7.547  0.2623 -0.1575  0.8362
   6523SM   O11 8355   4.430   4.980   7.300  0.3929  0.3160 -0.1040
   6523SM   O12 8356   4.246   4.942   7.447 -0.0247  0.2896 -0.2646
   6523SM   C1S 8357   4.413   5.060   7.183  0.6488 -0.2095  0.3298
   6523SM   H1S 8358   4.505   5.120   7.170 -0.2946  0.8916 -1.7301
   6523SM   H1T 8359   4.327   5.130   7.186 -0.8028 -1.9317  1.5045
   6523SM    NF 8360   4.475   5.030   6.948  0.4420 -0.0444 -0.1058
   6523SM   HNF 8361   4.425   5.096   6.892  2.9354  2.0397 -0.0861
   6523SM   C2S 8362   4.402   4.970   7.060  0.4451 -0.6610  0.6803
   6523SM   H2S 8363   4.454   4.876   7.086  1.7777 -0.1002  0.1360
   6523SM   C3S 8364   4.256   4.938   7.026 -0.4310 -0.0591  0.0568
   6523SM   H3S 8365   4.217   5.033   6.984 -2.4665 -0.9052 -0.0927
   6523SM    O3 8366   4.180   4.890   7.139  0.1643  0.4450  1.1391
   6523SM   HO3 8367   4.238   4.883   7.216 -0.6067  0.1345  1.7121
   6523SM   C4S 8368   4.246   4.833   6.918 -0.3434 -0.3489 -0.0408
   6523SM   H4S 8369   4.297   4.737   6.935 -0.8221 -0.3233  1.8084
   6523SM   C5S 8370   4.196   4.849   6.795  0.4929 -0.4546 -0.0069
   6523SM   H5S 8371   4.153   4.950   6.781 -1.6182 -0.9322  2.2188
   6523SM   C6S 8372   4.188   4.748   6.681 -0.0843 -0.1533  0.2539
   6523SM   H6S 8373   4.159   4.646   6.716  0.0853 -0.4050 -0.3328
   6523SM   H6T 8374   4.291   4.742   6.642 -0.1340  0.5754  0.0010
   6523SM   C7S 8375   4.106   4.796   6.560 -0.3576 -0.4009 -0.2316
   6523SM   H7S 8376   4.002   4.827   6.585  0.8578  3.1111  1.1017
   6523SM   H7T 8377   4.102   4.713   6.486 -1.3415  1.6582 -2.6113
   6523SM   C8S 8378   4.180   4.907   6.480  0.1651 -0.6342  0.1904
   6523SM   H8S 8379   4.288   4.882   6.477  0.5324  0.7299  1.3344
   6523SM   H8T 8380   4.174   5.007   6.528 -2.4350  0.5291 -2.2654
   6523SM   C9S 8381   4.119   4.918   6.331 -0.0053  0.4443 -0.4589
   6523SM   H9S 8382   4.012   4.946   6.324  0.8099  4.0026 -0.2427
   6523SM   H9T 8383   4.141   4.822   6.279 -2.8625 -0.0042 -1.0517
   6523SM  C10S 8384   4.194   5.024   6.257 -0.4266 -0.1505  0.3794
   6523SM  H10S 8385   4.300   4.994   6.269 -0.6911 -0.8008  1.2212
   6523SM  H10T 8386   4.175   5.123   6.305  0.8173  0.9799 -1.3728
   6523SM  C11S 8387   4.151   5.054   6.110  0.2159  1.1283 -0.1863
   6523SM  H11S 8388   4.201   5.148   6.079  1.6061  0.0597 -1.3612
   6523SM  H11T 8389   4.041   5.067   6.121 -0.4923 -2.4895 -1.2653
   6523SM  C12S 8390   4.195   4.934   6.028  0.4521  0.1086 -0.0923
   6523SM  H12S 8391   4.195   4.835   6.078  0.8331  0.2827  0.2494
   6523SM  H12T 8392   4.299   4.951   5.992  0.3608 -0.5585 -0.6943
   6523SM  C13S 8393   4.103   4.915   5.904 -0.6702  0.0338 -0.6331
   6523SM  H13S 8394   3.999   4.899   5.939  0.2067  0.6850  2.6018
   6523SM  H13T 8395   4.134   4.818   5.858 -1.0178 -0.9058  1.0418
   6523SM  C14S 8396   4.101   5.025   5.792 -0.8177 -0.7275  0.2390
   6523SM  H14S 8397   4.205   5.042   5.758 -1.1602  1.5515  0.1905
   6523SM  H14T 8398   4.058   5.122   5.827 -0.7791 -0.4434 -0.4956
   6523SM  C15S 8399   4.035   4.970   5.663 -0.0158 -0.0414 -0.0999
   6523SM  H15S 8400   3.927   4.984   5.685  0.5987  1.5577  2.2934
   6523SM  H15T 8401   4.065   4.865   5.645 -0.6527 -0.1556 -0.5428
   6523SM  C16S 8402   4.071   5.052   5.543 -0.1133  0.3373  0.2800
   6523SM  H16S 8403   4.181   5.062   5.531 -0.1684  0.9916  0.3023
   6523SM  H16T 8404   4.020   5.148   5.563  0.1736  0.5582 -0.0274
   6523SM  C17S 8405   4.013   4.989   5.414  0.1534 -0.2918  0.0139
   6523SM  H17S 8406   3.905   4.966   5.428  0.2361 -1.7282 -1.3386
   6523SM  H17T 8407   4.067   4.894   5.396 -0.2209 -1.0010  2.3111
   6523SM  C18S 8408   4.030   5.083   5.293 -0.1106 -0.7449 -0.3054
   6523SM  H18S 8409   3.992   5.036   5.200  0.4345 -0.0053 -0.9040
   6523SM  H18T 8410   4.138   5.095   5.273 -0.2568  0.4237 -0.4544
   6523SM  H18U 8411   3.988   5.182   5.321 -1.6124 -1.6715  0.8949
   6523SM   C1F 8412   4.606   5.016   6.935  0.5085  0.5235 -0.6621
   6523SM    OF 8413   4.666   4.927   6.998  0.1422  0.2213 -0.1564
   6523SM   C2F 8414   4.676   5.113   6.853  0.0248  0.5590  0.5463
   6523SM   H2F 8415   4.731   5.176   6.926 -0.7697  0.5771  1.1424
   6523SM   H2G 8416   4.607   5.180   6.797  0.3030 -1.5956 -2.6218
   6523SM   C3F 8417   4.772   5.045   6.747 -0.4527  0.6893  0.3627
   6523SM   H3F 8418   4.857   5.003   6.804  0.5942  2.9273  0.5214
   6523SM   H3G 8419   4.818   5.124   6.684  0.2967  0.7613  0.9864
   6523SM   C4F 8420   4.716   4.943   6.646  0.0063 -0.5267  0.2087
   6523SM   H4F 8421   4.624   4.993   6.610  0.7613  0.2245 -0.7313
   6523SM   H4G 8422   4.693   4.846   6.695  0.5854  0.0580  1.6846
   6523SM   C5F 8423   4.805   4.913   6.518 -0.2058 -0.3792  0.2459
   6523SM   H5F 8424   4.776   4.813   6.480 -0.6716 -0.0394 -0.3226
   6523SM   H5G 8425   4.914   4.907   6.540  0.0098  0.1932 -0.6036
   6523SM   C6F 8426   4.805   5.024   6.395 -0.2108  0.4558 -0.3959
   6523SM   H6F 8427   4.868   4.983   6.313  1.1447  2.4738 -0.4074
   6523SM   H6G 8428   4.839   5.124   6.429 -0.6038  0.0558  1.2923
   6523SM   C7F 8429   4.679   5.032   6.327  0.8081  0.5523 -0.2778
   6523SM   H7F 8430   4.608   5.086   6.393  1.2266 -1.1223  1.6449
   6523SM   H7G 8431   4.655   4.928   6.296 -0.6262  0.5681  0.7025
   6523SM   C8F 8432   4.691   5.119   6.200 -0.1359 -0.3198  0.5653
   6523SM   H8F 8433   4.785   5.089   6.148  0.3098 -0.6541  1.5340
   6523SM   H8G 8434   4.723   5.220   6.234 -0.4976  1.1194 -2.8754
   6523SM   C9F 8435   4.571   5.118   6.107  0.9968 -0.1940  0.2656
   6523SM   H9F 8436   4.483   5.159   6.162  1.4574  1.5045 -0.2055
   6523SM   H9G 8437   4.558   5.012   6.078 -0.4911  0.4086 -1.5050
   6523SM  C10F 8438   4.593   5.199   5.985  0.7372  0.2566  0.3885
   6523SM  H10F 8439   4.687   5.172   5.932  2.2100  2.3333  1.7668
   6523SM  H10G 8440   4.612   5.303   6.021  1.5157  0.1708  0.2378
   6523SM  C11F 8441   4.480   5.195   5.886 -1.2285  0.3590 -0.0377
   6523SM  H11F 8442   4.375   5.213   5.917 -1.6469 -0.4198 -0.9227
   6523SM  H11G 8443   4.473   5.088   5.857  0.2328  0.1187  0.4402
   6523SM  C12F 8444   4.509   5.280   5.766  0.5988  0.0477 -0.0306
   6523SM  H12F 8445   4.606   5.262   5.714  0.9164  0.2004  0.4976
   6523SM  H12G 8446   4.514   5.384   5.805 -1.4672  0.0732  0.2765
   6523SM  C13F 8447   4.415   5.262   5.643 -0.0523  0.5043  0.1342
   6523SM  H13F 8448   4.311   5.295   5.664 -1.3180 -2.2920 -1.2022
   6523SM  H13G 8449   4.398   5.154   5.630 -0.9780  0.4901  1.2525
   6523SM  C14F 8450   4.464   5.342   5.530 -0.2442  0.1234  1.0792
   6523SM  H14F 8451   4.574   5.331   5.523 -0.2229  1.0327 -0.6242
   6523SM  H14G 8452   4.444   5.451   5.537 -0.3175  0.3074 -1.2151
   6523SM  C15F 8453   4.395   5.301   5.402 -0.6327  0.6115  0.1716
   6523SM  H15F 8454   4.289   5.297   5.433 -0.2034  3.2025  2.3449
   6523SM  H15G 8455   4.425   5.199   5.367 -0.3784  1.5782 -2.6684
   6523SM  C16F 8456   4.425   5.394   5.291  0.0117  0.8413 -0.0115
   6523SM  H16F 8457   4.528   5.434   5.285  0.3418 -0.1727 -2.5334
   6523SM  H16G 8458   4.356   5.481   5.304 -2.2025 -0.1559 -3.5221
   6523SM  C17F 8459   4.397   5.334   5.157  0.0959  0.4778 -0.0744
   6523SM  H17F 8460   4.293   5.296   5.162  0.7175 -1.4169 -0.7711
   6523SM  H17G 8461   4.466   5.247   5.148  0.7142  1.0174 -0.6538
   6523SM  C18F 8462   4.413   5.439   5.048 -0.3966 -0.2912 -0.6968
   6523SM  H18F 8463   4.515   5.481   5.057 -0.0326 -1.2391 -0.1604
   6523SM  H18G 8464   4.336   5.518   5.060 -0.6400 -0.5253 -0.7002
   6523SM  C19F 8465   4.401   5.383   4.902  0.0170  0.6182  0.3779
   6523SM  H19F 8466   4.371   5.470   4.840 -1.2360 -0.0446  0.0428
   6523SM  H19G 8467   4.323   5.304   4.899  0.6890 -0.0383 -1.1413
   6523SM  C20F 8468   4.532   5.318   4.852 -0.6992  0.5620  0.0341
   6523SM  H20F 8469   4.548   5.220   4.901 -0.5969  0.2077 -0.6979
   6523SM  H20G 8470   4.613   5.391   4.873 -0.7755  1.1397 -1.5701
   6523SM  C21F 8471   4.533   5.286   4.696 -0.8485 -0.1554 -0.2588
   6523SM  H21F 8472   4.634   5.255   4.660 -0.7820 -0.6143  0.2991
   6523SM  H21G 8473   4.501   5.382   4.651 -3.1827  0.2484  2.0423
   6523SM  C22F 8474   4.424   5.196   4.637 -0.9844  0.3227  0.4767
   6523SM  H22F 8475   4.323   5.241   4.648 -1.9708 -1.7957  0.5877
   6523SM  H22G 8476   4.413   5.108   4.704  1.5797 -0.0070  0.5688
   6523SM  C23F 8477   4.443   5.146   4.492 -0.3555  0.4930 -0.0383
   6523SM  H23F 8478   4.416   5.040   4.478 -0.4905  0.6060 -0.6559
   6523SM  H23G 8479   4.547   5.144   4.452  0.7699  0.0562  2.6727
   6523SM  H23H 8480   4.375   5.208   4.429  0.9651  0.5507 -1.4739
   6623SM     N 8481   3.929   2.802   7.676  1.0153 -0.2596  0.0662
   6623SM   C15 8482   3.936   2.803   7.825 -0.5483  0.3475  1.2611
   6623SM  H15A 8483   3.890   2.889   7.870 -3.1720  2.0792 -3.9458
   6623SM  H15B 8484   4.038   2.793   7.860  0.0346 -1.6795 -0.8087
   6623SM  H15C 8485   3.895   2.708   7.856 -0.1809  0.0124  0.7215
   6623SM   C14 8486   4.008   2.920   7.618 -0.2783 -0.1407 -0.9506
   6623SM  H14A 8487   3.988   2.934   7.513  1.6236 -0.2975 -1.3752
   6623SM  H14B 8488   4.113   2.897   7.632 -0.7810 -2.0741  0.0904
   6623SM  H14C 8489   3.979   3.011   7.669 -1.9125 -0.5336 -1.1300
   6623SM   C13 8490   3.988   2.675   7.623  0.1501 -0.2367 -0.0508
   6623SM  H13A 8491   3.951   2.584   7.668 -1.7890  1.0961  1.1762
   6623SM  H13B 8492   4.095   2.679   7.641 -0.1089 -1.0869  1.8943
   6623SM  H13C 8493   3.976   2.680   7.516 -2.2107  0.7726  0.2105
   6623SM   C12 8494   3.785   2.819   7.631 -0.0926  0.2941 -0.2406
   6623SM  H12A 8495   3.751   2.918   7.660 -1.7630  0.3681 -2.2576
   6623SM  H12B 8496   3.728   2.746   7.686  2.4952 -0.1694  2.0064
   6623SM   C11 8497   3.754   2.789   7.481  0.1068 -0.2435  0.6133
   6623SM  H11A 8498   3.643   2.787   7.477  0.1346 -1.2279 -0.1242
   6623SM  H11B 8499   3.786   2.685   7.457  1.0497  0.2273 -0.2025
   6623SM     P 8500   3.754   3.009   7.357  0.4820 -0.1786 -0.4288
   6623SM   O13 8501   3.655   2.982   7.252  0.0504 -0.4483  0.2060
   6623SM   O14 8502   3.697   3.067   7.481  0.3418 -0.0271  0.3308
   6623SM   O11 8503   3.857   3.120   7.296 -0.0350 -0.0324 -0.0763
   6623SM   O12 8504   3.828   2.875   7.390 -0.4700 -0.0572 -0.0839
   6623SM   C1S 8505   3.985   3.068   7.263  0.0838 -0.0615 -0.1584
   6623SM   H1S 8506   4.003   2.959   7.269 -2.3023 -0.6275 -1.7633
   6623SM   H1T 8507   4.062   3.123   7.321 -2.1871  1.2898  1.7685
   6623SM    NF 8508   4.125   3.017   7.061  0.1372  0.3664  0.3110
   6623SM   HNF 8509   4.216   3.058   7.061  0.4180 -0.1165 -1.8068
   6623SM   C2S 8510   4.012   3.095   7.117 -0.0712 -1.0736  0.9458
   6623SM   H2S 8511   3.928   3.066   7.051  0.5098 -1.4690  0.3598
   6623SM   C3S 8512   4.038   3.247   7.075  0.0649  0.2542  0.5232
   6623SM   H3S 8513   4.128   3.277   7.132  0.6938  0.3557 -0.4974
   6623SM    O3 8514   3.933   3.335   7.121 -0.2442  0.4960  0.0526
   6623SM   HO3 8515   3.886   3.290   7.191 -1.4396  0.6920 -0.5933
   6623SM   C4S 8516   4.056   3.266   6.926  0.1463  0.1733  0.4839
   6623SM   H4S 8517   3.972   3.229   6.864 -0.0078  0.9872  0.1880
   6623SM   C5S 8518   4.169   3.302   6.862 -0.3506  0.3587  0.9005
   6623SM   H5S 8519   4.264   3.330   6.910  0.1726 -1.9371  1.3377
   6623SM   C6S 8520   4.175   3.313   6.703  0.0801 -0.0448  0.3018
   6623SM   H6S 8521   4.227   3.233   6.647 -1.6433 -0.6582 -0.5164
   6623SM   H6T 8522   4.228   3.409   6.683  0.8856 -0.4868  0.2982
   6623SM   C7S 8523   4.036   3.325   6.629 -0.2709  0.7619  0.5066
   6623SM   H7S 8524   3.969   3.408   6.659  0.3187  0.6597  2.2197
   6623SM   H7T 8525   3.981   3.230   6.647 -0.3456  0.9175  1.1296
   6623SM   C8S 8526   4.051   3.352   6.475  0.9713 -0.6589 -0.7282
   6623SM   H8S 8527   4.102   3.265   6.429  1.6803 -1.0342  0.7350
   6623SM   H8T 8528   4.115   3.442   6.470  2.2873 -1.3677  1.7636
   6623SM   C9S 8529   3.923   3.398   6.397 -0.7613  0.0224 -0.1619
   6623SM   H9S 8530   3.876   3.487   6.443 -1.0942 -0.8079  1.1589
   6623SM   H9T 8531   3.843   3.325   6.421 -0.8665  0.1647 -0.0863
   6623SM  C10S 8532   3.939   3.412   6.242 -0.3659  0.0975 -0.2516
   6623SM  H10S 8533   3.975   3.312   6.211  0.2760  0.7421 -1.6478
   6623SM  H10T 8534   4.016   3.487   6.214 -1.0586  0.2937 -1.7071
   6623SM  C11S 8535   3.815   3.450   6.158 -0.1891  0.9124 -1.0273
   6623SM  H11S 8536   3.745   3.500   6.228  0.0519  1.7969 -1.4024
   6623SM  H11T 8537   3.774   3.354   6.120  1.0961 -0.1839  0.2365
   6623SM  C12S 8538   3.851   3.540   6.044 -0.0713 -0.1127 -0.1200
   6623SM  H12S 8539   3.924   3.489   5.977  0.8105  0.6621  0.2201
   6623SM  H12T 8540   3.896   3.636   6.078 -0.6111  0.4564 -0.9753
   6623SM  C13S 8541   3.732   3.571   5.955 -0.0548  0.6647 -0.2176
   6623SM  H13S 8542   3.672   3.642   6.015 -2.8074 -1.4872 -0.2359
   6623SM  H13T 8543   3.669   3.484   5.928  0.6799 -0.0722  0.3640
   6623SM  C14S 8544   3.777   3.630   5.821 -0.3541 -0.7066 -0.3473
   6623SM  H14S 8545   3.851   3.563   5.773  1.5988  2.6080 -2.2728
   6623SM  H14T 8546   3.834   3.722   5.844  0.0540 -0.9591 -0.3359
   6623SM  C15S 8547   3.661   3.665   5.723 -0.4412  0.2003 -0.3370
   6623SM  H15S 8548   3.585   3.720   5.781 -0.2200 -0.2404  0.3892
   6623SM  H15T 8549   3.604   3.573   5.697 -2.1938  1.0318  0.4035
   6623SM  C16S 8550   3.703   3.755   5.602  0.2940 -0.0578  0.4754
   6623SM  H16S 8551   3.741   3.850   5.646  1.8396 -0.2002 -0.4729
   6623SM  H16T 8552   3.613   3.779   5.541 -0.4514  0.4667  1.7377
   6623SM  C17S 8553   3.813   3.699   5.514 -0.0442  0.5864  0.0119
   6623SM  H17S 8554   3.895   3.682   5.587 -1.9586  0.2676  2.2039
   6623SM  H17T 8555   3.851   3.780   5.449  2.2231  1.2533  2.0301
   6623SM  C18S 8556   3.791   3.565   5.434 -0.2698  0.4828 -0.4242
   6623SM  H18S 8557   3.700   3.576   5.371 -1.1107  3.2798  1.0837
   6623SM  H18T 8558   3.786   3.480   5.505  0.4659 -0.4212 -1.4152
   6623SM  H18U 8559   3.876   3.551   5.364 -0.1055 -1.2849  0.0869
   6623SM   C1F 8560   4.115   2.885   7.028 -0.5476  0.2128 -1.1178
   6623SM    OF 8561   4.021   2.817   7.051  0.4934  0.3798 -0.8039
   6623SM   C2F 8562   4.246   2.824   6.977  0.7712 -0.3845  0.5977
   6623SM   H2F 8563   4.285   2.755   7.054 -2.4843 -0.3631  2.4232
   6623SM   H2G 8564   4.320   2.905   6.957 -1.0002  0.6892 -2.2257
   6623SM   C3F 8565   4.234   2.737   6.853  0.1951 -0.3431  0.1633
   6623SM   H3F 8566   4.170   2.654   6.891  0.7655  0.1366  2.3216
   6623SM   H3G 8567   4.338   2.711   6.825 -0.0741 -0.0882 -1.1185
   6623SM   C4F 8568   4.168   2.805   6.731 -0.2755 -0.6954 -0.5173
   6623SM   H4F 8569   4.080   2.871   6.745  1.9227  2.7166 -1.4629
   6623SM   H4G 8570   4.140   2.733   6.652  0.3319 -0.4861 -0.9358
   6623SM   C5F 8571   4.276   2.887   6.664 -0.3101  0.2935  0.5232
   6623SM   H5F 8572   4.365   2.828   6.634 -1.3692 -2.0738  1.7316
   6623SM   H5G 8573   4.316   2.962   6.735  0.2065  0.9981 -0.4880
   6623SM   C6F 8574   4.237   2.962   6.539 -0.1121 -0.1104 -0.4707
   6623SM   H6F 8575   4.321   3.035   6.534 -1.4100  1.3494 -1.7529
   6623SM   H6G 8576   4.145   3.023   6.545 -0.2176 -0.2376 -0.7449
   6623SM   C7F 8577   4.245   2.859   6.412 -0.2430 -0.2096 -0.1803
   6623SM   H7F 8578   4.156   2.794   6.421  0.4288 -0.9542  1.4045
   6623SM   H7G 8579   4.337   2.797   6.413 -0.6012 -0.8240 -2.1473
   6623SM   C8F 8580   4.224   2.931   6.274 -0.0377  0.9860 -0.5143
   6623SM   H8F 8581   4.322   2.970   6.238  0.2519 -0.0249 -0.8554
   6623SM   H8G 8582   4.159   3.020   6.288  0.4620  1.2748  0.0076
   6623SM   C9F 8583   4.156   2.837   6.178  0.1550  0.4344  0.0312
   6623SM   H9F 8584   4.064   2.798   6.227  1.0480 -0.3166  1.1598
   6623SM   H9G 8585   4.207   2.741   6.155 -1.1843  0.3317 -2.8708
   6623SM  C10F 8586   4.129   2.898   6.036  0.2966  0.0785  0.0417
   6623SM  H10F 8587   4.225   2.940   6.001  0.9260 -0.8537  0.6054
   6623SM  H10G 8588   4.055   2.979   6.053 -1.6963 -1.4244 -1.1122
   6623SM  C11F 8589   4.082   2.793   5.940  0.2715  0.2311  0.2303
   6623SM  H11F 8590   3.980   2.753   5.962 -0.4794 -0.7346 -4.0789
   6623SM  H11G 8591   4.143   2.700   5.938 -0.8729 -0.5934  1.3964
   6623SM  C12F 8592   4.069   2.848   5.799 -0.1997 -0.1430 -0.3200
   6623SM  H12F 8593   4.170   2.878   5.764  1.1217 -2.8972  0.8476
   6623SM  H12G 8594   4.002   2.937   5.791 -0.2868 -0.3102 -1.8491
   6623SM  C13F 8595   4.011   2.745   5.707  0.1963  0.8332 -0.5160
   6623SM  H13F 8596   3.900   2.737   5.710  0.2398  0.4391  0.3253
   6623SM  H13G 8597   4.042   2.645   5.745 -1.9212 -0.5743 -2.2071
   6623SM  C14F 8598   4.055   2.754   5.552  0.0817  0.3655  0.3372
   6623SM  H14F 8599   4.165   2.765   5.541  0.0572  1.1375  0.8445
   6623SM  H14G 8600   4.015   2.855   5.530 -0.8966  0.3288  1.8089
   6623SM  C15F 8601   3.990   2.646   5.461 -0.0607  0.2167  0.0666
   6623SM  H15F 8602   3.879   2.656   5.464 -0.0837  0.4780 -1.0418
   6623SM  H15G 8603   4.029   2.547   5.493  1.6163  0.2620 -1.6251
   6623SM  C16F 8604   4.033   2.661   5.316 -0.3327  0.1345  0.0743
   6623SM  H16F 8605   4.144   2.665   5.316 -0.3171  0.6954 -2.0305
   6623SM  H16G 8606   3.996   2.759   5.279  1.0225  1.4016  1.8445
   6623SM  C17F 8607   3.997   2.543   5.212  0.3372 -0.9203 -0.2111
   6623SM  H17F 8608   4.040   2.452   5.259 -2.5200 -0.4479  3.8229
   6623SM  H17G 8609   4.043   2.586   5.120 -1.8418  2.3597  0.0592
   6623SM  C18F 8610   3.853   2.513   5.192 -0.4070 -0.0610  0.1607
   6623SM  H18F 8611   3.805   2.613   5.185 -1.0004 -0.4007 -0.8237
   6623SM  H18G 8612   3.807   2.458   5.277  0.9877  0.7863  1.5262
   6623SM  C19F 8613   3.817   2.436   5.061 -0.4762 -0.5298 -0.0776
   6623SM  H19F 8614   3.878   2.344   5.063  0.2414 -0.0884 -0.8451
   6623SM  H19G 8615   3.856   2.498   4.977 -0.2906 -0.8535 -0.2296
   6623SM  C20F 8616   3.670   2.397   5.044  0.1044  0.2786 -0.0669
   6623SM  H20F 8617   3.613   2.492   5.039 -0.4252 -0.0824 -1.5097
   6623SM  H20G 8618   3.648   2.328   5.128  0.9552  0.2898  0.1744
   6623SM  C21F 8619   3.642   2.322   4.907 -0.2127 -0.3096 -0.2009
   6623SM  H21F 8620   3.711   2.236   4.895  2.1391  1.3766  0.6365
   6623SM  H21G 8621   3.671   2.394   4.828 -0.3765  0.1029  0.1116
   6623SM  C22F 8622   3.500   2.275   4.896  0.0261 -0.1008 -0.0102
   6623SM  H22F 8623   3.424   2.351   4.926 -1.4546 -0.7987 -1.8225
   6623SM  H22G 8624   3.494   2.186   4.961  1.3470 -0.7264 -0.6956
   6623SM  C23F 8625   3.466   2.232   4.751 -0.1635 -0.6717  0.2608
   6623SM  H23F 8626   3.497   2.315   4.683 -1.1370  0.3357  0.9993
   6623SM  H23G 8627   3.358   2.206   4.745 -0.8804  1.8343  0.9342
   6623SM  H23H 8628   3.529   2.145   4.724 -1.2227 -1.9005  1.6170
   6723SM     N 8629   2.673   6.650   7.076 -0.0221  0.4901 -0.9435
   6723SM   C15 8630   2.732   6.624   7.210  0.3118  0.1222  0.5883
   6723SM  H15A 8631   2.745   6.714   7.267  0.2053  0.1670  0.5424
   6723SM  H15B 8632   2.827   6.576   7.193  0.3059  0.2958  0.0516
   6723SM  H15C 8633   2.674   6.551   7.264 -2.0086  1.4497  0.0288
   6723SM   C14 8634   2.663   6.512   7.012  0.4424  0.3468 -0.1943
   6723SM  H14A 8635   2.621   6.519   6.913 -1.0298 -0.5948  0.3261
   6723SM  H14B 8636   2.615   6.441   7.078  0.7135  1.5604  1.3542
   6723SM  H14C 8637   2.761   6.470   6.996  0.5898  0.6556 -0.0991
   6723SM   C13 8638   2.538   6.709   7.103  1.0785  0.0640  0.6582
   6723SM  H13A 8639   2.542   6.790   7.174 -2.7898  0.1651  0.9633
   6723SM  H13B 8640   2.472   6.632   7.140 -1.4074  1.0490 -1.4433
   6723SM  H13C 8641   2.492   6.737   7.009  2.2482  0.2480  0.1172
   6723SM   C12 8642   2.763   6.732   6.993 -0.3909 -0.1855  0.5153
   6723SM  H12A 8643   2.793   6.816   7.054 -0.6216 -1.5275  2.6264
   6723SM  H12B 8644   2.700   6.762   6.911  1.6317  1.5715 -0.4773
   6723SM   C11 8645   2.894   6.670   6.939  0.7549 -0.7160 -0.0143
   6723SM  H11A 8646   2.941   6.742   6.868 -0.0552 -0.3610 -0.2098
   6723SM  H11B 8647   2.875   6.580   6.876  3.7541 -1.0557 -0.5641
   6723SM     P 8648   3.101   6.532   7.035 -0.0288 -0.2640  0.5104
   6723SM   O13 8649   3.209   6.569   7.130  0.4335 -0.0588  0.2052
   6723SM   O14 8650   3.039   6.396   7.049 -0.3760 -0.0072 -0.1266
   6723SM   O11 8651   3.146   6.557   6.888 -0.6229 -0.3236 -0.0400
   6723SM   O12 8652   2.979   6.634   7.051  0.0236 -0.0347 -0.3693
   6723SM   C1S 8653   3.228   6.675   6.855 -0.8906  0.0950 -0.1935
   6723SM   H1S 8654   3.320   6.677   6.917 -0.5581 -0.8475 -0.6448
   6723SM   H1T 8655   3.170   6.769   6.872 -0.9469 -0.2638  1.8692
   6723SM    NF 8656   3.363   6.802   6.692 -0.0421  0.5632  0.4906
   6723SM   HNF 8657   3.318   6.883   6.657  1.0837  1.2135  0.4907
   6723SM   C2S 8658   3.280   6.678   6.706 -0.4599 -0.5833  0.1974
   6723SM   H2S 8659   3.349   6.596   6.677 -0.4862  0.3719 -2.9131
   6723SM   C3S 8660   3.157   6.679   6.610 -0.0513 -0.3640 -0.3006
   6723SM   H3S 8661   3.093   6.770   6.608 -0.2817 -0.5435 -1.4103
   6723SM    O3 8662   3.063   6.572   6.630 -0.4454 -0.1812  0.9694
   6723SM   HO3 8663   3.084   6.543   6.719 -0.4160  0.9363  1.3409
   6723SM   C4S 8664   3.221   6.668   6.473 -0.2773  0.1490 -0.5967
   6723SM   H4S 8665   3.282   6.576   6.464 -0.9513 -0.1970 -2.0070
   6723SM   C5S 8666   3.227   6.753   6.369 -0.1294  0.0984 -0.4419
   6723SM   H5S 8667   3.188   6.855   6.381  1.0436  0.3644  1.5649
   6723SM   C6S 8668   3.295   6.741   6.238  0.4519  0.1614  0.0524
   6723SM   H6S 8669   3.400   6.778   6.242  1.2076 -1.8796  0.3744
   6723SM   H6T 8670   3.248   6.791   6.151  0.0458  0.6273  0.5361
   6723SM   C7S 8671   3.314   6.590   6.190  0.2956  0.0784 -0.3204
   6723SM   H7S 8672   3.213   6.545   6.191 -0.4267  1.5734  2.1567
   6723SM   H7T 8673   3.373   6.547   6.275  0.4761  3.3491  1.3598
   6723SM   C8S 8674   3.384   6.560   6.066 -1.0233 -0.2041  0.3512
   6723SM   H8S 8675   3.492   6.582   6.082 -1.1739 -0.3511  1.6432
   6723SM   H8T 8676   3.342   6.626   5.987 -0.3239 -1.0257 -0.7448
   6723SM   C9S 8677   3.373   6.418   6.005  0.3559 -0.4333  0.2628
   6723SM   H9S 8678   3.267   6.394   5.987  0.8969 -2.7154 -0.1317
   6723SM   H9T 8679   3.413   6.344   6.078  0.8066 -3.5716 -2.9153
   6723SM  C10S 8680   3.453   6.407   5.873 -0.6439  0.6903  1.0285
   6723SM  H10S 8681   3.559   6.433   5.893 -0.5852  1.8621 -0.5924
   6723SM  H10T 8682   3.425   6.478   5.792  1.3292 -1.1542 -1.3987
   6723SM  C11S 8683   3.450   6.270   5.803  0.3151  0.3118  0.0352
   6723SM  H11S 8684   3.347   6.266   5.762  0.5357 -1.7893 -0.3876
   6723SM  H11T 8685   3.458   6.185   5.874  1.0590  0.9287  0.7130
   6723SM  C12S 8686   3.550   6.250   5.693 -0.1140 -0.6406 -0.0342
   6723SM  H12S 8687   3.644   6.238   5.750 -0.1103 -0.2535  0.0436
   6723SM  H12T 8688   3.563   6.339   5.627  0.1709 -2.1386 -2.0819
   6723SM  C13S 8689   3.537   6.131   5.596  0.7603  0.3747 -0.2696
   6723SM  H13S 8690   3.439   6.143   5.545  1.3704  2.2576 -1.0662
   6723SM  H13T 8691   3.533   6.042   5.664  1.2520  0.8904  0.4479
   6723SM  C14S 8692   3.657   6.116   5.499 -0.6514 -0.0988 -0.3393
   6723SM  H14S 8693   3.757   6.144   5.540 -0.3374  0.5611 -1.5039
   6723SM  H14T 8694   3.648   6.182   5.411  1.4280  0.0381 -0.4959
   6723SM  C15S 8695   3.665   5.973   5.440  0.6617 -0.9221 -0.5316
   6723SM  H15S 8696   3.569   5.917   5.435 -0.4230  0.6636  1.3465
   6723SM  H15T 8697   3.735   5.903   5.490  2.4339  1.1702  0.0134
   6723SM  C16S 8698   3.723   5.980   5.297 -0.4654 -0.5493 -0.0479
   6723SM  H16S 8699   3.822   6.030   5.301 -1.1130  0.6682  1.5442
   6723SM  H16T 8700   3.662   6.057   5.246  1.1299  2.0878  1.7989
   6723SM  C17S 8701   3.732   5.852   5.219  0.4093 -0.1178 -0.4249
   6723SM  H17S 8702   3.634   5.837   5.169 -0.4064  1.7353  0.5292
   6723SM  H17T 8703   3.753   5.765   5.286 -2.8645 -1.8156 -1.3427
   6723SM  C18S 8704   3.844   5.848   5.113 -0.6834 -0.3874  0.9580
   6723SM  H18S 8705   3.834   5.925   5.033 -0.0906 -1.6404 -0.3659
   6723SM  H18T 8706   3.848   5.749   5.063 -0.1053 -0.4869  1.1959
   6723SM  H18U 8707   3.940   5.866   5.166  0.3249  1.1249 -1.2347
   6723SM   C1F 8708   3.489   6.806   6.735 -0.4979 -0.2753  0.2149
   6723SM    OF 8709   3.540   6.721   6.806 -0.1888 -0.6168  0.5310
   6723SM   C2F 8710   3.559   6.936   6.696 -0.9805  0.3209  0.1023
   6723SM   H2F 8711   3.549   7.011   6.777 -0.8386  0.6567 -0.1898
   6723SM   H2G 8712   3.517   6.983   6.604 -3.0954 -0.6936  0.4800
   6723SM   C3F 8713   3.704   6.903   6.655 -0.1187 -0.0734  0.3024
   6723SM   H3F 8714   3.757   6.847   6.734  1.4576 -1.3884 -1.5793
   6723SM   H3G 8715   3.753   7.000   6.632  0.2856 -0.5748 -1.0755
   6723SM   C4F 8716   3.709   6.820   6.526  0.0134  0.5462 -0.4275
   6723SM   H4F 8717   3.640   6.733   6.525 -0.3816  0.7791  1.8493
   6723SM   H4G 8718   3.811   6.779   6.513 -0.7112 -1.8235  0.9059
   6723SM   C5F 8719   3.678   6.907   6.404 -0.0066 -0.5572 -0.8773
   6723SM   H5F 8720   3.750   6.991   6.418 -0.9308 -0.0648  1.4125
   6723SM   H5G 8721   3.576   6.951   6.408  1.0818  2.2567 -1.3913
   6723SM   C6F 8722   3.693   6.839   6.274 -0.1197  0.5024 -0.3564
   6723SM   H6F 8723   3.625   6.751   6.277  0.8876 -0.4157 -2.5487
   6723SM   H6G 8724   3.800   6.814   6.262 -0.0858  0.7215 -0.5216
   6723SM   C7F 8725   3.649   6.924   6.149  0.2640  0.0151 -0.3117
   6723SM   H7F 8726   3.715   7.014   6.150 -0.5893  0.6577 -0.0787
   6723SM   H7G 8727   3.543   6.956   6.164 -0.5733 -1.8576 -1.7220
   6723SM   C8F 8728   3.661   6.835   6.025  0.1544  0.0008 -0.7678
   6723SM   H8F 8729   3.626   6.730   6.034 -2.4235  0.7794 -0.9185
   6723SM   H8G 8730   3.769   6.822   6.001  0.3284  0.4297 -0.2310
   6723SM   C9F 8731   3.593   6.899   5.908  0.1267 -1.3030 -0.2559
   6723SM   H9F 8732   3.647   6.994   5.889 -1.2956 -0.3662  0.2941
   6723SM   H9G 8733   3.485   6.909   5.932  0.1725 -0.4885 -0.3734
   6723SM  C10F 8734   3.593   6.810   5.785 -0.1068 -0.6885 -0.5717
   6723SM  H10F 8735   3.519   6.856   5.716  1.6336 -0.5361 -2.4197
   6723SM  H10G 8736   3.547   6.714   5.818 -1.3311 -0.4017 -1.3793
   6723SM  C11F 8737   3.718   6.795   5.707 -0.5422  0.8175 -0.8454
   6723SM  H11F 8738   3.703   6.732   5.616 -0.8876  1.2767 -1.1150
   6723SM  H11G 8739   3.803   6.748   5.761 -0.1900  3.4516  1.0711
   6723SM  C12F 8740   3.769   6.931   5.651 -0.4083 -0.4809  0.0467
   6723SM  H12F 8741   3.819   6.978   5.739 -2.6148 -1.4241  1.8929
   6723SM  H12G 8742   3.685   6.997   5.622  1.7597  1.2474 -2.8708
   6723SM  C13F 8743   3.872   6.925   5.533 -0.2346  0.1548 -0.3205
   6723SM  H13F 8744   3.957   6.859   5.560  2.0645  2.6890 -0.8814
   6723SM  H13G 8745   3.920   7.024   5.515  0.9630 -0.2624  0.4412
   6723SM  C14F 8746   3.808   6.879   5.404  0.2956  0.4484  0.1735
   6723SM  H14F 8747   3.720   6.944   5.388 -1.6135 -2.1063 -0.3564
   6723SM  H14G 8748   3.756   6.781   5.405  0.2178  0.3965 -2.6408
   6723SM  C15F 8749   3.908   6.887   5.286 -0.6111 -0.5313 -0.8307
   6723SM  H15F 8750   3.981   6.805   5.279  0.7147  0.6599 -1.4328
   6723SM  H15G 8751   3.965   6.982   5.287 -0.9719 -0.3086  0.3901
   6723SM  C16F 8752   3.833   6.890   5.154 -0.1839 -0.1189 -0.4999
   6723SM  H16F 8753   3.752   6.966   5.154 -0.6720 -0.5610  1.7566
   6723SM  H16G 8754   3.792   6.788   5.143 -1.3214  0.1994  0.5398
   6723SM  C17F 8755   3.930   6.920   5.039 -0.4142 -0.1651 -0.2937
   6723SM  H17F 8756   4.023   6.859   5.043  1.2320  2.2763  0.7076
   6723SM  H17G 8757   3.956   7.027   5.046 -0.8375  0.0422 -1.5768
   6723SM  C18F 8758   3.857   6.903   4.906 -0.1644  0.4909 -0.0869
   6723SM  H18F 8759   3.758   6.948   4.930 -0.0585 -0.2602  1.9616
   6723SM  H18G 8760   3.854   6.794   4.884  2.2085 -0.2649  2.7023
   6723SM  C19F 8761   3.931   6.980   4.798  0.8039  0.9418 -0.3020
   6723SM  H19F 8762   4.040   6.956   4.803  0.8430  0.7416 -1.8283
   6723SM  H19G 8763   3.917   7.089   4.815 -0.0797  0.5120  2.0776
   6723SM  C20F 8764   3.871   6.944   4.665  0.0290  0.2506 -0.6171
   6723SM  H20F 8765   3.761   6.930   4.673 -0.0799  2.1496  2.6162
   6723SM  H20G 8766   3.916   6.850   4.626 -1.0165  0.3763 -2.2617
   6723SM  C21F 8767   3.896   7.036   4.543  0.1791  0.2161  0.8789
   6723SM  H21F 8768   4.004   7.036   4.519 -0.1140 -0.7924 -0.6227
   6723SM  H21G 8769   3.866   7.141   4.564  0.5588  0.9362 -1.7741
   6723SM  C22F 8770   3.816   6.988   4.422 -0.0055  0.0509 -0.0294
   6723SM  H22F 8771   3.712   6.981   4.461  0.5592 -0.9666  1.4005
   6723SM  H22G 8772   3.843   6.885   4.390 -1.7989 -0.4932  0.0928
   6723SM  C23F 8773   3.839   7.071   4.296 -0.8549 -0.2616  0.5910
   6723SM  H23F 8774   3.791   7.171   4.298  0.2984  0.4829 -2.6493
   6723SM  H23G 8775   3.803   7.008   4.211 -1.6142 -1.7370  1.9588
   6723SM  H23H 8776   3.950   7.083   4.296 -0.7759 -0.9303  0.0452
   6823SM     N 8777   3.248   1.820   7.196  0.0159  0.6681  0.2521
   6823SM   C15 8778   3.149   1.706   7.184  0.4231 -0.1975  0.3762
   6823SM  H15A 8779   3.075   1.728   7.108  0.0317 -0.5006  0.6676
   6823SM  H15B 8780   3.099   1.683   7.277  0.8943  1.4353  1.0762
   6823SM  H15C 8781   3.199   1.616   7.151 -1.8631 -1.5398  0.3763
   6823SM   C14 8782   3.192   1.926   7.283 -0.1451  0.2742 -0.6129
   6823SM  H14A 8783   3.097   1.958   7.244  0.5070  2.4053 -0.5489
   6823SM  H14B 8784   3.250   2.017   7.277 -0.1692  0.1985 -2.7184
   6823SM  H14C 8785   3.191   1.894   7.386 -0.7858 -0.0424 -0.7168
   6823SM   C13 8786   3.366   1.770   7.273 -0.3485  0.1566  0.5655
   6823SM  H13A 8787   3.432   1.852   7.297  1.1614 -0.8904  0.1377
   6823SM  H13B 8788   3.429   1.710   7.210  1.1079  1.4171  0.7591
   6823SM  H13C 8789   3.331   1.719   7.362 -2.1075 -0.8625 -0.6635
   6823SM   C12 8790   3.290   1.863   7.049 -0.6451 -0.6163 -0.4501
   6823SM  H12A 8791   3.324   1.773   7.001  0.4359 -0.9404  0.8634
   6823SM  H12B 8792   3.370   1.934   7.059 -0.3420 -1.2352  2.1622
   6823SM   C11 8793   3.185   1.917   6.946 -0.7654 -0.3685  0.1157
   6823SM  H11A 8794   3.116   1.834   6.919 -0.2607 -0.3290 -1.4141
   6823SM  H11B 8795   3.232   1.939   6.848  1.2121 -0.0219  1.0963
   6823SM     P 8796   3.189   2.174   6.998 -0.4091 -0.1016  0.0291
   6823SM   O13 8797   3.091   2.268   7.045 -0.2242 -0.6254 -0.7138
   6823SM   O14 8798   3.325   2.175   7.061 -0.5733 -0.5837  0.0374
   6823SM   O11 8799   3.209   2.201   6.844 -0.3036  0.1395  0.7063
   6823SM   O12 8800   3.121   2.032   6.995 -0.2786 -0.0084  0.2964
   6823SM   C1S 8801   3.171   2.326   6.775 -0.2740  0.1903 -0.3599
   6823SM   H1S 8802   3.229   2.409   6.820  1.8687 -0.7801 -1.1920
   6823SM   H1T 8803   3.063   2.349   6.785 -0.2419  0.0450  0.4284
   6823SM    NF 8804   3.173   2.455   6.564 -0.4386  0.0567  0.1967
   6823SM   HNF 8805   3.082   2.476   6.530 -0.1030  1.9007  0.3102
   6823SM   C2S 8806   3.202   2.329   6.624 -0.0263  0.8406 -0.1003
   6823SM   H2S 8807   3.310   2.316   6.604 -0.2424  0.8552 -1.3580
   6823SM   C3S 8808   3.125   2.207   6.561 -0.0782 -0.0724 -0.8067
   6823SM   H3S 8809   3.018   2.217   6.588 -0.0669 -1.8704  0.0676
   6823SM    O3 8810   3.173   2.080   6.602 -0.4052 -0.7094 -0.9019
   6823SM   HO3 8811   3.243   2.097   6.665 -0.2338 -0.8970 -1.0396
   6823SM   C4S 8812   3.152   2.199   6.409 -0.1746  0.0362 -0.0522
   6823SM   H4S 8813   3.258   2.179   6.388  0.3074  1.9603  0.3169
   6823SM   C5S 8814   3.073   2.239   6.308  0.0906  0.4139 -0.0852
   6823SM   H5S 8815   2.972   2.280   6.321 -1.0685 -2.3100  0.1680
   6823SM   C6S 8816   3.123   2.229   6.162 -0.3879 -0.0721 -0.5207
   6823SM   H6S 8817   3.062   2.152   6.111 -0.5473 -1.5978  1.8237
   6823SM   H6T 8818   3.230   2.203   6.152 -0.5022 -0.7823  0.0803
   6823SM   C7S 8819   3.094   2.353   6.070  0.4736 -0.9531 -0.5095
   6823SM   H7S 8820   3.158   2.442   6.087  0.4789 -0.1663 -3.8828
   6823SM   H7T 8821   2.987   2.380   6.085  0.9473  1.3279 -0.9644
   6823SM   C8S 8822   3.106   2.310   5.923 -0.5129  0.6923 -0.5186
   6823SM   H8S 8823   3.017   2.249   5.895 -0.1223  0.8932 -2.3355
   6823SM   H8T 8824   3.193   2.241   5.918  0.1434  1.5879 -3.1680
   6823SM   C9S 8825   3.114   2.437   5.834 -1.0600  0.1304  0.5732
   6823SM   H9S 8826   3.200   2.494   5.876  0.9063 -0.8667 -1.7649
   6823SM   H9T 8827   3.016   2.489   5.828 -0.7814  0.5147 -2.1435
   6823SM  C10S 8828   3.162   2.402   5.693  0.0802 -0.0771 -0.6572
   6823SM  H10S 8829   3.163   2.501   5.642  0.3640 -0.0482 -0.5976
   6823SM  H10T 8830   3.086   2.345   5.635  1.2966 -1.5897 -0.8269
   6823SM  C11S 8831   3.293   2.332   5.684  0.4325  0.7627 -0.9858
   6823SM  H11S 8832   3.297   2.234   5.736  0.0584  0.2746 -1.8544
   6823SM  H11T 8833   3.366   2.398   5.735 -0.9682  1.6437 -0.0520
   6823SM  C12S 8834   3.351   2.298   5.545  0.6406  0.0533 -0.5004
   6823SM  H12S 8835   3.460   2.279   5.551  0.5220 -0.8862 -1.0533
   6823SM  H12T 8836   3.335   2.387   5.481 -2.7463 -0.0513  0.0171
   6823SM  C13S 8837   3.267   2.179   5.484  0.0728  0.6981  0.4064
   6823SM  H13S 8838   3.159   2.206   5.472  0.3759  1.6634 -0.3094
   6823SM  H13T 8839   3.270   2.093   5.553 -1.6496 -0.8033 -1.2568
   6823SM  C14S 8840   3.316   2.125   5.346 -0.1337 -0.1222 -0.4298
   6823SM  H14S 8841   3.316   2.210   5.275  0.9237  0.3652  0.1163
   6823SM  H14T 8842   3.241   2.050   5.313 -2.3341  1.5929  0.4243
   6823SM  C15S 8843   3.457   2.067   5.356 -0.0214  0.2117 -0.7205
   6823SM  H15S 8844   3.461   2.020   5.456  0.2949 -1.1547 -1.3459
   6823SM  H15T 8845   3.539   2.142   5.359 -0.2598  0.4610 -0.2647
   6823SM  C16S 8846   3.485   1.961   5.246  0.2717  0.0148  0.4487
   6823SM  H16S 8847   3.503   1.998   5.143  0.1071 -1.4968 -0.1374
   6823SM  H16T 8848   3.389   1.909   5.228  0.7543 -1.1537  1.1343
   6823SM  C17S 8849   3.584   1.862   5.282 -0.0976 -0.3444  0.2916
   6823SM  H17S 8850   3.560   1.799   5.371  0.7197  0.5761  1.1892
   6823SM  H17T 8851   3.677   1.918   5.309 -0.3117 -0.3266  1.0258
   6823SM  C18S 8852   3.626   1.769   5.166 -0.0598 -0.3914  0.6806
   6823SM  H18S 8853   3.704   1.700   5.204  1.1986  0.0263 -1.0205
   6823SM  H18T 8854   3.669   1.822   5.078  0.1707 -1.2061  0.2927
   6823SM  H18U 8855   3.534   1.714   5.136 -0.0708 -0.7083  1.2721
   6823SM   C1F 8856   3.258   2.553   6.564 -0.1803 -0.1172  0.0052
   6823SM    OF 8857   3.365   2.547   6.618  0.1111 -0.4006 -0.3188
   6823SM   C2F 8858   3.219   2.660   6.477 -0.3217 -0.1761  0.5745
   6823SM   H2F 8859   3.121   2.699   6.513  0.9020 -0.5951  4.9850
   6823SM   H2G 8860   3.217   2.617   6.375  0.0719  0.2770  0.3694
   6823SM   C3F 8861   3.328   2.773   6.465  0.6451  0.1716  0.1091
   6823SM   H3F 8862   3.424   2.720   6.449  0.6509  0.1039  0.3576
   6823SM   H3G 8863   3.331   2.818   6.567 -2.3467  1.4240 -0.2378
   6823SM   C4F 8864   3.299   2.871   6.356  0.5859 -0.1211  0.8081
   6823SM   H4F 8865   3.335   2.970   6.391 -0.6297  0.5195  0.3134
   6823SM   H4G 8866   3.188   2.877   6.348  0.5438 -1.3373  0.2371
   6823SM   C5F 8867   3.355   2.845   6.217 -0.1426  0.5150 -0.1537
   6823SM   H5F 8868   3.329   2.741   6.190 -1.0453  0.5661  0.4879
   6823SM   H5G 8869   3.466   2.839   6.225 -0.0399  0.8584 -1.1528
   6823SM   C6F 8870   3.302   2.936   6.106  0.4480  0.8482  0.5946
   6823SM   H6F 8871   3.382   3.010   6.083  1.7598 -0.4151  0.9475
   6823SM   H6G 8872   3.204   2.984   6.132  0.2283  0.9667 -0.4302
   6823SM   C7F 8873   3.292   2.857   5.969  0.2391  0.1126 -0.0841
   6823SM   H7F 8874   3.200   2.796   5.981  0.8653 -0.6218  1.2561
   6823SM   H7G 8875   3.376   2.784   5.963  0.4512  0.0850  2.4339
   6823SM   C8F 8876   3.283   2.939   5.842  0.4072  0.0906  0.8686
   6823SM   H8F 8877   3.366   3.010   5.825  0.7246 -0.2318  1.0645
   6823SM   H8G 8878   3.189   2.997   5.854  0.3409  0.1210  0.2222
   6823SM   C9F 8879   3.243   2.855   5.726  0.0244  0.2895  0.9570
   6823SM   H9F 8880   3.164   2.781   5.750  1.1226 -2.3592 -2.6476
   6823SM   H9G 8881   3.327   2.791   5.694 -0.0124  0.3447  0.7467
   6823SM  C10F 8882   3.171   2.940   5.617 -0.0134 -1.0494  0.2021
   6823SM  H10F 8883   3.236   3.021   5.576 -0.3043 -0.5115  0.8102
   6823SM  H10G 8884   3.089   2.996   5.665  0.4626  0.6006 -0.8235
   6823SM  C11F 8885   3.126   2.863   5.488  0.7976 -0.7541  0.4736
   6823SM  H11F 8886   3.055   2.794   5.539  0.8214  0.3168  2.0260
   6823SM  H11G 8887   3.211   2.800   5.452 -0.8322 -3.3144  0.8050
   6823SM  C12F 8888   3.065   2.946   5.372  0.2906 -0.1973  0.6442
   6823SM  H12F 8889   3.002   3.023   5.421  0.4286  0.4515 -0.1719
   6823SM  H12G 8890   3.005   2.870   5.317 -1.1941  2.4151 -1.6086
   6823SM  C13F 8891   3.162   3.005   5.280  0.0835 -0.2699  0.4057
   6823SM  H13F 8892   3.226   2.925   5.236 -0.1738 -1.7630  2.5950
   6823SM  H13G 8893   3.239   3.062   5.337  0.3319 -1.4310  1.2701
   6823SM  C14F 8894   3.095   3.090   5.165 -0.4272  0.1252 -0.0319
   6823SM  H14F 8895   3.044   3.177   5.212  0.3140  0.0369  0.9580
   6823SM  H14G 8896   3.017   3.024   5.121 -1.4159  0.3680  1.3051
   6823SM  C15F 8897   3.195   3.137   5.054  0.2504  0.2422 -0.0088
   6823SM  H15F 8898   3.141   3.203   4.983 -0.8382 -2.4615 -1.8811
   6823SM  H15G 8899   3.235   3.056   4.989  1.7559  0.4994  0.5715
   6823SM  C16F 8900   3.323   3.211   5.099  0.0629 -0.0332 -0.3184
   6823SM  H16F 8901   3.410   3.189   5.034  0.2136  0.4221 -0.2696
   6823SM  H16G 8902   3.351   3.177   5.202 -2.2819 -2.7954 -0.4457
   6823SM  C17F 8903   3.311   3.361   5.115  0.2323  0.0392 -0.2562
   6823SM  H17F 8904   3.229   3.385   5.186  1.2370 -1.4364  1.4754
   6823SM  H17G 8905   3.288   3.404   5.015  1.1875  1.2236  0.0091
   6823SM  C18F 8906   3.449   3.421   5.154 -0.2159 -0.5073 -0.7904
   6823SM  H18F 8907   3.534   3.368   5.107  0.3122 -0.1497 -0.2633
   6823SM  H18G 8908   3.462   3.396   5.262  1.3015 -0.3835 -0.9198
   6823SM  C19F 8909   3.451   3.577   5.146  0.2854 -0.2560  0.0319
   6823SM  H19F 8910   3.433   3.617   5.044 -1.1932 -1.0217 -0.0221
   6823SM  H19G 8911   3.553   3.603   5.182 -0.4784  1.4123  1.1268
   6823SM  C20F 8912   3.338   3.653   5.231 -0.7200 -0.2713  0.2322
   6823SM  H20F 8913   3.338   3.614   5.335  2.9522  2.7668  1.6344
   6823SM  H20G 8914   3.244   3.636   5.174  0.8512 -2.1183 -2.0134
   6823SM  C21F 8915   3.358   3.806   5.242  0.4380 -0.2508  0.0851
   6823SM  H21F 8916   3.460   3.839   5.271 -0.1220  1.2094  0.4861
   6823SM  H21G 8917   3.280   3.837   5.314  1.7180 -0.6179  1.6910
   6823SM  C22F 8918   3.332   3.885   5.110 -0.8126  0.0471 -0.1266
   6823SM  H22F 8919   3.232   3.858   5.070 -0.4371  2.2857 -2.8440
   6823SM  H22G 8920   3.414   3.860   5.040  1.7400  1.6385  2.1440
   6823SM  C23F 8921   3.333   4.037   5.120  0.0673 -0.9823 -0.0193
   6823SM  H23F 8922   3.352   4.081   5.021  3.4466 -0.5594  0.7028
   6823SM  H23G 8923   3.426   4.072   5.169  0.1382  1.8860 -1.9917
   6823SM  H23H 8924   3.240   4.070   5.171  0.8653 -1.1622  1.6497
   6923SM     N 8925   3.848   3.651   7.605 -0.5545 -0.2624  0.1037
   6923SM   C15 8926   3.714   3.573   7.600 -1.3126 -0.0706 -1.3976
   6923SM  H15A 8927   3.653   3.574   7.689 -1.0114 -0.5427 -1.1854
   6923SM  H15B 8928   3.729   3.469   7.577  1.0179 -0.4485  1.2701
   6923SM  H15C 8929   3.642   3.607   7.527  1.8602  0.1709 -4.7243
   6923SM   C14 8930   3.808   3.795   7.573 -0.2082 -0.2919 -0.2986
   6923SM  H14A 8931   3.743   3.809   7.488  0.8836  1.0831 -0.9635
   6923SM  H14B 8932   3.898   3.852   7.553 -1.2921  2.7995  2.6350
   6923SM  H14C 8933   3.754   3.846   7.652 -0.9940  0.3290 -1.2226
   6923SM   C13 8934   3.915   3.639   7.734 -0.4290  0.2696 -0.4992
   6923SM  H13A 8935   4.002   3.704   7.741 -0.8004  0.6216  2.0809
   6923SM  H13B 8936   3.949   3.540   7.759 -0.5182 -0.5178 -3.2382
   6923SM  H13C 8937   3.842   3.670   7.807 -0.9175 -0.7780 -0.5294
   6923SM   C12 8938   3.937   3.608   7.487  0.0012  0.3984  0.2959
   6923SM  H12A 8939   4.035   3.646   7.513 -0.7009  1.5567  1.3845
   6923SM  H12B 8940   3.903   3.663   7.401 -1.9750 -0.4049  0.5202
   6923SM   C11 8941   3.962   3.462   7.459 -0.1379  0.8441 -0.1580
   6923SM  H11A 8942   3.999   3.458   7.354 -0.1216  0.9209 -0.1550
   6923SM  H11B 8943   3.866   3.406   7.452  1.8344 -2.8446 -0.3014
   6923SM     P 8944   4.205   3.436   7.555 -0.0327  0.1349  0.3658
   6923SM   O13 8945   4.224   3.577   7.598 -0.7129 -0.1692  0.1046
   6923SM   O14 8946   4.269   3.325   7.632 -0.2649 -0.4637 -0.0785
   6923SM   O11 8947   4.240   3.417   7.403  0.1971 -0.1967 -0.1319
   6923SM   O12 8948   4.046   3.405   7.556 -0.0309 -0.5768  0.2227
   6923SM   C1S 8949   4.339   3.338   7.347 -0.1382 -0.1551  0.0380
   6923SM   H1S 8950   4.297   3.240   7.318  0.1443 -0.2958  0.0944
   6923SM   H1T 8951   4.425   3.317   7.414 -2.1471 -2.2800  2.1165
   6923SM    NF 8952   4.507   3.320   7.162  0.4632 -0.0543  0.0957
   6923SM   HNF 8953   4.597   3.364   7.168  0.3690  0.3241 -1.0761
   6923SM   C2S 8954   4.388   3.392   7.208 -0.2139 -0.1183 -0.3547
   6923SM   H2S 8955   4.312   3.372   7.130  0.1130 -2.5338 -0.1549
   6923SM   C3S 8956   4.418   3.547   7.204 -0.6216  0.6292  0.1442
   6923SM   H3S 8957   4.494   3.572   7.281  1.0163 -1.3713 -0.7387
   6923SM    O3 8958   4.311   3.622   7.247  0.7685  0.1473 -0.3186
   6923SM   HO3 8959   4.238   3.569   7.280  0.0167  1.8935  0.9707
   6923SM   C4S 8960   4.464   3.590   7.070 -0.0269  0.4189  0.1939
   6923SM   H4S 8961   4.572   3.610   7.070  0.1247 -0.1551  2.0263
   6923SM   C5S 8962   4.394   3.611   6.958  0.2715  0.2687 -0.0640
   6923SM   H5S 8963   4.288   3.582   6.958  0.5655 -0.9391 -1.7050
   6923SM   C6S 8964   4.446   3.654   6.820  0.7470  0.4791 -0.4847
   6923SM   H6S 8965   4.403   3.756   6.806  0.0700  0.1806 -0.6123
   6923SM   H6T 8966   4.402   3.590   6.741 -0.8762  3.1303 -1.8870
   6923SM   C7S 8967   4.604   3.652   6.797 -0.0613  0.3076 -0.1716
   6923SM   H7S 8968   4.653   3.555   6.821 -0.4395 -0.6091 -2.7974
   6923SM   H7T 8969   4.650   3.733   6.858  0.4263  0.1824 -0.3653
   6923SM   C8S 8970   4.641   3.678   6.652 -0.6487 -0.2413 -0.0470
   6923SM   H8S 8971   4.598   3.778   6.632 -0.8363 -0.3411 -0.1435
   6923SM   H8T 8972   4.585   3.604   6.590  1.6944 -3.0001  0.9032
   6923SM   C9S 8973   4.791   3.681   6.623  0.0355  0.5976 -0.2556
   6923SM   H9S 8974   4.849   3.597   6.666 -1.3665 -0.0045  0.5324
   6923SM   H9T 8975   4.835   3.775   6.663  1.1362  0.0357 -0.1162
   6923SM  C10S 8976   4.809   3.671   6.468  0.0053 -0.2592  0.5996
   6923SM  H10S 8977   4.765   3.573   6.440 -3.3783  1.5175 -0.8698
   6923SM  H10T 8978   4.919   3.671   6.452 -0.0348  3.3713 -0.6366
   6923SM  C11S 8979   4.750   3.784   6.368  0.1181  0.3027  0.0316
   6923SM  H11S 8980   4.795   3.882   6.393  0.0654  0.5310 -0.7522
   6923SM  H11T 8981   4.640   3.783   6.384  0.4093  0.5405  2.4793
   6923SM  C12S 8982   4.791   3.757   6.223  0.4657  0.6519  0.5870
   6923SM  H12S 8983   4.902   3.764   6.213  0.3159  1.4132 -0.8449
   6923SM  H12T 8984   4.747   3.838   6.160 -3.0692  0.1906  2.2305
   6923SM  C13S 8985   4.741   3.618   6.170 -0.2740 -0.5988  0.2026
   6923SM  H13S 8986   4.632   3.629   6.158 -0.5755 -1.4007  1.9374
   6923SM  H13T 8987   4.758   3.536   6.242  0.6528 -1.4021 -0.8956
   6923SM  C14S 8988   4.816   3.568   6.043 -0.1154 -0.9705 -0.0236
   6923SM  H14S 8989   4.914   3.532   6.080  1.8270  3.1041 -0.6847
   6923SM  H14T 8990   4.834   3.653   5.974 -3.4345 -0.0869  0.0370
   6923SM  C15S 8991   4.743   3.453   5.977 -0.2691  0.5913 -0.0616
   6923SM  H15S 8992   4.662   3.501   5.917  0.1528  1.3772 -0.0116
   6923SM  H15T 8993   4.698   3.387   6.054  1.9607  0.9834  1.6926
   6923SM  C16S 8994   4.842   3.368   5.887  0.8023  0.5676 -0.0587
   6923SM  H16S 8995   4.933   3.337   5.942  0.9042  0.9144 -0.0304
   6923SM  H16T 8996   4.881   3.435   5.808  1.9450  1.5994  1.3276
   6923SM  C17S 8997   4.766   3.253   5.816  0.2851  0.3893  0.2228
   6923SM  H17S 8998   4.714   3.197   5.897 -3.0306  0.3837 -1.6994
   6923SM  H17T 8999   4.845   3.188   5.774  0.3262 -0.0072  0.9032
   6923SM  C18S 9000   4.660   3.302   5.714  0.4908  0.4207  0.4671
   6923SM  H18S 9001   4.567   3.349   5.754  0.2285  0.1122  0.2292
   6923SM  H18T 9002   4.629   3.216   5.651  0.4376 -0.4457  1.6258
   6923SM  H18U 9003   4.714   3.382   5.661 -1.1193  1.4934  0.3661
   6923SM   C1F 9004   4.494   3.198   7.105 -0.1976 -0.7238  0.4543
   6923SM    OF 9005   4.389   3.134   7.101  0.1480 -0.2620  0.0425
   6923SM   C2F 9006   4.621   3.139   7.043 -0.1174 -0.6686  0.0711
   6923SM   H2F 9007   4.652   3.062   7.116 -0.7402 -2.3670 -1.3846
   6923SM   H2G 9008   4.702   3.214   7.032  0.5775 -1.3065  0.7762
   6923SM   C3F 9009   4.593   3.059   6.918 -0.0666 -0.2827 -0.5234
   6923SM   H3F 9010   4.518   2.983   6.946 -0.2183 -0.2344 -0.7972
   6923SM   H3G 9011   4.686   2.999   6.905 -0.3953 -0.7601 -0.6861
   6923SM   C4F 9012   4.545   3.135   6.803  0.4063  0.3750  0.6001
   6923SM   H4F 9013   4.465   3.209   6.825 -0.3406  0.0439 -0.8810
   6923SM   H4G 9014   4.501   3.069   6.725  0.9396  0.1128  0.5167
   6923SM   C5F 9015   4.664   3.210   6.739  0.5635 -0.2313  0.1558
   6923SM   H5F 9016   4.742   3.145   6.694 -0.3195 -0.1635 -1.5733
   6923SM   H5G 9017   4.711   3.271   6.819  0.5651  3.1373 -2.1498
   6923SM   C6F 9018   4.618   3.315   6.631 -0.2098  0.0890 -1.1059
   6923SM   H6F 9019   4.686   3.403   6.630 -0.6500  0.4816  0.5183
   6923SM   H6G 9020   4.515   3.350   6.652 -0.3585 -1.8158  2.0418
   6923SM   C7F 9021   4.618   3.247   6.495 -0.1414  0.1606  0.4427
   6923SM   H7F 9022   4.609   3.136   6.499 -0.7196  0.2196  1.2211
   6923SM   H7G 9023   4.710   3.266   6.436  0.3511  0.4650  1.2912
   6923SM   C8F 9024   4.504   3.308   6.417 -0.2661 -0.6457 -0.6710
   6923SM   H8F 9025   4.514   3.418   6.412  2.5838 -0.5687  2.5307
   6923SM   H8G 9026   4.408   3.290   6.469 -1.1677 -1.8040 -2.6036
   6923SM   C9F 9027   4.495   3.247   6.279 -0.5952  0.1802  0.0836
   6923SM   H9F 9028   4.526   3.141   6.291  2.0557  0.9164  0.3033
   6923SM   H9G 9029   4.575   3.280   6.210  0.8415  0.5040  1.8392
   6923SM  C10F 9030   4.357   3.268   6.205 -0.7838 -0.6044 -0.3971
   6923SM  H10F 9031   4.347   3.378   6.194 -0.0562 -0.4763  0.1483
   6923SM  H10G 9032   4.286   3.216   6.273  0.4657  1.6047  2.8246
   6923SM  C11F 9033   4.351   3.212   6.068  0.6222  0.0056 -0.0549
   6923SM  H11F 9034   4.350   3.101   6.077 -0.5854 -0.0027 -0.1046
   6923SM  H11G 9035   4.440   3.236   6.007 -0.8474  0.7683 -2.0056
   6923SM  C12F 9036   4.221   3.253   5.995  0.1853  0.6262 -0.3058
   6923SM  H12F 9037   4.220   3.364   5.988  0.0426  0.6937  0.6950
   6923SM  H12G 9038   4.126   3.228   6.048 -1.4412  1.4529 -2.6517
   6923SM  C13F 9039   4.214   3.206   5.848  0.3741 -0.7879  0.1524
   6923SM  H13F 9040   4.193   3.096   5.847  0.3578 -0.7887  0.4850
   6923SM  H13G 9041   4.311   3.197   5.796 -0.0114 -0.2993 -0.6794
   6923SM  C14F 9042   4.101   3.278   5.769  0.3394 -0.2059 -0.3850
   6923SM  H14F 9043   4.102   3.383   5.806  0.4619 -0.3803  0.1201
   6923SM  H14G 9044   4.009   3.236   5.816  0.9495  0.2707  1.3003
   6923SM  C15F 9045   4.095   3.267   5.624 -0.8496 -0.0904  0.1738
   6923SM  H15F 9046   4.003   3.316   5.584 -1.1567 -1.4022 -0.8149
   6923SM  H15G 9047   4.082   3.158   5.604  2.3882 -0.4918 -0.2137
   6923SM  C16F 9048   4.210   3.337   5.542  0.1835  0.3443 -1.5520
   6923SM  H16F 9049   4.304   3.317   5.598 -2.0398 -0.5536  2.1964
   6923SM  H16G 9050   4.195   3.445   5.561  1.5000  0.1982  0.6528
   6923SM  C17F 9051   4.226   3.299   5.396  0.1502  0.8874 -0.3449
   6923SM  H17F 9052   4.307   3.361   5.352  0.7435  0.1367 -0.3320
   6923SM  H17G 9053   4.129   3.327   5.349 -0.7708 -0.2375  0.8083
   6923SM  C18F 9054   4.242   3.148   5.367 -0.2939 -0.1005  1.1620
   6923SM  H18F 9055   4.153   3.087   5.394 -0.4738 -1.2617 -1.6945
   6923SM  H18G 9056   4.321   3.102   5.431  0.6961 -1.4374 -0.8959
   6923SM  C19F 9057   4.284   3.128   5.223 -0.1106  0.0645 -0.0715
   6923SM  H19F 9058   4.386   3.173   5.217  0.2740 -0.8338 -0.5739
   6923SM  H19G 9059   4.213   3.175   5.152  2.0841  0.3126 -2.2189
   6923SM  C20F 9060   4.301   2.971   5.188  0.1914  0.0994  0.3146
   6923SM  H20F 9061   4.208   2.916   5.208  1.3924 -2.3533 -0.4924
   6923SM  H20G 9062   4.379   2.928   5.254 -0.5759 -0.1585  1.0691
   6923SM  C21F 9063   4.335   2.950   5.039 -0.2254  0.3776 -0.2045
   6923SM  H21F 9064   4.392   3.039   5.005  2.4483 -1.0200  0.3279
   6923SM  H21G 9065   4.239   2.938   4.983 -2.6989  0.8654  3.6162
   6923SM  C22F 9066   4.418   2.829   5.018 -0.3140 -0.3917  0.0697
   6923SM  H22F 9067   4.356   2.738   5.036 -0.4592 -0.1871  0.6071
   6923SM  H22G 9068   4.506   2.832   5.086  0.7452 -0.5505 -1.2546
   6923SM  C23F 9069   4.477   2.837   4.876 -0.7163  0.6509  0.2163
   6923SM  H23F 9070   4.549   2.920   4.858 -1.0606  0.6445 -1.3072
   6923SM  H23G 9071   4.398   2.834   4.798 -0.2508 -4.1656 -0.3754
   6923SM  H23H 9072   4.524   2.738   4.860 -1.7792  0.4904 -2.3745
   7023SM     N 9073   3.938   1.905   7.653 -0.9374  0.1259  0.0758
   7023SM   C15 9074   3.790   1.900   7.628 -0.0952  0.0126  0.0274
   7023SM  H15A 9075   3.770   1.984   7.563  0.0559  0.8508  1.0356
   7023SM  H15B 9076   3.742   1.909   7.725 -0.8894  1.7244 -0.4927
   7023SM  H15C 9077   3.774   1.809   7.572  0.4625 -0.3943  0.5159
   7023SM   C14 9078   3.989   2.037   7.688  0.4705 -0.1138 -0.5168
   7023SM  H14A 9079   4.095   2.027   7.706 -0.0916 -3.1334  1.9511
   7023SM  H14B 9080   3.935   2.079   7.772  1.9215  1.3129 -0.2389
   7023SM  H14C 9081   3.960   2.108   7.612 -0.2938  0.3550  0.1877
   7023SM   C13 9082   3.956   1.804   7.767  0.1666  0.3739 -0.6421
   7023SM  H13A 9083   3.922   1.849   7.859  0.4752  0.1837 -0.4330
   7023SM  H13B 9084   4.061   1.780   7.778 -0.2500 -1.9060 -1.0260
   7023SM  H13C 9085   3.902   1.711   7.759  0.7684 -0.1200  0.7552
   7023SM   C12 9086   4.010   1.860   7.526 -0.0150  0.8477  0.4123
   7023SM  H12A 9087   3.978   1.758   7.509 -3.4056  1.0738  3.8386
   7023SM  H12B 9088   4.113   1.848   7.556 -0.6097  0.9677  2.7394
   7023SM   C11 9089   3.983   1.925   7.386 -0.3575 -0.3111  0.7279
   7023SM  H11A 9090   3.882   1.897   7.349 -0.0256 -1.2825  0.5333
   7023SM  H11B 9091   4.050   1.887   7.306  0.3824  0.9992  0.6976
   7023SM     P 9092   4.118   2.145   7.354 -0.3312 -0.2201  0.1590
   7023SM   O13 9093   4.077   2.287   7.356  0.3006  0.3068 -0.3849
   7023SM   O14 9094   4.235   2.106   7.435 -0.3497 -0.6773  0.4400
   7023SM   O11 9095   4.140   2.103   7.200  0.1758 -0.6589  0.0472
   7023SM   O12 9096   3.995   2.065   7.400 -0.0859  1.0703 -0.3396
   7023SM   C1S 9097   4.038   2.153   7.105  0.2675 -0.2336 -1.2125
   7023SM   H1S 9098   4.026   2.263   7.117 -1.2442 -0.4517 -0.5464
   7023SM   H1T 9099   3.937   2.118   7.132  0.3413  1.6860  2.1102
   7023SM    NF 9100   3.993   2.198   6.874 -0.1723 -0.0317  0.2779
   7023SM   HNF 9101   3.923   2.152   6.820 -0.3229  2.2104 -1.6420
   7023SM   C2S 9102   4.072   2.121   6.962 -0.3422  0.6849  0.1385
   7023SM   H2S 9103   4.181   2.143   6.953 -0.3976  1.8139  1.6864
   7023SM   C3S 9104   4.053   1.963   6.948 -0.4662  0.0879  0.2676
   7023SM   H3S 9105   3.949   1.940   6.982 -0.1110 -1.4301  0.4065
   7023SM    O3 9106   4.125   1.891   7.044 -0.6302  0.2125  0.0084
   7023SM   HO3 9107   4.139   1.958   7.111 -1.4267  0.2046  0.1951
   7023SM   C4S 9108   4.077   1.926   6.804 -0.3004  0.0424  0.1775
   7023SM   H4S 9109   3.996   1.934   6.730  0.5228  0.2138 -0.7265
   7023SM   C5S 9110   4.198   1.892   6.756  0.0444  0.0382  1.2942
   7023SM   H5S 9111   4.283   1.900   6.826 -0.9615  0.2859  2.5129
   7023SM   C6S 9112   4.234   1.868   6.610  0.3471 -0.5279 -0.2960
   7023SM   H6S 9113   4.272   1.764   6.600 -2.7311 -1.6933 -1.2102
   7023SM   H6T 9114   4.321   1.931   6.582  2.9343 -1.9911  3.6331
   7023SM   C7S 9115   4.119   1.872   6.510  0.6147  0.0988  0.5011
   7023SM   H7S 9116   4.057   1.960   6.538  0.3680 -0.4637  1.7934
   7023SM   H7T 9117   4.053   1.785   6.528 -0.4920  1.4300  3.4063
   7023SM   C8S 9118   4.153   1.871   6.363  0.6150  0.0338 -1.0407
   7023SM   H8S 9119   4.187   1.779   6.310 -0.4828 -1.0993  0.1527
   7023SM   H8T 9120   4.230   1.948   6.340  1.7275 -1.2188 -1.6560
   7023SM   C9S 9121   4.027   1.911   6.272 -1.2000 -0.5572 -0.7035
   7023SM   H9S 9122   4.045   2.019   6.251  2.2178 -0.4928  1.6182
   7023SM   H9T 9123   3.928   1.898   6.320 -1.2850  1.6851 -0.1251
   7023SM  C10S 9124   4.016   1.828   6.149 -0.3532  0.1037 -0.2485
   7023SM  H10S 9125   3.978   1.732   6.190 -2.0023  0.1892 -1.4597
   7023SM  H10T 9126   4.114   1.817   6.097  1.4136  0.7238  2.7116
   7023SM  C11S 9127   3.914   1.885   6.043  0.2189 -0.1926 -0.2123
   7023SM  H11S 9128   3.968   1.970   5.997 -1.0644  1.0147  0.4462
   7023SM  H11T 9129   3.824   1.926   6.093 -0.0943 -0.1519 -0.8005
   7023SM  C12S 9130   3.865   1.767   5.948  0.0256 -0.4067 -0.2727
   7023SM  H12S 9131   3.786   1.807   5.881  0.0615 -1.7995 -1.1885
   7023SM  H12T 9132   3.822   1.688   6.013  1.5873  0.4498  1.9274
   7023SM  C13S 9133   3.974   1.710   5.861 -0.8960 -0.6340  0.0923
   7023SM  H13S 9134   4.022   1.631   5.922 -2.1317 -2.6540 -1.4057
   7023SM  H13T 9135   4.042   1.788   5.822 -1.9768  1.2411  1.7865
   7023SM  C14S 9136   3.931   1.656   5.725 -0.3987  0.3755  0.0321
   7023SM  H14S 9137   3.886   1.735   5.660  0.6449  1.0248  0.0714
   7023SM  H14T 9138   3.846   1.586   5.738  1.4616 -1.8355  1.0471
   7023SM  C15S 9139   4.045   1.582   5.658  0.3883 -0.1390  0.0375
   7023SM  H15S 9140   4.074   1.491   5.715 -0.8982  0.2702  1.4156
   7023SM  H15T 9141   4.133   1.649   5.659  0.8131 -0.6884 -0.0214
   7023SM  C16S 9142   4.019   1.536   5.513  0.1902 -0.0300 -0.2425
   7023SM  H16S 9143   3.931   1.467   5.513 -1.6043  2.0956 -2.4608
   7023SM  H16T 9144   4.105   1.495   5.456  0.5033 -0.5108  0.5547
   7023SM  C17S 9145   3.973   1.655   5.427  0.4076 -0.2432  0.2494
   7023SM  H17S 9146   4.031   1.747   5.449 -0.7891 -0.0603  3.0744
   7023SM  H17T 9147   3.868   1.684   5.445  0.0653 -0.3272 -1.4731
   7023SM  C18S 9148   3.975   1.637   5.272 -0.0425 -0.3029  0.3726
   7023SM  H18S 9149   3.951   1.721   5.204  1.6041  0.1968  0.3712
   7023SM  H18T 9150   3.898   1.561   5.244  0.0264 -0.0385 -0.5939
   7023SM  H18U 9151   4.079   1.608   5.246  0.7870  0.3746  2.7424
   7023SM   C1F 9152   4.007   2.331   6.856  0.2473 -0.1330 -0.4838
   7023SM    OF 9153   4.093   2.402   6.908  0.6402  0.4003 -0.3910
   7023SM   C2F 9154   3.916   2.404   6.767  0.4710  0.3212 -0.2712
   7023SM   H2F 9155   3.813   2.397   6.807  1.4921 -1.9686  2.3229
   7023SM   H2G 9156   3.910   2.347   6.671  0.3606 -1.6552  0.8614
   7023SM   C3F 9157   3.947   2.553   6.724  0.0985  0.9577 -0.2001
   7023SM   H3F 9158   4.048   2.557   6.678  1.1222 -1.1646  1.6842
   7023SM   H3G 9159   3.940   2.615   6.816 -2.2401  0.8652 -0.2391
   7023SM   C4F 9160   3.839   2.613   6.630  0.0577 -0.0962 -0.2832
   7023SM   H4F 9161   3.881   2.715   6.615  0.4293 -0.1772  0.1925
   7023SM   H4G 9162   3.745   2.610   6.689 -0.3806  0.6066 -0.9195
   7023SM   C5F 9163   3.829   2.542   6.502 -0.3358  0.0131  0.4407
   7023SM   H5F 9164   3.761   2.455   6.511  1.4737 -1.8692 -2.3780
   7023SM   H5G 9165   3.926   2.496   6.473  0.0411  0.4517  0.9699
   7023SM   C6F 9166   3.782   2.627   6.387  0.2439  0.4753  0.4327
   7023SM   H6F 9167   3.846   2.717   6.374  2.1706 -1.0197 -1.0014
   7023SM   H6G 9168   3.679   2.666   6.400 -0.5690 -1.2568 -0.5536
   7023SM   C7F 9169   3.795   2.559   6.253 -0.5847 -0.0173  0.0994
   7023SM   H7F 9170   3.746   2.460   6.264  0.4644 -1.4278 -5.1848
   7023SM   H7G 9171   3.902   2.542   6.230 -0.4203  0.9866  0.0662
   7023SM   C8F 9172   3.737   2.645   6.142  0.1471  0.2618  0.3376
   7023SM   H8F 9173   3.795   2.739   6.134  0.2391  0.0948 -1.1518
   7023SM   H8G 9174   3.635   2.678   6.172  0.2922  0.5464  0.5197
   7023SM   C9F 9175   3.736   2.562   6.014  0.7487 -0.4965  0.5627
   7023SM   H9F 9176   3.690   2.463   6.034  1.3774 -0.8393  0.3500
   7023SM   H9G 9177   3.838   2.551   5.971  0.2316  1.4377 -1.3601
   7023SM  C10F 9178   3.651   2.628   5.904  0.6883 -0.1976 -0.5768
   7023SM  H10F 9179   3.691   2.731   5.896  0.3445  0.0797  0.9421
   7023SM  H10G 9180   3.547   2.647   5.940  0.9011  0.3522 -0.2457
   7023SM  C11F 9181   3.639   2.549   5.778 -0.4190 -0.8096 -0.0288
   7023SM  H11F 9182   3.591   2.451   5.799 -0.3821 -1.1288 -1.3117
   7023SM  H11G 9183   3.741   2.524   5.740 -0.5064 -1.3316  0.0734
   7023SM  C12F 9184   3.575   2.635   5.668 -0.5826 -0.2927  0.4349
   7023SM  H12F 9185   3.606   2.741   5.680  1.3957 -0.9979  2.0234
   7023SM  H12G 9186   3.466   2.639   5.689 -0.6132  0.9713  0.1156
   7023SM  C13F 9187   3.602   2.571   5.527 -0.4148 -0.4108  0.9987
   7023SM  H13F 9188   3.516   2.504   5.509 -1.5207  0.7846  1.6726
   7023SM  H13G 9189   3.699   2.520   5.508 -1.5658 -1.9094 -1.3249
   7023SM  C14F 9190   3.582   2.677   5.407  0.3391  0.1437 -0.5059
   7023SM  H14F 9191   3.678   2.692   5.353 -0.1280  0.2896 -1.2978
   7023SM  H14G 9192   3.548   2.773   5.451 -2.1163 -1.1056  0.5195
   7023SM  C15F 9193   3.480   2.628   5.305  0.2845  0.7950  0.2167
   7023SM  H15F 9194   3.381   2.605   5.350 -0.9153  0.5759 -2.3482
   7023SM  H15G 9195   3.497   2.529   5.256 -3.1107  0.5173 -0.6145
   7023SM  C16F 9196   3.467   2.728   5.190 -1.3236  0.5487 -0.0057
   7023SM  H16F 9197   3.562   2.727   5.132 -0.5763  0.9853  1.1732
   7023SM  H16G 9198   3.448   2.830   5.231  0.5931  0.9209  0.0262
   7023SM  C17F 9199   3.349   2.683   5.118 -0.3863 -0.2151  0.9584
   7023SM  H17F 9200   3.258   2.694   5.181 -1.2440 -2.0457  0.1266
   7023SM  H17G 9201   3.355   2.574   5.095  0.2899 -0.1070  0.6111
   7023SM  C18F 9202   3.321   2.744   4.977  0.3818  0.2450 -0.0736
   7023SM  H18F 9203   3.400   2.717   4.903  2.1176  0.5679  1.5759
   7023SM  H18G 9204   3.323   2.854   4.991 -1.8992  0.8722 -3.3483
   7023SM  C19F 9205   3.186   2.719   4.907 -0.3479 -0.1533 -0.3943
   7023SM  H19F 9206   3.168   2.611   4.925 -0.5400  0.2711  2.5892
   7023SM  H19G 9207   3.197   2.744   4.800 -0.2820 -2.3925 -0.9722
   7023SM  C20F 9208   3.068   2.792   4.976  0.3451  0.0760 -0.4322
   7023SM  H20F 9209   3.067   2.902   4.958  0.8666  0.3146  0.8953
   7023SM  H20G 9210   3.072   2.773   5.086  0.9785 -0.0214 -0.4700
   7023SM  C21F 9211   2.928   2.732   4.928 -0.2992 -0.1609 -0.0108
   7023SM  H21F 9212   2.926   2.626   4.961  0.1522 -0.6909 -1.5603
   7023SM  H21G 9213   2.925   2.728   4.817  0.8710 -0.2802 -0.0542
   7023SM  C22F 9214   2.803   2.808   4.977  0.0547  0.2997  0.1886
   7023SM  H22F 9215   2.802   2.807   5.088  1.2392 -1.4642  0.2194
   7023SM  H22G 9216   2.716   2.751   4.939 -0.6042  1.6526 -0.3924
   7023SM  C23F 9217   2.793   2.954   4.933  0.9977  0.5605 -0.7371
   7023SM  H23F 9218   2.780   2.964   4.823  1.3499  1.3526 -0.7119
   7023SM  H23G 9219   2.882   3.017   4.955  3.7621 -3.0957 -0.4100
   7023SM  H23H 9220   2.702   2.988   4.986  1.6150 -0.1733  0.8802
   7123SM     N 9221   6.246   7.124   7.559  0.0597 -0.4916 -0.2545
   7123SM   C15 9222   6.300   6.984   7.561  0.6053  0.9523 -0.0272
   7123SM  H15A 9223   6.227   6.910   7.531  0.9946  0.6871 -0.3183
   7123SM  H15B 9224   6.322   6.962   7.664  1.2481 -0.2174 -0.3903
   7123SM  H15C 9225   6.390   6.976   7.502  0.6175 -0.9945  0.1975
   7123SM   C14 9226   6.353   7.215   7.612 -0.2770  0.1685 -0.0858
   7123SM  H14A 9227   6.444   7.177   7.569 -0.9382  0.3748 -1.7220
   7123SM  H14B 9228   6.353   7.224   7.720 -1.1702 -0.7524  0.0103
   7123SM  H14C 9229   6.345   7.318   7.581  0.7340 -0.1089 -1.3737
   7123SM   C13 9230   6.219   7.162   7.415 -0.4685  0.5862  0.1886
   7123SM  H13A 9231   6.247   7.265   7.403 -1.0686  1.4184  4.4139
   7123SM  H13B 9232   6.116   7.140   7.390  0.3287 -1.5983 -1.5233
   7123SM  H13C 9233   6.284   7.111   7.345  0.5958  2.1170  0.0121
   7123SM   C12 9234   6.118   7.136   7.640  0.2420 -0.4634 -0.1980
   7123SM  H12A 9235   6.053   7.061   7.599 -1.4322  1.5415 -1.4397
   7123SM  H12B 9236   6.069   7.229   7.616 -0.8178 -0.2570  2.4428
   7123SM   C11 9237   6.120   7.140   7.790  0.2869  0.6526 -0.1961
   7123SM  H11A 9238   6.176   7.048   7.814 -1.1836 -0.2467 -0.0737
   7123SM  H11B 9239   6.018   7.126   7.833  0.0742  2.2421 -0.1128
   7123SM     P 9240   6.101   7.384   7.890  0.2978  0.6520  0.3194
   7123SM   O13 9241   6.013   7.343   8.002 -0.2160 -0.2038 -0.4993
   7123SM   O14 9242   6.188   7.496   7.918 -0.4372 -0.4041  0.0204
   7123SM   O11 9243   6.022   7.425   7.762 -0.6343  0.0296  0.0474
   7123SM   O12 9244   6.186   7.252   7.843 -0.3351  0.4897 -0.5276
   7123SM   C1S 9245   6.074   7.496   7.648 -0.0306 -0.5175 -0.0403
   7123SM   H1S 9246   6.164   7.447   7.605 -0.5277 -0.6492 -0.9547
   7123SM   H1T 9247   6.100   7.601   7.672  2.8472 -0.7544 -1.5808
   7123SM    NF 9248   6.018   7.601   7.430  0.7215  0.2681 -0.1591
   7123SM   HNF 9249   5.980   7.693   7.428  1.8665  0.7502 -2.1920
   7123SM   C2S 9250   5.969   7.503   7.523 -0.0926  0.2987 -0.5511
   7123SM   H2S 9251   5.975   7.404   7.475  1.5708  0.3202 -0.4449
   7123SM   C3S 9252   5.826   7.529   7.566 -0.3423  0.6963 -0.0689
   7123SM   H3S 9253   5.828   7.630   7.614 -0.0434  0.9149 -0.5336
   7123SM    O3 9254   5.768   7.436   7.660 -0.2815 -0.5398  0.4517
   7123SM   HO3 9255   5.847   7.400   7.700  1.2780  0.1909 -1.7945
   7123SM   C4S 9256   5.741   7.533   7.444  0.2460 -0.0172  0.2459
   7123SM   H4S 9257   5.730   7.434   7.398 -1.8226  0.5977 -0.6821
   7123SM   C5S 9258   5.664   7.632   7.401  0.5129 -0.3548 -0.5302
   7123SM   H5S 9259   5.673   7.728   7.453  1.2225 -0.7152  0.0361
   7123SM   C6S 9260   5.577   7.642   7.278  0.1658  0.4351  0.2413
   7123SM   H6S 9261   5.596   7.745   7.242 -0.3171  0.0559 -1.1879
   7123SM   H6T 9262   5.474   7.643   7.320 -0.0857  0.2032 -0.3537
   7123SM   C7S 9263   5.594   7.548   7.154  0.2996  0.1510 -0.0839
   7123SM   H7S 9264   5.552   7.448   7.179  0.0059  0.3118  0.0740
   7123SM   H7T 9265   5.702   7.528   7.140  0.3804  0.4372  0.1083
   7123SM   C8S 9266   5.536   7.610   7.030  0.1439 -0.1789 -0.6110
   7123SM   H8S 9267   5.586   7.707   7.010  1.1886 -0.6734 -0.4215
   7123SM   H8T 9268   5.426   7.612   7.047  0.6059  1.1275  3.3014
   7123SM   C9S 9269   5.572   7.526   6.910 -0.0377  0.5358 -0.1420
   7123SM   H9S 9270   5.525   7.425   6.915  1.0843  0.0548  1.6539
   7123SM   H9T 9271   5.678   7.499   6.890 -0.2157 -0.5327  0.2685
   7123SM  C10S 9272   5.502   7.592   6.787  0.0053  0.0280  0.3261
   7123SM  H10S 9273   5.561   7.683   6.764 -0.3760  0.3372  0.5470
   7123SM  H10T 9274   5.400   7.622   6.820 -1.2944 -2.6272 -0.9591
   7123SM  C11S 9275   5.507   7.498   6.667  0.3909 -0.4714  0.1482
   7123SM  H11S 9276   5.442   7.413   6.695  1.5443 -0.5939  2.7226
   7123SM  H11T 9277   5.610   7.461   6.648  0.9544  0.6859  0.8211
   7123SM  C12S 9278   5.469   7.573   6.536  0.8436  0.6729  0.2856
   7123SM  H12S 9279   5.549   7.643   6.503  1.8221 -1.3402 -1.9258
   7123SM  H12T 9280   5.377   7.634   6.539 -1.4695 -2.4402 -1.4185
   7123SM  C13S 9281   5.454   7.474   6.416  0.3728  0.2923 -0.1503
   7123SM  H13S 9282   5.355   7.429   6.437 -0.0081 -0.8269 -3.5818
   7123SM  H13T 9283   5.534   7.397   6.414 -0.1786 -0.3442 -2.8202
   7123SM  C14S 9284   5.435   7.533   6.272  0.1515 -0.4770  0.9771
   7123SM  H14S 9285   5.342   7.593   6.280  0.5423 -0.0524  2.8776
   7123SM  H14T 9286   5.420   7.444   6.206  1.8599 -1.2482  1.5716
   7123SM  C15S 9287   5.555   7.607   6.200  0.9586  0.7004  0.1196
   7123SM  H15S 9288   5.649   7.547   6.208  0.6630  0.1519 -0.5315
   7123SM  H15T 9289   5.563   7.702   6.258  0.8555  0.4018  0.6359
   7123SM  C16S 9290   5.544   7.637   6.050 -0.0018  0.5735  0.5213
   7123SM  H16S 9291   5.545   7.536   6.005  0.7654 -0.1486  2.0912
   7123SM  H16T 9292   5.631   7.700   6.020  0.5628  0.7146  2.3724
   7123SM  C17S 9293   5.410   7.695   5.998  0.0280 -0.4990  0.0390
   7123SM  H17S 9294   5.323   7.641   6.038  0.6692 -1.1614  0.5599
   7123SM  H17T 9295   5.408   7.673   5.889  0.9608 -2.9403  0.4495
   7123SM  C18S 9296   5.394   7.842   6.019  0.0042 -0.5037  0.2735
   7123SM  H18S 9297   5.479   7.900   5.977 -1.8211  3.5401  1.6119
   7123SM  H18T 9298   5.398   7.865   6.127  0.6254  0.5385  0.0421
   7123SM  H18U 9299   5.305   7.879   5.963  1.2227 -0.8501 -2.0395
   7123SM   C1F 9300   6.131   7.584   7.363  0.4536 -0.1655 -0.1043
   7123SM    OF 9301   6.189   7.481   7.370  0.7914 -0.3914  0.6965
   7123SM   C2F 9302   6.174   7.696   7.280  0.2210  0.3440 -0.0041
   7123SM   H2F 9303   6.248   7.763   7.331  1.9200 -0.6604 -1.0541
   7123SM   H2G 9304   6.083   7.753   7.253  0.7465  1.8079  1.1182
   7123SM   C3F 9305   6.245   7.652   7.151 -0.0166  0.1120  0.1819
   7123SM   H3F 9306   6.168   7.590   7.100  1.2450 -2.0515  0.7692
   7123SM   H3G 9307   6.331   7.582   7.161  0.1306 -0.1014 -2.0428
   7123SM   C4F 9308   6.301   7.767   7.066 -0.1014 -0.9210  0.1057
   7123SM   H4F 9309   6.374   7.825   7.126 -1.2140  3.2043 -2.1598
   7123SM   H4G 9310   6.224   7.841   7.036  2.1309  1.3191 -0.4467
   7123SM   C5F 9311   6.364   7.726   6.936  0.0526 -0.2129 -0.5203
   7123SM   H5F 9312   6.288   7.693   6.862  0.6953  1.1411 -1.8325
   7123SM   H5G 9313   6.428   7.638   6.957 -0.8217 -0.5454  0.8656
   7123SM   C6F 9314   6.437   7.838   6.848 -0.4528 -0.1845  0.4427
   7123SM   H6F 9315   6.527   7.872   6.904 -0.5955 -0.1334  0.6395
   7123SM   H6G 9316   6.368   7.924   6.856  0.3840  0.8822 -2.3868
   7123SM   C7F 9317   6.463   7.806   6.700 -0.2233 -0.2148 -0.1202
   7123SM   H7F 9318   6.370   7.789   6.643  0.7153 -4.1026 -0.7818
   7123SM   H7G 9319   6.516   7.709   6.693 -0.5795 -0.3275 -1.7031
   7123SM   C8F 9320   6.546   7.916   6.623  0.0192  0.1373 -0.3578
   7123SM   H8F 9321   6.654   7.895   6.643  0.7428  1.6478 -2.3356
   7123SM   H8G 9322   6.518   8.007   6.681 -1.1018  0.8906 -2.0327
   7123SM   C9F 9323   6.519   7.935   6.478 -0.4142 -0.2984 -0.0021
   7123SM   H9F 9324   6.550   8.032   6.434 -0.4520 -0.5465 -0.5765
   7123SM   H9G 9325   6.416   7.914   6.443 -0.1114  0.9689 -1.8159
   7123SM  C10F 9326   6.598   7.824   6.404 -1.1877 -0.3474  0.2553
   7123SM  H10F 9327   6.557   7.727   6.440 -0.1736 -0.3280  1.5180
   7123SM  H10G 9328   6.704   7.833   6.435 -0.5693 -4.0197 -0.2961
   7123SM  C11F 9329   6.588   7.823   6.256 -0.3997 -0.3537  0.0345
   7123SM  H11F 9330   6.669   7.888   6.214 -1.3862  1.0981  0.3033
   7123SM  H11G 9331   6.491   7.866   6.223  1.3993  2.8449 -1.6365
   7123SM  C12F 9332   6.606   7.690   6.192  0.2571  0.3969 -0.2616
   7123SM  H12F 9333   6.590   7.691   6.082 -0.1992 -0.7449 -0.2219
   7123SM  H12G 9334   6.522   7.630   6.234  3.0766 -1.6038  3.1303
   7123SM  C13F 9335   6.745   7.621   6.222 -0.5696  0.1348  0.0133
   7123SM  H13F 9336   6.755   7.606   6.332 -4.8699 -0.4813  0.4928
   7123SM  H13G 9337   6.821   7.697   6.195 -2.2023  1.6508 -0.4471
   7123SM  C14F 9338   6.777   7.493   6.141  0.0256  0.0307 -0.3849
   7123SM  H14F 9339   6.724   7.508   6.044 -2.2754 -2.1145  0.4295
   7123SM  H14G 9340   6.738   7.405   6.196 -0.5972  0.0828 -0.7330
   7123SM  C15F 9341   6.927   7.483   6.116  0.9350  0.2946 -0.5299
   7123SM  H15F 9342   6.977   7.461   6.213  0.1178 -2.9831 -0.7116
   7123SM  H15G 9343   6.962   7.583   6.084 -1.3703  1.0173 -0.9898
   7123SM  C16F 9344   6.965   7.363   6.023  0.1916  0.3769  0.6724
   7123SM  H16F 9345   6.908   7.273   6.055  0.3742  0.4702  1.2784
   7123SM  H16G 9346   7.072   7.332   6.021  0.4181  0.9262  2.3054
   7123SM  C17F 9347   6.921   7.399   5.873  0.3169 -0.4204 -0.2924
   7123SM  H17F 9348   7.008   7.442   5.821 -0.4965 -1.9916 -3.1530
   7123SM  H17G 9349   6.835   7.470   5.881  1.2180  0.6740 -0.1627
   7123SM  C18F 9350   6.870   7.274   5.803 -0.3758  0.4952  0.5776
   7123SM  H18F 9351   6.799   7.221   5.869  0.3545  0.3349  1.2485
   7123SM  H18G 9352   6.965   7.218   5.797 -1.6485 -1.6917 -0.0208
   7123SM  C19F 9353   6.815   7.293   5.661  0.6579  0.6643  0.2388
   7123SM  H19F 9354   6.720   7.351   5.658 -0.9508 -1.7914 -3.0409
   7123SM  H19G 9355   6.787   7.194   5.619 -1.3332  0.5763  1.6083
   7123SM  C20F 9356   6.901   7.372   5.554 -0.2462  0.4799 -0.1091
   7123SM  H20F 9357   6.950   7.457   5.606  0.1653 -0.3781  0.9575
   7123SM  H20G 9358   6.838   7.408   5.471 -0.3408 -2.1161 -1.2672
   7123SM  C21F 9359   7.006   7.273   5.487 -0.2317 -0.1363  0.7551
   7123SM  H21F 9360   6.951   7.190   5.436 -0.8888  2.3684 -3.0308
   7123SM  H21G 9361   7.059   7.229   5.574 -1.2589  1.6786  2.3775
   7123SM  C22F 9362   7.106   7.335   5.391 -0.2946  0.4350 -0.5340
   7123SM  H22F 9363   7.136   7.433   5.435  1.5755  0.4044 -1.6434
   7123SM  H22G 9364   7.050   7.354   5.297 -0.9654 -2.5440 -0.8113
   7123SM  C23F 9365   7.224   7.246   5.360  0.5635 -0.4811  0.4426
   7123SM  H23F 9366   7.312   7.296   5.313  0.0896  0.5268  0.6077
   7123SM  H23G 9367   7.194   7.156   5.302  0.4291 -0.6617  0.7870
   7123SM  H23H 9368   7.258   7.203   5.457  1.6188 -1.7274 -0.4392
   7223SM     N 9369   6.840   3.432   8.223 -0.2720  0.0551 -0.4764
   7223SM   C15 9370   6.843   3.579   8.265  0.7754  0.3581 -0.7297
   7223SM  H15A 9371   6.854   3.647   8.182  3.3559 -1.4810 -2.0104
   7223SM  H15B 9372   6.931   3.607   8.322  1.0278  0.9844 -1.4086
   7223SM  H15C 9373   6.751   3.604   8.316  1.1246 -2.0123  1.2328
   7223SM   C14 9374   6.978   3.386   8.195 -0.3263  0.3202 -0.4965
   7223SM  H14A 9375   6.984   3.281   8.169  0.9402  0.6634 -1.7602
   7223SM  H14B 9376   7.040   3.392   8.283 -0.8157 -0.8043 -0.0521
   7223SM  H14C 9377   7.027   3.442   8.116  1.5776 -0.3460  0.1705
   7223SM   C13 9378   6.780   3.346   8.331 -0.7823  0.1112  0.0914
   7223SM  H13A 9379   6.838   3.336   8.421  1.6315  1.7464 -1.1597
   7223SM  H13B 9380   6.755   3.248   8.294  0.0584 -1.5781  3.5752
   7223SM  H13C 9381   6.684   3.389   8.351 -0.5963  1.5487 -1.7965
   7223SM   C12 9382   6.744   3.413   8.102 -0.6754  0.9606 -0.0506
   7223SM  H12A 9383   6.647   3.452   8.129 -0.2077  1.1540  1.4770
   7223SM  H12B 9384   6.721   3.310   8.080 -0.1724  0.5011  1.4107
   7223SM   C11 9385   6.778   3.490   7.970 -0.0176  0.1011  0.3036
   7223SM  H11A 9386   6.724   3.455   7.879  0.3026 -1.3584  0.6552
   7223SM  H11B 9387   6.886   3.470   7.949  0.3660  0.4315  1.8605
   7223SM     P 9388   6.618   3.691   8.000  0.1223 -0.4879 -0.4524
   7223SM   O13 9389   6.549   3.635   8.121  0.1974 -0.2050  0.7572
   7223SM   O14 9390   6.625   3.838   7.987 -0.5592 -0.1135  0.4062
   7223SM   O11 9391   6.544   3.628   7.879 -0.1916 -0.0558 -0.2875
   7223SM   O12 9392   6.766   3.632   7.986  0.0731  0.3038 -1.1220
   7223SM   C1S 9393   6.581   3.659   7.748 -0.1675 -0.2961 -0.7939
   7223SM   H1S 9394   6.687   3.685   7.731  0.1971 -1.3437 -0.2361
   7223SM   H1T 9395   6.515   3.738   7.708  2.1276  1.0522 -2.1256
   7223SM    NF 9396   6.597   3.589   7.505 -0.3173 -0.2615 -0.4530
   7223SM   HNF 9397   6.518   3.588   7.444 -1.1529 -1.5451  0.5891
   7223SM   C2S 9398   6.563   3.543   7.644  0.0645  0.5284 -0.5128
   7223SM   H2S 9399   6.624   3.458   7.679 -1.5515 -0.0918  0.9662
   7223SM   C3S 9400   6.409   3.491   7.655  0.0414  0.0067  0.3632
   7223SM   H3S 9401   6.337   3.572   7.629  0.5591 -0.4046 -2.7266
   7223SM    O3 9402   6.365   3.453   7.787  0.7642 -0.8394 -0.1153
   7223SM   HO3 9403   6.431   3.492   7.846 -0.2597  1.6557 -0.5007
   7223SM   C4S 9404   6.377   3.376   7.559  0.3547  0.1176 -0.1516
   7223SM   H4S 9405   6.426   3.280   7.584  0.4692 -0.3273 -1.9648
   7223SM   C5S 9406   6.305   3.373   7.445  0.3141  0.0295  0.0724
   7223SM   H5S 9407   6.255   3.461   7.403 -0.1572 -1.0192 -1.6950
   7223SM   C6S 9408   6.277   3.247   7.368  0.2821 -0.4842 -0.5261
   7223SM   H6S 9409   6.170   3.221   7.357 -0.0001  0.9500 -1.3605
   7223SM   H6T 9410   6.328   3.160   7.414  0.3658 -0.9219 -1.4237
   7223SM   C7S 9411   6.338   3.264   7.222  0.1214 -0.3074 -0.6772
   7223SM   H7S 9412   6.280   3.349   7.178 -0.5413 -1.3861 -1.9513
   7223SM   H7T 9413   6.307   3.169   7.175 -0.4556 -1.6333  2.2063
   7223SM   C8S 9414   6.497   3.260   7.213  0.1676  0.3847 -0.5615
   7223SM   H8S 9415   6.527   3.178   7.281 -1.5633  0.5741  0.4850
   7223SM   H8T 9416   6.543   3.345   7.267  2.3042 -0.6505 -0.6539
   7223SM   C9S 9417   6.557   3.249   7.071  0.6742 -0.0826 -0.7936
   7223SM   H9S 9418   6.534   3.153   7.020  1.1828  0.0420 -1.2585
   7223SM   H9T 9419   6.666   3.266   7.069  0.6556 -0.0380 -1.4010
   7223SM  C10S 9420   6.494   3.350   6.979  0.0769  0.6218 -0.8704
   7223SM  H10S 9421   6.500   3.453   7.020  1.4811  0.4095 -0.4884
   7223SM  H10T 9422   6.383   3.338   6.978  0.0672 -0.1670  2.1292
   7223SM  C11S 9423   6.543   3.346   6.838  1.2703  0.1039  0.3122
   7223SM  H11S 9424   6.476   3.280   6.778 -0.8384  1.7985  0.6918
   7223SM  H11T 9425   6.651   3.325   6.820  1.0185 -1.2268  0.2729
   7223SM  C12S 9426   6.524   3.477   6.770 -0.3064 -0.4284 -0.3952
   7223SM  H12S 9427   6.581   3.560   6.817 -0.4150  0.1276 -1.2292
   7223SM  H12T 9428   6.420   3.518   6.764 -0.1408  0.0432 -0.1111
   7223SM  C13S 9429   6.566   3.478   6.620  0.1585  0.4175 -0.4694
   7223SM  H13S 9430   6.503   3.411   6.558 -1.3921  0.6219  0.8138
   7223SM  H13T 9431   6.674   3.449   6.617  0.0979  0.3111 -2.2236
   7223SM  C14S 9432   6.562   3.626   6.562 -0.0504  0.0433 -0.1886
   7223SM  H14S 9433   6.625   3.686   6.632  1.8728 -0.6957 -1.2185
   7223SM  H14T 9434   6.457   3.659   6.574  0.5757  1.5776  1.6186
   7223SM  C15S 9435   6.620   3.645   6.416 -0.4352  0.0338 -0.5883
   7223SM  H15S 9436   6.574   3.577   6.342 -2.6752  0.0942  0.6477
   7223SM  H15T 9437   6.725   3.615   6.436 -0.1459  0.4091 -1.4897
   7223SM  C16S 9438   6.629   3.796   6.370 -0.2108 -0.1629 -0.1732
   7223SM  H16S 9439   6.658   3.865   6.452 -0.5555  2.0748 -1.8192
   7223SM  H16T 9440   6.532   3.840   6.338  0.8126  0.8624 -2.0913
   7223SM  C17S 9441   6.728   3.808   6.255  0.1455 -0.1928  0.4066
   7223SM  H17S 9442   6.825   3.783   6.303 -0.9673 -2.2721  1.7664
   7223SM  H17T 9443   6.740   3.915   6.230 -0.8104 -0.3972 -1.0821
   7223SM  C18S 9444   6.712   3.724   6.127  0.1054  0.0931  0.1927
   7223SM  H18S 9445   6.614   3.738   6.077 -1.0145 -0.3562  2.1535
   7223SM  H18T 9446   6.729   3.615   6.146 -1.2971 -0.0046  1.0279
   7223SM  H18U 9447   6.787   3.748   6.049 -0.8434 -0.4969 -0.9357
   7223SM   C1F 9448   6.716   3.638   7.453  0.7985  0.3313  0.5102
   7223SM    OF 9449   6.817   3.652   7.524 -0.2385 -0.5390 -0.0806
   7223SM   C2F 9450   6.725   3.677   7.303  0.6854  0.2072 -0.1713
   7223SM   H2F 9451   6.732   3.787   7.301 -3.0998  0.6972  2.3129
   7223SM   H2G 9452   6.626   3.654   7.258  0.2010  0.6978  0.6204
   7223SM   C3F 9453   6.832   3.599   7.226  1.0778 -0.4900 -0.5692
   7223SM   H3F 9454   6.810   3.490   7.233 -1.9087  0.0470  0.0095
   7223SM   H3G 9455   6.928   3.609   7.280  0.8843  0.1063 -0.3234
   7223SM   C4F 9456   6.844   3.656   7.086  0.7541 -0.2314  0.9249
   7223SM   H4F 9457   6.893   3.756   7.086  0.0479  0.1287 -0.0582
   7223SM   H4G 9458   6.741   3.651   7.043  0.7316 -0.2458  0.9816
   7223SM   C5F 9459   6.939   3.578   6.991  0.3509 -0.1252 -0.2135
   7223SM   H5F 9460   6.924   3.468   6.990  1.0754 -0.4132  3.7479
   7223SM   H5G 9461   7.043   3.607   7.015 -0.1451  3.6160 -1.8790
   7223SM   C6F 9462   6.920   3.636   6.844 -0.0666  0.2402 -0.0133
   7223SM   H6F 9463   6.932   3.745   6.824  1.4774 -0.0159 -0.5904
   7223SM   H6G 9464   6.816   3.616   6.809  0.9885  0.5247 -3.7431
   7223SM   C7F 9465   7.022   3.570   6.756  0.6525 -0.0432 -0.4463
   7223SM   H7F 9466   7.023   3.464   6.788  2.0921  0.1363  0.1964
   7223SM   H7G 9467   7.120   3.604   6.798  1.0585 -0.5484 -0.9651
   7223SM   C8F 9468   7.015   3.597   6.607  0.7357  0.1343 -0.2844
   7223SM   H8F 9469   7.007   3.706   6.587 -0.8026 -0.0837 -1.0435
   7223SM   H8G 9470   6.920   3.549   6.573 -0.5418  2.6062 -0.4694
   7223SM   C9F 9471   7.134   3.564   6.528 -0.5934  0.0515  0.5546
   7223SM   H9F 9472   7.173   3.463   6.553  3.6746  1.8557  2.2430
   7223SM   H9G 9473   7.209   3.645   6.541 -0.3341  0.1811 -1.4213
   7223SM  C10F 9474   7.124   3.573   6.384  0.3025 -0.1320  0.2990
   7223SM  H10F 9475   7.097   3.677   6.358  0.0897 -0.8509 -2.8369
   7223SM  H10G 9476   7.047   3.500   6.350 -0.3721  0.8936 -0.4285
   7223SM  C11F 9477   7.262   3.570   6.316 -0.2126 -0.2188  0.0811
   7223SM  H11F 9478   7.315   3.480   6.354 -1.3671 -1.0535 -0.2378
   7223SM  H11G 9479   7.314   3.663   6.347 -0.1464  0.1065 -0.9415
   7223SM  C12F 9480   7.265   3.563   6.160  0.1202  0.6052 -0.2542
   7223SM  H12F 9481   7.371   3.592   6.144 -0.2774  1.9099 -0.6188
   7223SM  H12G 9482   7.198   3.640   6.116 -0.2158  0.2755 -0.3246
   7223SM  C13F 9483   7.232   3.422   6.104 -0.0198 -0.3165 -0.0694
   7223SM  H13F 9484   7.138   3.374   6.138 -0.0434 -0.2032  0.0266
   7223SM  H13G 9485   7.307   3.355   6.150  0.9716  1.2820  0.7468
   7223SM  C14F 9486   7.227   3.411   5.948  0.3768  0.6592 -0.1141
   7223SM  H14F 9487   7.298   3.481   5.900 -0.9340  1.0097 -1.6175
   7223SM  H14G 9488   7.128   3.440   5.907 -1.1298 -1.5313  1.7154
   7223SM  C15F 9489   7.261   3.266   5.901  0.1958 -0.2145 -0.1057
   7223SM  H15F 9490   7.169   3.205   5.894 -0.0627  0.1908 -0.2491
   7223SM  H15G 9491   7.337   3.227   5.973 -0.6434  0.5367  1.2268
   7223SM  C16F 9492   7.335   3.273   5.763  0.3630 -0.3027  0.3721
   7223SM  H16F 9493   7.351   3.165   5.742  1.0987 -0.3760  1.2566
   7223SM  H16G 9494   7.435   3.320   5.775 -0.1946  0.3233  3.1740
   7223SM  C17F 9495   7.250   3.341   5.651 -0.1422 -0.1181 -0.0690
   7223SM  H17F 9496   7.244   3.445   5.689 -0.2416 -0.7853  1.9044
   7223SM  H17G 9497   7.145   3.306   5.648 -1.2545  2.3756  3.1515
   7223SM  C18F 9498   7.327   3.335   5.514 -0.0510  0.1249 -0.3447
   7223SM  H18F 9499   7.316   3.229   5.482  1.3039 -0.0415 -0.3184
   7223SM  H18G 9500   7.428   3.374   5.539 -0.0565  0.2015 -0.4401
   7223SM  C19F 9501   7.259   3.441   5.425  0.1451  0.1615 -1.0870
   7223SM  H19F 9502   7.235   3.532   5.484 -0.4049  0.5927 -1.9426
   7223SM  H19G 9503   7.166   3.400   5.380  1.1170 -1.0563 -2.0785
   7223SM  C20F 9504   7.342   3.486   5.303  0.0990 -0.1605 -0.9822
   7223SM  H20F 9505   7.436   3.535   5.335 -0.4199  0.1424  0.0966
   7223SM  H20G 9506   7.270   3.545   5.242 -2.3169 -1.2078  0.6709
   7223SM  C21F 9507   7.375   3.369   5.203 -0.1922  0.1240 -0.5147
   7223SM  H21F 9508   7.285   3.322   5.159 -0.4499  1.2158 -1.1828
   7223SM  H21G 9509   7.426   3.286   5.256  0.8770  1.0097 -0.1234
   7223SM  C22F 9510   7.473   3.413   5.093 -0.6949 -0.6388 -0.1378
   7223SM  H22F 9511   7.527   3.324   5.052  2.0377  0.4533  0.8755
   7223SM  H22G 9512   7.540   3.480   5.150 -1.8228  2.0291 -1.7918
   7223SM  C23F 9513   7.406   3.487   4.974 -0.4919 -0.3382 -0.1688
   7223SM  H23F 9514   7.438   3.459   4.872 -0.8023  2.8780 -1.2524
   7223SM  H23G 9515   7.438   3.593   4.983  1.5661 -1.0787  3.1636
   7223SM  H23H 9516   7.296   3.488   4.967 -0.6924 -0.1145  2.1617
   7323SM     N 9517   4.770   2.545   7.696 -0.3927 -0.4923  0.3661
   7323SM   C15 9518   4.813   2.636   7.809  0.2373  0.5056 -0.5841
   7323SM  H15A 9519   4.821   2.591   7.907 -0.5553  1.3857 -0.0964
   7323SM  H15B 9520   4.734   2.709   7.814 -0.4574 -0.2900  0.4088
   7323SM  H15C 9521   4.899   2.695   7.782  1.2651 -0.5245  0.3270
   7323SM   C14 9522   4.876   2.437   7.690  0.3181 -0.0448 -0.4387
   7323SM  H14A 9523   4.970   2.483   7.718  0.5742 -0.6550 -0.2709
   7323SM  H14B 9524   4.887   2.397   7.590 -0.0687 -1.0167 -0.1091
   7323SM  H14C 9525   4.850   2.360   7.761  0.5998  0.5251  0.2856
   7323SM   C13 9526   4.624   2.506   7.698 -0.0088 -0.0301  0.4940
   7323SM  H13A 9527   4.612   2.428   7.625  2.1802  1.4900 -1.6549
   7323SM  H13B 9528   4.560   2.589   7.671  2.9779  2.2393 -0.1346
   7323SM  H13C 9529   4.604   2.466   7.797  1.4769 -2.1005  0.0127
   7323SM   C12 9530   4.774   2.632   7.565 -0.1893  0.1169  0.0107
   7323SM  H12A 9531   4.711   2.716   7.592  1.0245  0.9740  0.2808
   7323SM  H12B 9532   4.734   2.572   7.485  0.8474 -1.9458  0.9571
   7323SM   C11 9533   4.904   2.689   7.504 -0.1980  0.1994  0.2369
   7323SM  H11A 9534   4.891   2.741   7.406  1.3268  2.4066  1.1277
   7323SM  H11B 9535   4.976   2.605   7.502  0.5255  0.8245 -0.9257
   7323SM     P 9536   4.921   2.928   7.611 -0.6456 -0.2265  0.3137
   7323SM   O13 9537   4.773   2.932   7.603  0.2754 -0.4640  0.7264
   7323SM   O14 9538   4.982   2.994   7.728  0.0235  0.4253 -0.5600
   7323SM   O11 9539   4.965   3.015   7.492  0.2494 -0.0503 -0.6250
   7323SM   O12 9540   4.979   2.782   7.586 -0.1863  0.1798  0.2949
   7323SM   C1S 9541   5.104   3.056   7.477 -0.2690 -0.5880  0.2861
   7323SM   H1S 9542   5.178   2.974   7.489 -0.7468 -1.4027 -1.9112
   7323SM   H1T 9543   5.130   3.134   7.552 -1.3201 -0.7554  0.8324
   7323SM    NF 9544   5.286   3.121   7.324 -0.2924  0.3805  0.0252
   7323SM   HNF 9545   5.320   3.213   7.308  0.0266  0.0682 -1.1101
   7323SM   C2S 9546   5.140   3.107   7.336  0.1828  0.3487 -0.1059
   7323SM   H2S 9547   5.099   3.022   7.278 -0.9349 -0.8559  2.2770
   7323SM   C3S 9548   5.067   3.242   7.313 -0.6803 -0.0294 -0.1233
   7323SM   H3S 9549   5.092   3.313   7.395  0.8786 -0.0079 -0.5850
   7323SM    O3 9550   4.927   3.221   7.318 -0.0711 -0.1282 -0.2600
   7323SM   HO3 9551   4.921   3.131   7.351 -1.5835  0.8059  2.3404
   7323SM   C4S 9552   5.102   3.307   7.183  1.0410  0.1843  0.5908
   7323SM   H4S 9553   5.160   3.399   7.200  0.8086 -0.0934  3.3804
   7323SM   C5S 9554   5.063   3.266   7.061 -0.1252 -0.1104 -0.3715
   7323SM   H5S 9555   4.999   3.178   7.047 -0.8666  0.3237  0.1723
   7323SM   C6S 9556   5.100   3.346   6.937  0.5332 -0.5347 -0.2408
   7323SM   H6S 9557   5.180   3.421   6.952 -0.0918  0.3709 -1.3032
   7323SM   H6T 9558   5.012   3.399   6.897 -0.1907 -1.5444 -0.0406
   7323SM   C7S 9559   5.151   3.246   6.833  0.0691 -0.5790  0.6900
   7323SM   H7S 9560   5.083   3.160   6.811  0.6908 -1.0692  0.6459
   7323SM   H7T 9561   5.248   3.200   6.863 -0.3830 -1.4140  0.9221
   7323SM   C8S 9562   5.182   3.293   6.691 -0.0157 -0.7596  0.1673
   7323SM   H8S 9563   5.259   3.226   6.647 -0.1878  0.6648 -2.5800
   7323SM   H8T 9564   5.230   3.394   6.688 -1.3519 -0.1067 -0.1663
   7323SM   C9S 9565   5.055   3.303   6.601  0.9233 -0.5016 -0.6667
   7323SM   H9S 9566   4.986   3.362   6.664  1.3228 -1.0503  0.2985
   7323SM   H9T 9567   4.994   3.210   6.594 -0.8769  0.5969 -0.1079
   7323SM  C10S 9568   5.065   3.362   6.463  0.2472  0.8427  0.2072
   7323SM  H10S 9569   5.115   3.460   6.473  2.2629 -0.2268  1.2471
   7323SM  H10T 9570   4.959   3.390   6.441 -0.6199 -1.2824  1.3352
   7323SM  C11S 9571   5.132   3.277   6.357 -0.0062  0.3303  0.3897
   7323SM  H11S 9572   5.061   3.192   6.359 -0.7389  0.9428  1.0007
   7323SM  H11T 9573   5.234   3.252   6.393 -0.4688 -0.1230  1.4307
   7323SM  C12S 9574   5.137   3.335   6.218  0.2105 -0.5573 -0.1793
   7323SM  H12S 9575   5.141   3.446   6.207  1.2259 -0.6630 -1.1435
   7323SM  H12T 9576   5.038   3.306   6.177  0.6884 -3.1253  0.3209
   7323SM  C13S 9577   5.242   3.263   6.134 -0.0752 -0.0764  0.3824
   7323SM  H13S 9578   5.233   3.153   6.128 -0.6782  0.0574 -2.2052
   7323SM  H13T 9579   5.338   3.288   6.185 -0.8120  2.3209  0.7434
   7323SM  C14S 9580   5.251   3.319   5.988  0.1461  0.0683  0.1593
   7323SM  H14S 9581   5.254   3.429   5.996  0.5508  0.1141 -0.4741
   7323SM  H14T 9582   5.151   3.302   5.942 -1.1803  4.0065  1.2532
   7323SM  C15S 9583   5.366   3.272   5.902  0.3563  0.3511 -0.5916
   7323SM  H15S 9584   5.379   3.162   5.908 -0.7878  0.2505  0.5992
   7323SM  H15T 9585   5.459   3.317   5.945  0.8577 -0.3256 -0.9491
   7323SM  C16S 9586   5.362   3.331   5.760  0.2676  0.6393  0.1290
   7323SM  H16S 9587   5.344   3.441   5.761  1.3589  0.8564  2.3038
   7323SM  H16T 9588   5.280   3.272   5.713 -1.0047  1.3776  1.3504
   7323SM  C17S 9589   5.491   3.297   5.679 -0.2313  0.1356  1.0377
   7323SM  H17S 9590   5.508   3.188   5.688  0.9339 -0.1763 -2.8430
   7323SM  H17T 9591   5.580   3.336   5.731 -1.0336 -0.7394  3.1522
   7323SM  C18S 9592   5.475   3.345   5.532  0.2347 -0.3471 -0.4880
   7323SM  H18S 9593   5.574   3.334   5.482  1.4792  1.6737  1.3529
   7323SM  H18T 9594   5.445   3.451   5.520 -3.0234 -0.9161  1.4264
   7323SM  H18U 9595   5.396   3.278   5.491  0.2655 -0.6057 -0.1373
   7323SM   C1F 9596   5.353   3.014   7.288  0.6272 -0.3753 -0.2951
   7323SM    OF 9597   5.297   2.904   7.292 -0.0291 -0.0854 -0.1527
   7323SM   C2F 9598   5.502   3.038   7.270 -0.0194 -0.0191 -0.3215
   7323SM   H2F 9599   5.544   3.014   7.370  0.0311  0.9574 -0.0979
   7323SM   H2G 9600   5.512   3.145   7.243 -0.4900 -0.3421 -1.8948
   7323SM   C3F 9601   5.564   2.951   7.159  0.3119  0.0139 -0.0703
   7323SM   H3F 9602   5.570   2.846   7.194 -1.2924  0.1602  0.7414
   7323SM   H3G 9603   5.672   2.977   7.152  0.5589 -0.8954  0.1956
   7323SM   C4F 9604   5.501   2.974   7.024 -0.1250  0.0258  0.3761
   7323SM   H4F 9605   5.463   3.078   7.012  0.8288  0.2226 -1.1535
   7323SM   H4G 9606   5.421   2.897   7.016  0.2668 -0.5832  1.9460
   7323SM   C5F 9607   5.588   2.929   6.900  0.6564  0.3271  0.4604
   7323SM   H5F 9608   5.626   2.826   6.917  1.9986  1.0019  1.8989
   7323SM   H5G 9609   5.666   3.008   6.891 -1.3700  2.4322  0.2816
   7323SM   C6F 9610   5.507   2.919   6.768  0.0695 -0.6334  0.2196
   7323SM   H6F 9611   5.449   3.012   6.750  1.4983  0.0169 -1.3865
   7323SM   H6G 9612   5.434   2.836   6.758 -0.8198  0.3504 -2.6210
   7323SM   C7F 9613   5.597   2.907   6.644  0.2803  0.2372  0.0848
   7323SM   H7F 9614   5.623   2.800   6.629 -0.3390  0.0288  0.4512
   7323SM   H7G 9615   5.690   2.966   6.660  1.8430 -1.7741 -1.1175
   7323SM   C8F 9616   5.516   2.955   6.520 -0.1314  0.7165 -0.2778
   7323SM   H8F 9617   5.580   2.965   6.429 -1.0125 -1.5862 -1.2309
   7323SM   H8G 9618   5.466   3.051   6.544 -0.7951 -0.5447  4.2131
   7323SM   C9F 9619   5.399   2.864   6.473 -0.3557  0.6182  0.0509
   7323SM   H9F 9620   5.307   2.918   6.504 -0.0822  2.3764 -1.9803
   7323SM   H9G 9621   5.401   2.770   6.532  0.9288  0.9289  0.5319
   7323SM  C10F 9622   5.388   2.828   6.323  0.7590 -0.0455 -0.3202
   7323SM  H10F 9623   5.468   2.758   6.290  1.0880  0.3694 -0.4156
   7323SM  H10G 9624   5.411   2.915   6.258  0.1134  1.0546  0.8895
   7323SM  C11F 9625   5.245   2.772   6.282 -0.1373 -0.3782 -0.6412
   7323SM  H11F 9626   5.152   2.827   6.307  0.8981  1.6414 -1.0854
   7323SM  H11G 9627   5.250   2.688   6.355  1.6684  0.5883  0.4202
   7323SM  C12F 9628   5.240   2.714   6.137 -0.0293 -1.4785 -0.3083
   7323SM  H12F 9629   5.163   2.634   6.136  0.1099 -1.6225 -1.6766
   7323SM  H12G 9630   5.335   2.657   6.119 -0.6726 -2.5952 -0.2799
   7323SM  C13F 9631   5.212   2.820   6.024  0.1125 -0.1747  0.4883
   7323SM  H13F 9632   5.297   2.891   6.029  0.7518 -0.4168 -3.6258
   7323SM  H13G 9633   5.116   2.874   6.044  1.1732  1.8046  0.4695
   7323SM  C14F 9634   5.214   2.745   5.888  0.2806 -0.3007  0.6927
   7323SM  H14F 9635   5.168   2.646   5.908 -0.4534  0.0941  0.9972
   7323SM  H14G 9636   5.318   2.736   5.851 -0.1258  0.3671 -0.6873
   7323SM  C15F 9637   5.135   2.813   5.784 -0.6358 -0.4643  0.2879
   7323SM  H15F 9638   5.177   2.914   5.766 -1.0982 -0.3113  0.0404
   7323SM  H15G 9639   5.030   2.827   5.819 -1.1507 -1.0426 -0.9867
   7323SM  C16F 9640   5.133   2.745   5.645 -0.5953 -0.0223 -0.2543
   7323SM  H16F 9641   5.061   2.661   5.646 -0.5726 -0.0589  2.1207
   7323SM  H16G 9642   5.225   2.690   5.618  0.2698  1.2127  0.0668
   7323SM  C17F 9643   5.095   2.835   5.533 -0.6681 -0.2482  0.0369
   7323SM  H17F 9644   5.102   2.789   5.433 -0.5319  0.5185 -0.3107
   7323SM  H17G 9645   5.166   2.919   5.519 -0.4933 -0.2812  0.6538
   7323SM  C18F 9646   4.951   2.883   5.551  0.8169  0.0944 -0.3540
   7323SM  H18F 9647   4.950   2.963   5.629  2.3903 -0.4837  0.3054
   7323SM  H18G 9648   4.875   2.807   5.578  0.6781  0.8977  1.7089
   7323SM  C19F 9649   4.888   2.929   5.417  0.7302 -0.1527  0.1880
   7323SM  H19F 9650   4.778   2.948   5.421  0.6422  0.6728 -3.3101
   7323SM  H19G 9651   4.906   2.847   5.345  2.1880 -1.2051  1.6814
   7323SM  C20F 9652   4.953   3.047   5.348 -0.1099 -0.0328 -0.0516
   7323SM  H20F 9653   4.943   3.048   5.237  1.1654 -3.1951 -0.2945
   7323SM  H20G 9654   5.064   3.048   5.360 -0.2911  1.2878  1.8900
   7323SM  C21F 9655   4.901   3.186   5.396  0.1714 -0.3508  0.0746
   7323SM  H21F 9656   4.891   3.181   5.507  1.0684  0.4515  0.2004
   7323SM  H21G 9657   4.794   3.203   5.369  0.0298  0.2100  0.9378
   7323SM  C22F 9658   4.995   3.297   5.367  0.5746  0.0444 -0.2124
   7323SM  H22F 9659   5.099   3.258   5.372 -0.0551 -1.6455  0.2932
   7323SM  H22G 9660   4.995   3.382   5.438  0.1962 -1.9914  2.3727
   7323SM  C23F 9661   4.983   3.345   5.219 -0.7788  0.6191 -0.3965
   7323SM  H23F 9662   4.874   3.365   5.216 -0.5628  1.8239 -0.8394
   7323SM  H23G 9663   5.023   3.276   5.142 -0.6665  1.9249 -1.5553
   7323SM  H23H 9664   5.040   3.441   5.211 -1.6282  1.1175 -0.6195
   7423SM     N 9665   1.519   4.081   6.909  0.6250  0.1054 -0.4261
   7423SM   C15 9666   1.657   4.142   6.905  0.0124  0.1181  0.1243
   7423SM  H15A 9667   1.694   4.154   6.804 -1.5387 -1.6609 -0.7283
   7423SM  H15B 9668   1.725   4.074   6.953 -1.6913 -2.2101 -0.5679
   7423SM  H15C 9669   1.649   4.235   6.960  0.3035  1.6666 -2.2760
   7423SM   C14 9670   1.532   3.932   6.917  0.4648 -0.3867  0.1528
   7423SM  H14A 9671   1.611   3.894   6.854 -0.5309  0.2399 -1.5410
   7423SM  H14B 9672   1.438   3.887   6.890 -0.4153  0.7524  1.1821
   7423SM  H14C 9673   1.557   3.904   7.018 -1.1597  0.3947  0.8117
   7423SM   C13 9674   1.435   4.119   7.024 -0.0513  0.4416 -0.6261
   7423SM  H13A 9675   1.493   4.119   7.115 -0.7322  1.0736 -0.1818
   7423SM  H13B 9676   1.352   4.052   7.041 -0.7462  1.0894 -1.3720
   7423SM  H13C 9677   1.389   4.214   7.001  0.0899  0.0312 -2.8554
   7423SM   C12 9678   1.441   4.111   6.774  0.1295 -0.5270 -0.5683
   7423SM  H12A 9679   1.343   4.075   6.801 -1.0626  0.8248 -2.8018
   7423SM  H12B 9680   1.484   4.055   6.692  0.4045 -0.7006 -0.3060
   7423SM   C11 9681   1.422   4.266   6.747 -0.2575  0.1963  0.6432
   7423SM  H11A 9682   1.402   4.283   6.639  0.1329 -1.2603  0.3240
   7423SM  H11B 9683   1.519   4.317   6.767 -0.1518 -0.6070  2.2826
   7423SM     P 9684   1.173   4.301   6.822  0.2676  0.2460  0.3436
   7423SM   O13 9685   1.137   4.180   6.895  0.7513  0.6829  0.0292
   7423SM   O14 9686   1.104   4.426   6.866  0.3184 -0.3002 -0.1356
   7423SM   O11 9687   1.154   4.271   6.662  0.3685  0.1506 -0.5236
   7423SM   O12 9688   1.327   4.321   6.835  0.0900  0.5376 -0.2421
   7423SM   C1S 9689   1.088   4.371   6.589  0.0200 -0.5297 -0.1413
   7423SM   H1S 9690   1.158   4.455   6.573 -1.4350  0.8691  0.6447
   7423SM   H1T 9691   1.000   4.408   6.645  1.5517  0.1029  1.9591
   7423SM    NF 9692   0.990   4.427   6.360 -0.3984  0.4167 -0.1222
   7423SM   HNF 9693   0.895   4.434   6.332 -0.4643  0.4278  0.1094
   7423SM   C2S 9694   1.034   4.320   6.445  0.0046 -0.1589  0.4164
   7423SM   H2S 9695   1.117   4.265   6.394  0.8826  0.4275  1.1711
   7423SM   C3S 9696   0.918   4.220   6.476  0.0853  0.0463 -0.2968
   7423SM   H3S 9697   0.838   4.270   6.535 -0.3479 -0.1462 -0.7132
   7423SM    O3 9698   0.953   4.117   6.566 -0.2839  0.1630 -0.3866
   7423SM   HO3 9699   1.019   4.159   6.621 -1.6706 -0.7328  2.1465
   7423SM   C4S 9700   0.862   4.161   6.350 -0.5124 -0.0780 -0.3858
   7423SM   H4S 9701   0.931   4.107   6.284 -0.5383 -0.3240 -0.2134
   7423SM   C5S 9702   0.732   4.163   6.318 -0.7454  0.0034  0.3444
   7423SM   H5S 9703   0.656   4.212   6.381 -0.2550 -0.8381  1.6276
   7423SM   C6S 9704   0.658   4.104   6.195  0.0231  0.2580 -0.7929
   7423SM   H6S 9705   0.580   4.175   6.160  0.7135  0.3598 -2.1799
   7423SM   H6T 9706   0.603   4.012   6.225 -0.9567  0.1864 -2.6832
   7423SM   C7S 9707   0.753   4.060   6.082  0.0017 -0.3284  0.4324
   7423SM   H7S 9708   0.788   3.961   6.117 -1.9616 -1.0495  0.5078
   7423SM   H7T 9709   0.836   4.131   6.060 -0.8339 -0.1326 -2.6118
   7423SM   C8S 9710   0.690   4.041   5.942  0.1047  0.2485 -0.0961
   7423SM   H8S 9711   0.656   4.145   5.922  0.6880  0.2405 -1.1575
   7423SM   H8T 9712   0.597   3.981   5.955  0.3437  0.1472  1.3426
   7423SM   C9S 9713   0.785   3.977   5.843 -0.5989  0.4864  0.4581
   7423SM   H9S 9714   0.865   3.923   5.900 -0.7072  0.4836  0.6088
   7423SM   H9T 9715   0.834   4.056   5.783  1.0262 -1.9680 -1.6581
   7423SM  C10S 9716   0.709   3.876   5.757  0.4502 -0.7675  0.4690
   7423SM  H10S 9717   0.615   3.923   5.721  0.2710 -1.3946  0.1005
   7423SM  H10T 9718   0.676   3.805   5.835  0.3704  0.0979  1.2347
   7423SM  C11S 9719   0.791   3.809   5.644 -0.1170 -0.4265  0.0183
   7423SM  H11S 9720   0.756   3.705   5.635 -0.9169 -0.2375  0.7866
   7423SM  H11T 9721   0.897   3.812   5.677 -0.1482 -0.5199  0.1258
   7423SM  C12S 9722   0.778   3.895   5.517  0.2364  0.3726 -0.3561
   7423SM  H12S 9723   0.849   3.856   5.442  0.3146  0.4263 -0.3099
   7423SM  H12T 9724   0.815   3.999   5.533  0.5244  0.2433 -0.1759
   7423SM  C13S 9725   0.638   3.876   5.453  0.2920  0.4065 -0.0279
   7423SM  H13S 9726   0.565   3.940   5.507  0.0658 -1.3867  1.9230
   7423SM  H13T 9727   0.604   3.773   5.480 -0.6868  1.3086  2.5438
   7423SM  C14S 9728   0.624   3.891   5.299 -0.5053  0.0392  1.1290
   7423SM  H14S 9729   0.594   3.794   5.255 -2.3154  1.3989 -0.8534
   7423SM  H14T 9730   0.727   3.903   5.260 -0.5125 -0.2849  1.0096
   7423SM  C15S 9731   0.536   4.008   5.256  0.7515  0.4224 -0.5136
   7423SM  H15S 9732   0.594   4.099   5.281 -0.1925  0.6921  0.8225
   7423SM  H15T 9733   0.443   4.024   5.314  0.2547 -2.7314 -0.3018
   7423SM  C16S 9734   0.500   3.995   5.108 -0.1389 -0.1435  0.3860
   7423SM  H16S 9735   0.420   3.918   5.099 -2.3509  1.8341  1.8239
   7423SM  H16T 9736   0.591   3.968   5.050 -1.1086  0.3070 -1.4161
   7423SM  C17S 9737   0.462   4.124   5.041 -0.1213  0.0585  0.3279
   7423SM  H17S 9738   0.546   4.197   5.037  0.0067 -0.0977  0.1872
   7423SM  H17T 9739   0.381   4.169   5.102 -1.3593  0.1972 -1.3771
   7423SM  C18S 9740   0.411   4.097   4.896  0.6169  0.4663  0.0548
   7423SM  H18S 9741   0.356   4.188   4.861 -0.0686 -0.5736 -1.7092
   7423SM  H18T 9742   0.341   4.011   4.897  0.4411  0.5919 -0.8433
   7423SM  H18U 9743   0.496   4.075   4.829  1.2161 -0.2554  1.0394
   7423SM   C1F 9744   1.082   4.512   6.314  0.0924  0.1836 -0.6577
   7423SM    OF 9745   1.201   4.488   6.331  0.2556 -0.1321  1.3177
   7423SM   C2F 9746   1.032   4.626   6.239  0.3088 -0.5268  0.4498
   7423SM   H2F 9747   1.102   4.706   6.272 -0.8782  0.2603  1.1367
   7423SM   H2G 9748   0.922   4.642   6.251  0.1031  0.5546 -2.1928
   7423SM   C3F 9749   1.045   4.610   6.087 -0.0391  0.5026 -0.2810
   7423SM   H3F 9750   1.153   4.613   6.062 -0.2646  1.0784 -1.2381
   7423SM   H3G 9751   0.996   4.704   6.054  0.3023  0.5862 -0.5487
   7423SM   C4F 9752   0.988   4.485   6.022  0.0296 -0.1882  0.5262
   7423SM   H4F 9753   0.882   4.465   6.047 -0.4961  1.4433 -0.2888
   7423SM   H4G 9754   1.046   4.395   6.053 -0.4257 -0.4735  0.5481
   7423SM   C5F 9755   1.012   4.486   5.878  0.0713 -0.1841  0.7764
   7423SM   H5F 9756   1.118   4.503   5.850  0.2260  0.0480  1.4814
   7423SM   H5G 9757   0.958   4.564   5.820  0.5274 -1.1199 -0.9828
   7423SM   C6F 9758   0.958   4.360   5.807 -0.5990  0.2162  0.4808
   7423SM   H6F 9759   0.859   4.336   5.852  0.1149 -0.9620  1.4833
   7423SM   H6G 9760   1.021   4.272   5.835  0.8656  0.8817 -0.6225
   7423SM   C7F 9761   0.962   4.374   5.656  0.7458 -0.4183 -0.3324
   7423SM   H7F 9762   1.053   4.429   5.625  0.5365 -0.1574 -0.4890
   7423SM   H7G 9763   0.874   4.437   5.631  1.5599  0.1862 -1.7763
   7423SM   C8F 9764   0.953   4.240   5.582  0.0447 -0.9134 -0.5684
   7423SM   H8F 9765   0.852   4.201   5.607 -0.4946  0.4131 -0.5622
   7423SM   H8G 9766   1.034   4.172   5.616 -0.6773 -1.5109  0.0032
   7423SM   C9F 9767   0.984   4.256   5.430 -0.5525 -0.3150 -0.2289
   7423SM   H9F 9768   1.013   4.160   5.383 -0.4548 -1.5097  2.1085
   7423SM   H9G 9769   1.060   4.334   5.406 -1.3757  0.1193 -1.4998
   7423SM  C10F 9770   0.850   4.309   5.362 -0.4593 -0.6023 -0.2064
   7423SM  H10F 9771   0.803   4.378   5.435  1.0582  1.6578 -1.2405
   7423SM  H10G 9772   0.783   4.221   5.354 -2.3972  0.6749  1.1477
   7423SM  C11F 9773   0.878   4.391   5.235 -0.2189  0.0950  0.7649
   7423SM  H11F 9774   0.937   4.483   5.250 -0.9166  0.7409 -0.3453
   7423SM  H11G 9775   0.782   4.423   5.190 -0.4246  0.3980  1.4004
   7423SM  C12F 9776   0.946   4.314   5.121 -0.2389  0.0811 -0.3502
   7423SM  H12F 9777   0.884   4.223   5.104 -0.1187  0.0935 -0.8710
   7423SM  H12G 9778   1.046   4.285   5.161 -0.8704 -0.9405  0.5417
   7423SM  C13F 9779   0.962   4.388   4.991 -0.1685  0.1839 -0.3631
   7423SM  H13F 9780   1.027   4.333   4.920 -1.0827  0.8770 -1.8020
   7423SM  H13G 9781   1.006   4.490   5.003  1.7594 -0.8564  2.4813
   7423SM  C14F 9782   0.835   4.390   4.906  0.0687 -0.3685 -0.5916
   7423SM  H14F 9783   0.752   4.448   4.952 -2.4116 -1.3456 -3.4955
   7423SM  H14G 9784   0.799   4.290   4.875 -0.3064 -0.6646  0.7282
   7423SM  C15F 9785   0.857   4.448   4.768  0.2262 -0.7317 -0.1499
   7423SM  H15F 9786   0.920   4.388   4.698  0.3232  0.3572 -1.0191
   7423SM  H15G 9787   0.919   4.538   4.786  0.7949 -0.8798 -1.2533
   7423SM  C16F 9788   0.727   4.482   4.700  0.1968  0.3420  0.3875
   7423SM  H16F 9789   0.740   4.588   4.671  0.2533  0.3546  0.4581
   7423SM  H16G 9790   0.650   4.482   4.779 -0.6005  0.5054 -0.3686
   7423SM  C17F 9791   0.677   4.406   4.577 -0.7135 -0.4726 -0.4628
   7423SM  H17F 9792   0.668   4.297   4.600 -0.2313  0.0621  2.5805
   7423SM  H17G 9793   0.762   4.409   4.506 -0.8936 -2.9206 -0.8842
   7423SM  C18F 9794   0.543   4.457   4.529 -0.0407  0.3657  0.0360
   7423SM  H18F 9795   0.562   4.562   4.495 -0.7382  0.5092  0.0881
   7423SM  H18G 9796   0.470   4.449   4.612  2.6184 -0.8696  2.4127
   7423SM  C19F 9797   0.505   4.382   4.396  0.7318 -1.9143 -0.5606
   7423SM  H19F 9798   0.476   4.277   4.416  0.7715 -2.0567 -1.2298
   7423SM  H19G 9799   0.592   4.390   4.327  0.9803 -0.2136 -0.0862
   7423SM  C20F 9800   0.385   4.447   4.332  0.5498  0.0599  0.5045
   7423SM  H20F 9801   0.351   4.383   4.248 -0.8757 -2.7747  3.0195
   7423SM  H20G 9802   0.418   4.549   4.301  0.1114  0.7035  2.0605
   7423SM  C21F 9803   0.259   4.462   4.424  0.4628 -0.9967  0.0576
   7423SM  H21F 9804   0.273   4.515   4.520 -2.0911 -0.3650  0.1308
   7423SM  H21G 9805   0.216   4.361   4.440 -1.5762 -0.7168 -2.8403
   7423SM  C22F 9806   0.144   4.548   4.347  0.4421  0.4757 -0.1059
   7423SM  H22F 9807   0.198   4.631   4.297 -0.6571  1.1236 -0.2294
   7423SM  H22G 9808   0.082   4.587   4.430  1.2021  0.6579  0.3876
   7423SM  C23F 9809   0.059   4.476   4.243 -0.5775  0.7322 -0.3239
   7423SM  H23F 9810  -0.023   4.543   4.209 -0.2224  3.2533  3.1451
   7423SM  H23G 9811   0.010   4.391   4.296  1.5053 -0.7768 -0.6878
   7423SM  H23H 9812   0.116   4.439   4.156 -0.8353 -0.9876  0.2073
   7523SM     N 9813   7.287   5.233   7.783 -0.8534 -0.8549  0.3336
   7523SM   C15 9814   7.283   5.155   7.657 -0.1524 -0.2443  1.0196
   7523SM  H15A 9815   7.333   5.060   7.673 -1.6189 -1.2121  0.1136
   7523SM  H15B 9816   7.342   5.204   7.581 -0.3391  0.8669  1.5762
   7523SM  H15C 9817   7.182   5.140   7.622 -0.3417  2.0175  0.4742
   7523SM   C14 9818   7.430   5.240   7.837  0.4419 -1.0357  0.3437
   7523SM  H14A 9819   7.469   5.139   7.835  1.0545 -0.8236 -1.9559
   7523SM  H14B 9820   7.422   5.280   7.937 -0.1946  0.6304 -0.3484
   7523SM  H14C 9821   7.500   5.302   7.783  0.1256 -2.2377 -1.5419
   7523SM   C13 9822   7.245   5.370   7.761 -0.2038 -0.3136 -0.1819
   7523SM  H13A 9823   7.316   5.414   7.692 -2.2241  1.4673 -1.2218
   7523SM  H13B 9824   7.246   5.429   7.851  0.6732 -1.4552  0.5849
   7523SM  H13C 9825   7.151   5.378   7.709 -0.4025 -0.9929  0.0670
   7523SM   C12 9826   7.195   5.169   7.884  0.1456  0.2104  0.2088
   7523SM  H12A 9827   7.172   5.235   7.965 -0.3914 -2.4693  2.3950
   7523SM  H12B 9828   7.246   5.096   7.945 -3.2022 -0.5692  2.3570
   7523SM   C11 9829   7.061   5.109   7.833 -0.0699 -0.3903 -0.1889
   7523SM  H11A 9830   6.997   5.073   7.916  0.8363 -0.4080  0.5093
   7523SM  H11B 9831   7.078   5.035   7.752 -0.5897  0.9099 -1.5354
   7523SM     P 9832   6.884   5.203   7.674 -0.1725  0.4892 -0.0422
   7523SM   O13 9833   6.764   5.129   7.722  0.0245  0.5070  0.4853
   7523SM   O14 9834   6.873   5.334   7.609  0.0515  0.1792 -0.0937
   7523SM   O11 9835   6.969   5.112   7.578  0.1384 -0.3876  0.3207
   7523SM   O12 9836   6.982   5.223   7.793 -0.0746  0.0847 -0.4088
   7523SM   C1S 9837   6.928   5.001   7.499 -0.0912  0.0181  0.1997
   7523SM   H1S 9838   6.827   4.973   7.535  0.2701 -1.9906 -0.2516
   7523SM   H1T 9839   6.998   4.918   7.522 -1.0445 -0.9331 -0.2455
   7523SM    NF 9840   6.888   4.891   7.293  0.0488 -0.4113 -0.1148
   7523SM   HNF 9841   6.958   4.845   7.240  0.9986 -0.8935  1.4856
   7523SM   C2S 9842   6.923   5.021   7.343  0.7037 -0.2120 -0.1722
   7523SM   H2S 9843   6.840   5.092   7.325  0.1295  0.8916  5.1459
   7523SM   C3S 9844   7.053   5.080   7.293 -0.4299 -0.0167  0.7664
   7523SM   H3S 9845   7.134   5.008   7.317  0.0853 -0.1611 -1.2592
   7523SM    O3 9846   7.097   5.200   7.360 -0.5722  0.0302  0.1957
   7523SM   HO3 9847   7.029   5.203   7.427 -0.5351 -2.9148  0.5062
   7523SM   C4S 9848   7.038   5.094   7.141 -0.2771 -0.6704 -0.6604
   7523SM   H4S 9849   7.085   5.005   7.098 -1.4283 -1.8476  0.4539
   7523SM   C5S 9850   7.003   5.198   7.057 -0.0564  0.2477 -0.3159
   7523SM   H5S 9851   6.970   5.296   7.094 -0.1742 -0.1920  0.7564
   7523SM   C6S 9852   7.008   5.197   6.909  0.7002  0.9722  0.4067
   7523SM   H6S 9853   6.940   5.274   6.865 -0.1427 -0.6507 -1.3029
   7523SM   H6T 9854   6.968   5.102   6.866  0.7558  1.9719 -2.0592
   7523SM   C7S 9855   7.156   5.214   6.852 -0.0444  0.1462 -0.4886
   7523SM   H7S 9856   7.219   5.124   6.869  1.7094  1.2964 -0.6731
   7523SM   H7T 9857   7.207   5.293   6.910  1.3034 -2.0072  1.4117
   7523SM   C8S 9858   7.155   5.239   6.703 -0.4894  0.1009 -0.3908
   7523SM   H8S 9859   7.131   5.342   6.670 -0.1145  0.5161  0.5843
   7523SM   H8T 9860   7.099   5.155   6.655  0.3266 -0.9725  0.4721
   7523SM   C9S 9861   7.304   5.223   6.650  0.1702 -0.0472 -0.1882
   7523SM   H9S 9862   7.343   5.119   6.651 -0.3575 -0.2569  1.7367
   7523SM   H9T 9863   7.361   5.279   6.727 -2.1843  3.0161 -0.4738
   7523SM  C10S 9864   7.338   5.290   6.521 -0.4692 -0.5698 -0.4591
   7523SM  H10S 9865   7.289   5.390   6.520 -0.5598 -0.6151 -0.6179
   7523SM  H10T 9866   7.294   5.232   6.437 -2.3931 -1.4768  1.0890
   7523SM  C11S 9867   7.492   5.313   6.508  0.6734 -0.6917  0.8923
   7523SM  H11S 9868   7.549   5.218   6.500  1.8055  0.1452 -2.2318
   7523SM  H11T 9869   7.536   5.373   6.591 -1.0496  1.4169  0.3716
   7523SM  C12S 9870   7.520   5.395   6.375 -0.2598 -0.6727 -0.0700
   7523SM  H12S 9871   7.479   5.496   6.394  0.2840 -0.2917 -0.8855
   7523SM  H12T 9872   7.460   5.353   6.292 -1.4074  0.6964  0.0288
   7523SM  C13S 9873   7.670   5.399   6.321  0.6622 -0.0937 -0.3703
   7523SM  H13S 9874   7.694   5.295   6.292  2.0416 -0.1620  0.9267
   7523SM  H13T 9875   7.729   5.428   6.411 -0.0322  0.6398 -0.1339
   7523SM  C14S 9876   7.678   5.509   6.214  0.3580  0.3491  0.5295
   7523SM  H14S 9877   7.785   5.539   6.204  0.1994  1.1305  1.0204
   7523SM  H14T 9878   7.622   5.602   6.238 -0.3318  0.8402 -2.6112
   7523SM  C15S 9879   7.626   5.451   6.076  0.1678  0.3293 -0.2061
   7523SM  H15S 9880   7.517   5.440   6.090  0.5636 -2.2157  1.5618
   7523SM  H15T 9881   7.649   5.343   6.062 -0.8949  0.0684 -0.0545
   7523SM  C16S 9882   7.664   5.532   5.950 -0.5285  0.1668  0.7558
   7523SM  H16S 9883   7.773   5.551   5.951 -0.5638  0.4905  2.5151
   7523SM  H16T 9884   7.610   5.629   5.954 -0.8766 -0.0015  0.2360
   7523SM  C17S 9885   7.611   5.469   5.819  0.0298  0.5001  0.2046
   7523SM  H17S 9886   7.507   5.433   5.833  0.3644 -2.0997 -2.7834
   7523SM  H17T 9887   7.666   5.380   5.782 -1.2833 -0.1687 -0.2269
   7523SM  C18S 9888   7.599   5.572   5.708  0.0858 -0.0752  0.2520
   7523SM  H18S 9889   7.692   5.632   5.703 -0.1184  0.1146 -2.3517
   7523SM  H18T 9890   7.512   5.638   5.732  0.3905  0.3900  0.0737
   7523SM  H18U 9891   7.594   5.518   5.611 -1.6816  0.5269 -0.0356
   7523SM   C1F 9892   6.765   4.829   7.309 -0.3741  0.6004  0.1648
   7523SM    OF 9893   6.686   4.873   7.395 -0.0420 -0.5179 -0.3771
   7523SM   C2F 9894   6.741   4.697   7.236 -0.0438 -0.1338 -0.2239
   7523SM   H2F 9895   6.639   4.659   7.258 -0.1282  0.6483  0.8104
   7523SM   H2G 9896   6.818   4.625   7.270 -0.8070 -1.4272 -1.1606
   7523SM   C3F 9897   6.775   4.723   7.087  0.1460 -0.9722 -0.3560
   7523SM   H3F 9898   6.781   4.620   7.046  0.3018 -0.4649 -1.6391
   7523SM   H3G 9899   6.867   4.780   7.059 -0.0483 -1.0670 -1.1995
   7523SM   C4F 9900   6.654   4.787   7.016  0.1954  0.4303  0.2934
   7523SM   H4F 9901   6.636   4.877   7.079  2.2861  1.1054 -0.0220
   7523SM   H4G 9902   6.569   4.715   7.016  0.9080 -0.5488 -2.2986
   7523SM   C5F 9903   6.673   4.844   6.873 -0.5939 -0.4733  0.0972
   7523SM   H5F 9904   6.694   4.753   6.812 -1.1047 -1.4269  1.3038
   7523SM   H5G 9905   6.762   4.910   6.870 -0.0186 -1.2230  0.0971
   7523SM   C6F 9906   6.546   4.907   6.811 -0.0265 -0.3527 -1.2077
   7523SM   H6F 9907   6.512   4.984   6.885  1.0603  0.4234 -1.4892
   7523SM   H6G 9908   6.461   4.837   6.800 -0.4701 -0.3172  1.3676
   7523SM   C7F 9909   6.557   4.983   6.675  1.0819  0.0424 -0.3434
   7523SM   H7F 9910   6.631   5.066   6.675 -1.0592  2.2930  3.5812
   7523SM   H7G 9911   6.458   5.031   6.656  0.2508 -1.8365 -0.9956
   7523SM   C8F 9912   6.573   4.883   6.567 -0.6166  0.1716 -0.8942
   7523SM   H8F 9913   6.481   4.822   6.556 -0.0935 -0.2997 -3.1034
   7523SM   H8G 9914   6.655   4.816   6.601 -1.8133 -1.2550 -0.7339
   7523SM   C9F 9915   6.626   4.943   6.438  0.5731 -0.3780  0.2361
   7523SM   H9F 9916   6.723   4.991   6.464  1.5971 -1.9232 -0.5975
   7523SM   H9G 9917   6.555   5.016   6.394  0.2076 -0.7461  0.2067
   7523SM  C10F 9918   6.653   4.845   6.328 -0.7279  0.4252  0.6739
   7523SM  H10F 9919   6.558   4.817   6.277 -0.9255  3.3838 -0.7522
   7523SM  H10G 9920   6.691   4.748   6.367  0.0209 -0.0485 -1.1717
   7523SM  C11F 9921   6.744   4.913   6.218 -0.0727 -0.1625 -0.5374
   7523SM  H11F 9922   6.837   4.945   6.270  0.1379 -0.0173 -0.9948
   7523SM  H11G 9923   6.687   5.006   6.197 -0.3031  0.2161  1.5151
   7523SM  C12F 9924   6.768   4.826   6.098  0.7700  0.7111 -0.1295
   7523SM  H12F 9925   6.673   4.787   6.055 -1.3340  0.5322  4.1947
   7523SM  H12G 9926   6.822   4.732   6.122 -3.9430 -2.1441  0.5978
   7523SM  C13F 9927   6.838   4.911   5.992  0.4021 -0.3284  0.7497
   7523SM  H13F 9928   6.936   4.946   6.032  1.3309 -0.9315 -0.8745
   7523SM  H13G 9929   6.774   5.000   5.976  1.4101  0.5391  1.4234
   7523SM  C14F 9930   6.864   4.839   5.855  0.1305 -0.2317 -0.1711
   7523SM  H14F 9931   6.765   4.802   5.822  0.4767  0.2349 -1.8070
   7523SM  H14G 9932   6.935   4.758   5.881  0.5243  0.5748  1.4148
   7523SM  C15F 9933   6.929   4.940   5.756  0.2592 -0.0108  0.1331
   7523SM  H15F 9934   7.032   4.946   5.796  0.6331 -0.2315 -0.7756
   7523SM  H15G 9935   6.878   5.038   5.761  1.3755  0.5887 -0.0866
   7523SM  C16F 9936   6.921   4.894   5.609  0.7596  0.1290  0.2410
   7523SM  H16F 9937   6.814   4.889   5.580  1.0006  2.1848 -1.1729
   7523SM  H16G 9938   6.972   4.795   5.603  0.9895  0.2955 -0.7094
   7523SM  C17F 9939   6.985   4.997   5.520 -0.3536  0.3601 -0.0092
   7523SM  H17F 9940   7.095   4.992   5.539  0.0346 -1.9572 -2.3356
   7523SM  H17G 9941   6.945   5.100   5.536  1.3773  1.5001 -2.4002
   7523SM  C18F 9942   6.961   4.955   5.379  0.3908  0.4053 -0.5877
   7523SM  H18F 9943   6.997   4.850   5.377  2.4412  1.0777 -1.1923
   7523SM  H18G 9944   7.034   5.007   5.313  0.3835  0.3213 -0.6623
   7523SM  C19F 9945   6.816   4.967   5.317  0.3815 -0.2728 -0.0515
   7523SM  H19F 9946   6.742   4.896   5.358 -2.4899  2.2497 -0.5079
   7523SM  H19G 9947   6.823   4.933   5.212 -1.7937 -0.0130 -0.3191
   7523SM  C20F 9948   6.763   5.109   5.319  0.0624 -0.4544 -0.2185
   7523SM  H20F 9949   6.731   5.133   5.423 -1.8137 -0.8798 -0.6529
   7523SM  H20G 9950   6.664   5.101   5.268 -0.3174 -1.0739  0.6011
   7523SM  C21F 9951   6.850   5.224   5.258  0.4839  0.3001  0.3913
   7523SM  H21F 9952   6.896   5.185   5.165  1.1748 -0.5809  1.0849
   7523SM  H21G 9953   6.931   5.260   5.326 -0.5788  0.7266  1.4757
   7523SM  C22F 9954   6.758   5.335   5.217 -0.6924 -0.1181 -0.0114
   7523SM  H22F 9955   6.665   5.299   5.167 -0.6076  0.2248 -0.4187
   7523SM  H22G 9956   6.814   5.398   5.145 -0.5678 -0.4547 -0.2123
   7523SM  C23F 9957   6.704   5.432   5.327 -0.0041  0.3066  0.0783
   7523SM  H23F 9958   6.612   5.485   5.293  0.1248  0.2120 -0.4384
   7523SM  H23G 9959   6.787   5.500   5.354  0.5310  0.0708 -0.9321
   7523SM  H23H 9960   6.687   5.367   5.415  0.2099  1.1734  0.7693
   7623SM     N 9961   0.393   4.682   7.441  0.1737  0.1189  0.1518
   7623SM   C15 9962   0.454   4.768   7.551 -0.1697  0.3022  0.7374
   7623SM  H15A 9963   0.379   4.839   7.582 -0.0858  0.9799 -0.5526
   7623SM  H15B 9964   0.540   4.821   7.513 -0.8374  0.2406 -0.9307
   7623SM  H15C 9965   0.489   4.713   7.638  1.6265  2.3095  1.3655
   7623SM   C14 9966   0.499   4.606   7.373 -0.0911  0.0979  0.2545
   7623SM  H14A 9967   0.460   4.529   7.308 -0.1892 -0.0898  0.5343
   7623SM  H14B 9968   0.558   4.550   7.443 -0.0158 -2.4560 -1.7033
   7623SM  H14C 9969   0.555   4.672   7.309  0.0281  0.4641  0.7305
   7623SM   C13 9970   0.291   4.586   7.494 -0.5086  0.1842 -0.0545
   7623SM  H13A 9971   0.263   4.521   7.412 -0.3031  0.4532 -0.3368
   7623SM  H13B 9972   0.196   4.626   7.525 -1.4663 -1.5337 -0.6052
   7623SM  H13C 9973   0.336   4.519   7.566  1.5536  0.1772 -1.2703
   7623SM   C12 9974   0.332   4.771   7.327 -0.2969  0.0562  0.2757
   7623SM  H12A 9975   0.414   4.830   7.289  0.4789 -0.6216  0.8744
   7623SM  H12B 9976   0.263   4.848   7.360  0.6511  2.2244 -2.3778
   7623SM   C11 9977   0.267   4.704   7.204 -0.1441  0.1117 -0.2041
   7623SM  H11A 9978   0.343   4.640   7.153  0.5209  1.1072 -0.5051
   7623SM  H11B 9979   0.242   4.780   7.126  2.5751  0.0498 -1.2615
   7623SM     P 9980   0.024   4.709   7.288  0.4571 -0.2054 -0.4101
   7623SM   O13 9981  -0.033   4.632   7.401 -0.3471 -0.0598  0.1850
   7623SM   O14 9982   0.053   4.847   7.324  0.1943  0.0141  0.8818
   7623SM   O11 9983  -0.071   4.707   7.161  0.2681  0.3102  0.5241
   7623SM   O12 9984   0.155   4.627   7.239  0.1208  0.2925  0.6949
   7623SM   C1S 9985  -0.030   4.643   7.039  0.2593  0.0856  0.6917
   7623SM   H1S 9986   0.005   4.538   7.042 -2.4831 -0.8945  0.7245
   7623SM   H1T 9987   0.042   4.707   6.983 -0.9406 -0.5846 -1.7808
   7623SM    NF 9988  -0.104   4.618   6.807  0.1333  0.1861 -0.4410
   7623SM   HNF 9989  -0.111   4.698   6.748  2.4608 -0.0839 -1.1827
   7623SM   C2S 9990  -0.155   4.634   6.942 -0.2647  0.0385 -0.8089
   7623SM   H2S 9991  -0.212   4.545   6.976  0.5921 -1.0450 -2.1164
   7623SM   C3S 9992  -0.247   4.761   6.949  0.3819  0.5507  0.0728
   7623SM   H3S 9993  -0.190   4.855   6.933  0.5973  0.2510 -1.0252
   7623SM    O3 9994  -0.317   4.764   7.072  0.2444 -0.3338  0.5492
   7623SM   HO3 9995  -0.263   4.718   7.137 -0.4067 -1.9292  0.0191
   7623SM   C4S 9996  -0.364   4.753   6.853  0.1981 -0.8260 -0.0320
   7623SM   H4S 9997  -0.437   4.678   6.886  0.7868 -1.4332 -0.0814
   7623SM   C5S 9998  -0.369   4.824   6.739 -0.1513  0.7396 -0.4884
   7623SM   H5S 9999  -0.286   4.889   6.706  0.5025 -0.8966 -2.2769
   7623SM   C6S10000  -0.484   4.824   6.638 -0.2015  0.0805  0.0472
   7623SM   H6S10001  -0.505   4.927   6.604 -2.0971 -1.0491 -2.6377
   7623SM   H6T10002  -0.581   4.787   6.678 -1.1324  0.8019 -1.4553
   7623SM   C7S10003  -0.449   4.731   6.516  0.7738  0.0177  0.4644
   7623SM   H7S10004  -0.536   4.744   6.447  0.3680  0.2458  1.0115
   7623SM   H7T10005  -0.444   4.626   6.549  0.4435  0.5265  2.2315
   7623SM   C8S10006  -0.329   4.773   6.441  0.4879 -0.4127  0.1678
   7623SM   H8S10007  -0.233   4.753   6.495  0.7661  0.1470 -0.1082
   7623SM   H8T10008  -0.327   4.883   6.430 -3.8628 -0.3487 -1.9947
   7623SM   C9S10009  -0.313   4.714   6.300 -0.1710 -0.4592 -0.3537
   7623SM   H9S10010  -0.209   4.735   6.265  0.8896  0.1552  2.8780
   7623SM   H9T10011  -0.379   4.776   6.237  1.7842  1.8753 -0.2494
   7623SM  C10S10012  -0.341   4.561   6.281  0.3147  0.3395  0.3760
   7623SM  H10S10013  -0.439   4.519   6.313 -0.3127  0.9254 -0.7056
   7623SM  H10T10014  -0.263   4.512   6.343  0.6147 -0.0956 -0.3308
   7623SM  C11S10015  -0.330   4.517   6.138  0.2497  0.1052  0.1171
   7623SM  H11S10016  -0.419   4.547   6.079  1.5376  0.0812 -1.9408
   7623SM  H11T10017  -0.341   4.406   6.141 -1.3305  0.2488  3.0107
   7623SM  C12S10018  -0.210   4.566   6.058 -0.4010  0.2117 -0.3670
   7623SM  H12S10019  -0.122   4.554   6.125 -0.7184  1.6139  0.3334
   7623SM  H12T10020  -0.226   4.673   6.033  2.5391  0.6158 -0.8289
   7623SM  C13S10021  -0.193   4.488   5.930  0.3828  0.2586 -0.2433
   7623SM  H13S10022  -0.273   4.524   5.862  1.6094 -1.0116 -2.4599
   7623SM  H13T10023  -0.207   4.379   5.948 -1.0680  0.2125 -1.4369
   7623SM  C14S10024  -0.060   4.522   5.857 -0.5864 -0.4668 -0.0613
   7623SM  H14S10025   0.022   4.497   5.928 -0.4027  0.1137 -0.0643
   7623SM  H14T10026  -0.059   4.631   5.836  0.4805 -0.4479  0.0244
   7623SM  C15S10027  -0.039   4.423   5.741  0.1482  0.3611 -0.1095
   7623SM  H15S10028  -0.081   4.327   5.778  2.5576 -0.7863 -0.1550
   7623SM  H15T10029   0.070   4.406   5.728 -0.1464  0.6998 -4.1145
   7623SM  C16S10030  -0.098   4.469   5.607 -0.8093  0.0712 -0.2903
   7623SM  H16S10031  -0.081   4.567   5.557  0.0735 -0.2798 -0.6923
   7623SM  H16T10032  -0.208   4.472   5.621 -0.9113 -1.0399 -0.7731
   7623SM  C17S10033  -0.076   4.349   5.509 -0.1874 -0.4550 -0.0074
   7623SM  H17S10034  -0.112   4.263   5.569  0.6699 -0.3578  0.6696
   7623SM  H17T10035   0.030   4.321   5.491 -0.8457 -2.9701 -0.4009
   7623SM  C18S10036  -0.158   4.362   5.380 -0.4455  0.3160  0.0045
   7623SM  H18S10037  -0.260   4.358   5.425 -0.5389 -0.1813 -0.2493
   7623SM  H18T10038  -0.146   4.277   5.311  0.4308 -0.4181  1.0345
   7623SM  H18U10039  -0.147   4.463   5.334  1.1374  1.1984  2.1441
   7623SM   C1F10040  -0.059   4.510   6.754  0.7571  1.0882 -0.0830
   7623SM    OF10041  -0.059   4.404   6.812  0.0755  0.1916  0.4599
   7623SM   C2F10042  -0.006   4.525   6.611  0.1418  0.3442  0.0073
   7623SM   H2F10043   0.054   4.618   6.620  0.6415 -0.0494  1.0004
   7623SM   H2G10044  -0.090   4.547   6.543  0.2048  2.1421  0.4492
   7623SM   C3F10045   0.070   4.411   6.558 -0.4363  0.0511 -0.2240
   7623SM   H3F10046   0.006   4.321   6.554 -0.3204 -0.0526  0.1907
   7623SM   H3G10047   0.155   4.367   6.615 -0.6877 -1.0582 -0.6917
   7623SM   C4F10048   0.113   4.453   6.416  0.2085  0.6582  0.2110
   7623SM   H4F10049   0.176   4.544   6.424 -0.4752  1.0863  0.8489
   7623SM   H4G10050   0.026   4.488   6.357  0.1762  2.7234  1.3992
   7623SM   C5F10051   0.197   4.338   6.352  0.0104  0.3208  0.5424
   7623SM   H5F10052   0.140   4.244   6.365 -0.3131  0.6424  1.5351
   7623SM   H5G10053   0.299   4.329   6.396  0.5674  0.9106 -0.5608
   7623SM   C6F10054   0.204   4.354   6.196 -0.6757  0.1453 -0.0925
   7623SM   H6F10055   0.250   4.452   6.171 -2.6157  1.2288  0.3957
   7623SM   H6G10056   0.096   4.347   6.172 -0.9048 -0.6022  1.0912
   7623SM   C7F10057   0.264   4.236   6.122  0.1158 -0.1963  0.0579
   7623SM   H7F10058   0.212   4.142   6.152  0.6139 -0.1813  1.0076
   7623SM   H7G10059   0.373   4.225   6.139  0.0244 -2.8501 -0.7000
   7623SM   C8F10060   0.231   4.246   5.970 -0.6925  0.1769  0.7500
   7623SM   H8F10061   0.261   4.348   5.936  2.2364 -1.1859 -1.1215
   7623SM   H8G10062   0.121   4.255   5.955 -0.4310  0.5724 -1.2227
   7623SM   C9F10063   0.286   4.131   5.884  0.1822 -0.5806 -0.6068
   7623SM   H9F10064   0.217   4.044   5.886  1.3647 -1.5711 -1.3689
   7623SM   H9G10065   0.377   4.096   5.936  0.2352  0.1373 -0.2083
   7623SM  C10F10066   0.329   4.156   5.735  0.4435 -0.3906  0.5074
   7623SM  H10F10067   0.239   4.201   5.689  1.9527  0.5172 -1.7155
   7623SM  H10G10068   0.352   4.055   5.694  0.2018 -0.3352  0.2378
   7623SM  C11F10069   0.438   4.265   5.720  0.5081  0.1385  1.0896
   7623SM  H11F10070   0.528   4.228   5.774  0.4439 -0.4676  0.7906
   7623SM  H11G10071   0.398   4.359   5.763 -1.2738  0.4915 -1.1302
   7623SM  C12F10072   0.494   4.294   5.583  0.5252 -0.0331  0.1919
   7623SM  H12F10073   0.518   4.209   5.516  1.2883  2.3762 -2.8164
   7623SM  H12G10074   0.584   4.359   5.589 -0.0983  0.7058  3.6674
   7623SM  C13F10075   0.393   4.362   5.493  0.1947 -0.7455  0.3689
   7623SM  H13F10076   0.358   4.452   5.548  2.2182  0.2289  0.1548
   7623SM  H13G10077   0.305   4.294   5.484 -1.9366  2.0549 -2.8448
   7623SM  C14F10078   0.447   4.400   5.349  0.1600 -0.6242 -0.2975
   7623SM  H14F10079   0.471   4.303   5.301  0.2224  0.3307 -2.2767
   7623SM  H14G10080   0.535   4.465   5.368 -1.8287  2.6078 -1.1405
   7623SM  C15F10081   0.342   4.477   5.267  0.4848 -0.2104  0.2158
   7623SM  H15F10082   0.318   4.575   5.314 -2.2414 -0.0215 -1.3549
   7623SM  H15G10083   0.247   4.419   5.268 -0.9059  1.9773  1.2086
   7623SM  C16F10084   0.396   4.510   5.123  1.2068  0.2320  0.4751
   7623SM  H16F10085   0.421   4.412   5.077 -2.2261 -0.8480  0.6538
   7623SM  H16G10086   0.481   4.582   5.133 -1.6617  4.0394 -0.3206
   7623SM  C17F10087   0.289   4.577   5.032  0.0601  0.7722 -0.7232
   7623SM  H17F10088   0.244   4.659   5.092  0.0897 -0.1488  0.6305
   7623SM  H17G10089   0.207   4.503   5.014 -1.0975  1.5429  1.0252
   7623SM  C18F10090   0.338   4.648   4.912  0.2843 -0.1769 -0.2457
   7623SM  H18F10091   0.261   4.719   4.876  0.8885  0.3096 -0.5981
   7623SM  H18G10092   0.356   4.573   4.831 -0.2676  0.5768 -1.0896
   7623SM  C19F10093   0.467   4.736   4.939 -0.1840 -0.0677 -0.9982
   7623SM  H19F10094   0.549   4.663   4.955  0.3724  0.8262  0.5249
   7623SM  H19G10095   0.444   4.791   5.033  0.3965  3.0576 -2.5436
   7623SM  C20F10096   0.494   4.826   4.820  0.2943 -0.0666 -0.5149
   7623SM  H20F10097   0.429   4.916   4.823 -0.2298 -0.4469 -0.4599
   7623SM  H20G10098   0.465   4.772   4.727  0.5521 -0.2421 -0.4938
   7623SM  C21F10099   0.642   4.864   4.802  0.2535  0.0220 -0.0063
   7623SM  H21F10100   0.686   4.763   4.796 -3.6686 -1.8788  0.0475
   7623SM  H21G10101   0.685   4.925   4.884 -0.3335 -0.4657  0.6665
   7623SM  C22F10102   0.681   4.942   4.665  0.2646 -0.4620  0.2555
   7623SM  H22F10103   0.629   4.898   4.577  1.4965 -1.7629  0.1458
   7623SM  H22G10104   0.787   4.917   4.646  0.2537 -2.0176  1.9226
   7623SM  C23F10105   0.651   5.093   4.674  0.3212 -0.3706  0.0386
   7623SM  H23F10106   0.542   5.112   4.680 -0.4668 -4.2093  0.3522
   7623SM  H23G10107   0.684   5.148   4.583  0.8946 -0.4052  0.2259
   7623SM  H23H10108   0.704   5.130   4.764  1.6684 -0.1059 -0.8409
   7723SM     N10109   0.192   0.947   7.439 -0.1735 -0.2088 -0.2787
   7723SM   C1510110   0.203   1.090   7.493  0.4343  0.2244 -0.1654
   7723SM  H15A10111   0.137   1.108   7.576  0.6136  0.5448 -0.0905
   7723SM  H15B10112   0.176   1.160   7.416  1.4242  0.2884 -0.4703
   7723SM  H15C10113   0.306   1.117   7.513 -0.1596  1.4600  1.3539
   7723SM   C1410114   0.221   0.847   7.542  0.4723 -0.2348  0.2749
   7723SM  H14A10115   0.196   0.749   7.505 -2.3134  0.2406  0.6665
   7723SM  H14B10116   0.161   0.858   7.631  3.0963  2.0449  1.9530
   7723SM  H14C10117   0.325   0.858   7.571  0.0965 -0.6415  1.8500
   7723SM   C1310118   0.049   0.916   7.404  0.5238 -0.2464 -0.4189
   7723SM  H13A10119   0.034   0.816   7.366  0.3372 -0.2600 -0.3115
   7723SM  H13B10120   0.002   0.994   7.346 -0.8381 -1.0983 -0.4889
   7723SM  H13C10121  -0.010   0.915   7.495  0.2215  0.4943 -0.5955
   7723SM   C1210122   0.284   0.933   7.315  0.1296 -0.2113  0.9009
   7723SM  H12A10123   0.247   1.002   7.240 -2.3992 -0.3427  1.9098
   7723SM  H12B10124   0.254   0.837   7.276 -0.7055 -0.3737  1.8914
   7723SM   C1110125   0.438   0.955   7.332  0.4962 -0.1890  0.7959
   7723SM  H11A10126   0.493   0.935   7.237 -1.2921 -0.1914 -0.2727
   7723SM  H11B10127   0.476   0.878   7.402  2.7327 -1.1214 -1.2943
   7723SM     P10128   0.496   1.197   7.274  0.0112  0.0987  0.4555
   7723SM   O1310129   0.477   1.328   7.336 -0.2370  0.4861 -0.8491
   7723SM   O1410130   0.632   1.172   7.221 -0.3750 -0.8439  0.3110
   7723SM   O1110131   0.390   1.163   7.161 -0.2526 -0.4576  0.0438
   7723SM   O1210132   0.466   1.084   7.383  0.6162 -0.0897 -0.2439
   7723SM   C1S10133   0.372   1.244   7.044  0.2860 -0.8083 -0.5092
   7723SM   H1S10134   0.435   1.336   7.041 -0.2988 -0.3637  0.3000
   7723SM   H1T10135   0.272   1.291   7.038  0.5460 -0.3355 -1.2180
   7723SM    NF10136   0.385   1.257   6.799 -0.3481  0.1554  0.1950
   7723SM   HNF10137   0.306   1.280   6.743  0.7776  1.4520 -0.9286
   7723SM   C2S10138   0.374   1.162   6.910  0.9627 -0.5141 -0.6475
   7723SM   H2S10139   0.465   1.098   6.919  0.7213 -0.5940  1.9749
   7723SM   C3S10140   0.253   1.065   6.902 -0.0919  0.6834 -0.2081
   7723SM   H3S10141   0.157   1.115   6.923 -1.2723 -0.7085 -2.0034
   7723SM    O310142   0.257   0.960   7.001 -0.0077 -0.5063 -0.3692
   7723SM   HO310143   0.326   0.987   7.062  0.2031 -0.4735 -0.6196
   7723SM   C4S10144   0.245   1.008   6.759  0.2183 -0.1513  0.0026
   7723SM   H4S10145   0.174   1.059   6.693  0.8514  1.5812  0.6089
   7723SM   C5S10146   0.310   0.899   6.719  0.1176 -0.0367  0.4738
   7723SM   H5S10147   0.379   0.854   6.791  0.3589 -2.0956 -0.9276
   7723SM   C6S10148   0.305   0.837   6.579  0.3181  0.4032  0.1537
   7723SM   H6S10149   0.236   0.750   6.585 -0.1087  0.8584  2.6817
   7723SM   H6T10150   0.408   0.799   6.562 -0.7508 -1.6989 -2.3682
   7723SM   C7S10151   0.264   0.923   6.451 -0.0715 -0.7241 -0.1341
   7723SM   H7S10152   0.332   1.011   6.454 -2.2007  1.0664 -1.4283
   7723SM   H7T10153   0.164   0.967   6.468  0.1192 -0.1015 -0.5664
   7723SM   C8S10154   0.269   0.849   6.316 -0.2251 -0.8025  0.6538
   7723SM   H8S10155   0.204   0.759   6.321  1.7610 -2.5459 -1.8361
   7723SM   H8T10156   0.370   0.804   6.303 -0.1030 -0.2432 -0.4160
   7723SM   C9S10157   0.244   0.951   6.202 -0.2681  0.8269  0.0087
   7723SM   H9S10158   0.343   0.991   6.172 -0.3333  0.4534 -0.7400
   7723SM   H9T10159   0.170   1.028   6.233 -1.0633 -0.1181  0.5039
   7723SM  C10S10160   0.184   0.882   6.078  0.5793 -0.2872 -0.0051
   7723SM  H10S10161   0.074   0.887   6.092  0.0119  1.2193 -3.7008
   7723SM  H10T10162   0.213   0.775   6.075 -1.7298 -0.9773  0.0636
   7723SM  C11S10163   0.223   0.962   5.952 -1.0561  0.0150  0.3233
   7723SM  H11S10164   0.324   0.926   5.924 -1.0324  1.0647 -1.0801
   7723SM  H11T10165   0.214   1.070   5.973 -1.3336  0.5292 -2.0881
   7723SM  C12S10166   0.142   0.945   5.831  0.3396  0.0013  0.3488
   7723SM  H12S10167   0.047   1.003   5.834  1.3115  1.6703  0.1554
   7723SM  H12T10168   0.124   0.838   5.807 -0.5473  0.0621  0.7257
   7723SM  C13S10169   0.212   1.007   5.711 -0.1280 -0.2496 -0.3058
   7723SM  H13S10170   0.303   0.945   5.699  0.6098  1.0112 -1.5437
   7723SM  H13T10171   0.242   1.111   5.738 -0.2963 -0.2239 -0.2178
   7723SM  C14S10172   0.119   1.012   5.591 -0.5118  1.0171  0.1151
   7723SM  H14S10173   0.042   1.085   5.621 -0.4589  1.1919 -0.1710
   7723SM  H14T10174   0.057   0.921   5.579 -1.3820  1.3978  1.6226
   7723SM  C15S10175   0.191   1.060   5.464 -0.0822 -0.0527  0.5118
   7723SM  H15S10176   0.284   0.999   5.463  1.2372  1.8442 -1.0371
   7723SM  H15T10177   0.225   1.164   5.483  0.6959 -0.4052  1.1081
   7723SM  C16S10178   0.110   1.041   5.335  0.3220  0.1021  0.2449
   7723SM  H16S10179   0.004   1.056   5.366 -0.7932 -0.8416 -2.7613
   7723SM  H16T10180   0.113   0.936   5.299  0.1738 -0.3586  1.4890
   7723SM  C17S10181   0.138   1.142   5.236 -0.4792  0.1301  0.8231
   7723SM  H17S10182   0.136   1.247   5.273  0.4207 -0.4530  2.5839
   7723SM  H17T10183   0.059   1.140   5.158  0.7041 -0.1281 -0.4249
   7723SM  C18S10184   0.270   1.111   5.152  0.0716  0.4567 -0.1154
   7723SM  H18S10185   0.351   1.118   5.227 -0.9042 -0.7046  1.1027
   7723SM  H18T10186   0.285   1.189   5.075  0.7021 -0.2882 -0.7568
   7723SM  H18U10187   0.271   1.011   5.104 -0.3935 -0.5766  1.9274
   7723SM   C1F10188   0.496   1.327   6.784  0.2993  0.1712  0.8533
   7723SM    OF10189   0.599   1.287   6.831  0.7782 -0.5842  0.1299
   7723SM   C2F10190   0.474   1.436   6.686  0.3802 -0.0649 -0.3128
   7723SM   H2F10191   0.568   1.488   6.655 -1.1415  3.0626 -0.0703
   7723SM   H2G10192   0.402   1.510   6.727 -0.6579 -1.3888  0.2819
   7723SM   C3F10193   0.407   1.393   6.555  0.0595 -0.3248 -0.3612
   7723SM   H3F10194   0.304   1.360   6.581  0.0582  0.4186  0.6462
   7723SM   H3G10195   0.464   1.312   6.506  0.0397  1.5578 -3.7591
   7723SM   C4F10196   0.391   1.515   6.461  0.4144  0.0927 -0.6151
   7723SM   H4F10197   0.493   1.535   6.421  0.6681 -1.2768 -0.7027
   7723SM   H4G10198   0.349   1.604   6.513 -2.3951 -1.7351  0.4430
   7723SM   C5F10199   0.320   1.483   6.329  0.4165 -0.0392  0.0908
   7723SM   H5F10200   0.326   1.573   6.264  0.9155 -1.1018 -1.3994
   7723SM   H5G10201   0.216   1.446   6.342 -0.2143  1.9547  1.1613
   7723SM   C6F10202   0.394   1.376   6.253 -0.2548  0.0900  0.3135
   7723SM   H6F10203   0.405   1.285   6.315  3.1908 -0.2258 -0.5416
   7723SM   H6G10204   0.500   1.406   6.240  0.1579 -1.2194  0.5867
   7723SM   C7F10205   0.322   1.342   6.120  0.8166  1.0135 -0.4944
   7723SM   H7F10206   0.225   1.298   6.153  0.8509  0.6084 -0.9280
   7723SM   H7G10207   0.378   1.271   6.056 -1.6686  1.1840 -3.0877
   7723SM   C8F10208   0.278   1.459   6.025  0.9702  0.4386 -0.0791
   7723SM   H8F10209   0.371   1.517   6.010  1.0298 -0.2317 -2.8282
   7723SM   H8G10210   0.198   1.512   6.081  0.0984  0.2762 -1.1481
   7723SM   C9F10211   0.217   1.409   5.894  0.0808 -0.7560 -0.4198
   7723SM   H9F10212   0.122   1.355   5.914 -2.6760  3.9862  0.5341
   7723SM   H9G10213   0.292   1.346   5.840 -0.0414 -0.6181 -0.7497
   7723SM  C10F10214   0.180   1.527   5.802  0.4279 -0.3657 -0.4220
   7723SM  H10F10215   0.274   1.576   5.768 -0.9626  1.5731 -1.7072
   7723SM  H10G10216   0.123   1.601   5.862 -2.1885 -0.8511 -2.1330
   7723SM  C11F10217   0.099   1.489   5.687 -0.1160  0.7233 -0.3379
   7723SM  H11F10218   0.005   1.444   5.725  0.9792  0.6003  2.4805
   7723SM  H11G10219   0.153   1.420   5.619  2.9888  1.1690  1.4661
   7723SM  C12F10220   0.061   1.613   5.607  0.7380 -0.3267 -0.0861
   7723SM  H12F10221   0.039   1.702   5.671  0.6217  0.6649 -1.4524
   7723SM  H12G10222  -0.038   1.589   5.561 -1.2692 -0.0565  3.6551
   7723SM  C13F10223   0.164   1.661   5.504  0.3485 -0.1193 -0.2747
   7723SM  H13F10224   0.193   1.586   5.427 -0.8192  0.2939 -1.1481
   7723SM  H13G10225   0.248   1.679   5.574 -0.3439 -0.4142  0.6514
   7723SM  C14F10226   0.128   1.793   5.433  0.2455 -0.1688 -0.1716
   7723SM  H14F10227   0.103   1.873   5.507 -2.1673  0.1246 -1.2241
   7723SM  H14G10228   0.031   1.790   5.379 -1.5714  2.7633  2.5378
   7723SM  C15F10229   0.243   1.841   5.347 -0.3917  0.4101  0.2872
   7723SM  H15F10230   0.247   1.789   5.249  1.0857  1.5977 -0.3307
   7723SM  H15G10231   0.341   1.812   5.390 -0.5016 -0.6713 -0.1560
   7723SM  C16F10232   0.249   1.994   5.316 -0.7418 -0.1326  0.3421
   7723SM  H16F10233   0.242   2.063   5.403 -0.9729  1.7202 -1.0907
   7723SM  H16G10234   0.161   2.024   5.255  0.0249 -1.5004 -1.5288
   7723SM  C17F10235   0.382   2.013   5.238  0.5683  0.6345  0.2053
   7723SM  H17F10236   0.395   1.929   5.166  1.3800  0.3182  0.7028
   7723SM  H17G10237   0.458   1.999   5.318  1.0595  0.0349 -0.3501
   7723SM  C18F10238   0.398   2.149   5.172 -0.3131  0.4168  0.2280
   7723SM  H18F10239   0.498   2.155   5.123 -1.1528 -0.7733 -1.7249
   7723SM  H18G10240   0.390   2.240   5.235  0.4159  0.6271  0.0225
   7723SM  C19F10241   0.304   2.164   5.053 -0.2677  0.4526  0.0065
   7723SM  H19F10242   0.200   2.187   5.084  1.1681  4.3258  2.7533
   7723SM  H19G10243   0.315   2.071   4.994  0.0878 -1.0082  2.2531
   7723SM  C20F10244   0.332   2.290   4.965  0.6668  0.5985  0.0441
   7723SM  H20F10245   0.245   2.296   4.896 -1.3438  1.4702  2.4786
   7723SM  H20G10246   0.416   2.282   4.894  1.8874 -0.6670  1.5614
   7723SM  C21F10247   0.363   2.420   5.036  0.1291 -0.3941  0.0651
   7723SM  H21F10248   0.456   2.407   5.096  0.6634  2.4917  0.0141
   7723SM  H21G10249   0.286   2.443   5.112  1.1085  0.3882  0.8620
   7723SM  C22F10250   0.375   2.541   4.946  0.1665  0.2802 -0.0537
   7723SM  H22F10251   0.278   2.557   4.893 -1.0998 -0.3480  1.9536
   7723SM  H22G10252   0.456   2.521   4.873  0.6616  3.0777 -0.3954
   7723SM  C23F10253   0.405   2.669   5.012 -0.2664 -0.6304 -0.5495
   7723SM  H23F10254   0.347   2.699   5.102  0.5786 -1.2076  0.2135
   7723SM  H23G10255   0.394   2.750   4.938 -1.2954  0.0811  0.3414
   7723SM  H23H10256   0.508   2.675   5.052 -0.8176 -0.6156  0.9542
   7823SM     N10257   1.816   6.862   7.142 -0.0110 -0.0952 -0.4825
   7823SM   C1510258   1.842   6.743   7.222  0.4187  0.9826  0.1541
   7823SM  H15A10259   1.800   6.753   7.321 -1.3893 -0.4718 -0.4049
   7823SM  H15B10260   1.946   6.714   7.228  1.1692  2.7919 -2.3040
   7823SM  H15C10261   1.794   6.663   7.168  3.0976  0.8384 -2.2495
   7823SM   C1410262   1.672   6.873   7.112 -0.0197  0.5560  0.0156
   7823SM  H14A10263   1.606   6.872   7.197 -1.1830  0.6196 -0.8587
   7823SM  H14B10264   1.637   6.799   7.042 -0.0559 -0.4667  1.0783
   7823SM  H14C10265   1.654   6.960   7.050 -0.5339 -1.1597 -2.3631
   7823SM   C1310266   1.862   6.981   7.226  0.5980 -0.2399 -0.6124
   7823SM  H13A10267   1.790   7.002   7.304  1.5753  0.7585  0.0529
   7823SM  H13B10268   1.861   7.069   7.164  1.0373  0.0573 -0.1999
   7823SM  H13C10269   1.961   6.966   7.266  0.1119  1.2581  1.2842
   7823SM   C1210270   1.902   6.850   7.016  1.3209 -0.1681 -0.0298
   7823SM  H12A10271   2.000   6.820   7.049  2.2607 -0.7489 -3.0402
   7823SM  H12B10272   1.908   6.951   6.979 -0.0044  0.4641  1.3836
   7823SM   C1110273   1.842   6.770   6.897  0.6540  0.7965 -0.0472
   7823SM  H11A10274   1.899   6.788   6.804 -2.4504  0.7915 -2.1262
   7823SM  H11B10275   1.744   6.802   6.855  0.7210 -0.6732 -1.4315
   7823SM     P10276   1.953   6.536   6.937 -0.1404 -0.2910 -0.0378
   7823SM   O1310277   2.070   6.587   7.015  0.1349 -0.3749  0.1102
   7823SM   O1410278   1.896   6.402   6.972  0.3515  0.3388 -0.2992
   7823SM   O1110279   1.992   6.533   6.784 -0.2238 -0.4445  0.0009
   7823SM   O1210280   1.833   6.635   6.946  0.3402  0.3789  0.0387
   7823SM   C1S10281   1.912   6.450   6.699  0.3244  0.0282 -0.7822
   7823SM   H1S10282   1.807   6.486   6.707  0.7482  0.9668  1.5767
   7823SM   H1T10283   1.907   6.346   6.739  2.5469  0.4522  0.7758
   7823SM    NF10284   1.878   6.377   6.468 -0.0673  0.7786 -0.0281
   7823SM   HNF10285   1.891   6.278   6.466  2.0156  1.0165  0.0034
   7823SM   C2S10286   1.966   6.447   6.558 -0.2341  0.1750 -0.0822
   7823SM   H2S10287   1.969   6.552   6.523 -1.3879 -0.4483 -2.2438
   7823SM   C3S10288   2.115   6.382   6.556 -0.1857  0.9068 -0.2114
   7823SM   H3S10289   2.122   6.275   6.582  1.2577  1.3657  1.5221
   7823SM    O310290   2.207   6.429   6.661 -0.6158 -0.1025 -0.4827
   7823SM   HO310291   2.152   6.483   6.719  1.2840  0.2470  1.1019
   7823SM   C4S10292   2.167   6.407   6.422  0.8055 -0.0589  0.2827
   7823SM   H4S10293   2.184   6.515   6.407 -0.7876  0.2907  0.8221
   7823SM   C5S10294   2.203   6.312   6.329  0.5557  0.3124 -0.4360
   7823SM   H5S10295   2.183   6.210   6.365 -0.2640  0.3593 -0.7365
   7823SM   C6S10296   2.261   6.336   6.192  0.7934 -0.2092 -0.4581
   7823SM   H6S10297   2.365   6.298   6.195  1.6660  1.9185 -1.4639
   7823SM   H6T10298   2.279   6.444   6.172  0.0321  0.1095  0.4451
   7823SM   C7S10299   2.166   6.277   6.091  0.1230  0.2854  0.3156
   7823SM   H7S10300   2.071   6.334   6.082 -0.1117 -0.3555 -1.7533
   7823SM   H7T10301   2.133   6.172   6.109 -0.9839  0.4497 -0.6500
   7823SM   C8S10302   2.219   6.270   5.948 -0.9513 -0.5925  0.3758
   7823SM   H8S10303   2.305   6.200   5.952 -0.2519  0.1362 -1.0266
   7823SM   H8T10304   2.269   6.365   5.920 -0.5642 -1.1050 -0.7204
   7823SM   C9S10305   2.124   6.242   5.841 -0.0840  0.0545  0.0448
   7823SM   H9S10306   2.061   6.329   5.811 -1.2150  0.0420  2.1890
   7823SM   H9T10307   2.062   6.153   5.864  0.2510  0.0019  0.7614
   7823SM  C10S10308   2.198   6.201   5.708 -0.2122 -0.3788 -0.4194
   7823SM  H10S10309   2.275   6.124   5.731 -0.1415  0.3711  2.2121
   7823SM  H10T10310   2.248   6.279   5.647  0.7903 -1.3725 -0.9185
   7823SM  C11S10311   2.106   6.122   5.612  0.1891  0.3273 -0.7645
   7823SM  H11S10312   2.039   6.196   5.563 -2.6229 -1.7065 -0.2473
   7823SM  H11T10313   2.041   6.052   5.669 -0.0640  0.3985 -0.9633
   7823SM  C12S10314   2.178   6.026   5.508 -0.2154  0.0145 -0.0818
   7823SM  H12S10315   2.258   5.965   5.554  0.3413  1.4811  0.9742
   7823SM  H12T10316   2.236   6.079   5.429  0.6952  0.1519  0.6684
   7823SM  C13S10317   2.092   5.932   5.431 -0.0855  0.4725  0.5392
   7823SM  H13S10318   2.027   5.872   5.499 -1.6680 -0.7649 -1.9279
   7823SM  H13T10319   2.149   5.857   5.372 -0.3624  1.6902 -1.3496
   7823SM  C14S10320   1.985   6.002   5.348  0.5321  0.5132 -0.2045
   7823SM  H14S10321   2.036   6.077   5.284 -1.4462  0.9476 -1.3507
   7823SM  H14T10322   1.919   6.057   5.419  0.0878  2.6273 -2.1600
   7823SM  C15S10323   1.897   5.901   5.267 -0.3017  0.1228 -0.5911
   7823SM  H15S10324   1.879   5.809   5.327  1.3337 -0.0902 -0.3682
   7823SM  H15T10325   1.954   5.878   5.174  0.5002 -1.2003  0.1949
   7823SM  C16S10326   1.756   5.951   5.226 -0.0711 -0.4968  0.0957
   7823SM  H16S10327   1.710   5.987   5.320  0.2865 -0.0758  0.1112
   7823SM  H16T10328   1.692   5.873   5.179 -0.5863 -0.2539  0.3874
   7823SM  C17S10329   1.739   6.073   5.133 -0.5095 -0.0347 -0.1996
   7823SM  H17S10330   1.828   6.139   5.149 -0.0718 -0.7959  0.5674
   7823SM  H17T10331   1.647   6.134   5.147 -0.4347 -0.0062  0.1792
   7823SM  C18S10332   1.759   6.032   4.984  0.0074  0.5027  0.1480
   7823SM  H18S10333   1.662   5.984   4.958 -0.0128 -1.9784  4.1285
   7823SM  H18T10334   1.847   5.967   4.964 -0.4199  0.1623 -0.6979
   7823SM  H18U10335   1.768   6.122   4.919  1.3185 -0.4640 -1.0786
   7823SM   C1F10336   1.763   6.425   6.432 -0.2126 -0.8999  0.3663
   7823SM    OF10337   1.734   6.544   6.454  0.2494 -0.3238 -0.5644
   7823SM   C2F10338   1.668   6.337   6.359 -0.2542  0.5884 -0.5293
   7823SM   H2F10339   1.581   6.319   6.426 -0.2718  2.5280  0.0461
   7823SM   H2G10340   1.704   6.232   6.351  1.0739  1.0044 -0.2078
   7823SM   C3F10341   1.616   6.388   6.221 -0.2013 -0.9209 -0.5622
   7823SM   H3F10342   1.594   6.497   6.227 -2.8358 -1.4540  1.1848
   7823SM   H3G10343   1.522   6.336   6.193 -1.1895 -0.5574  1.8404
   7823SM   C4F10344   1.729   6.383   6.111 -0.3671 -0.0707 -0.1668
   7823SM   H4F10345   1.756   6.278   6.088  0.2481 -0.1541  0.8928
   7823SM   H4G10346   1.813   6.440   6.156 -1.7810  1.4355  0.6987
   7823SM   C5F10347   1.698   6.461   5.981  0.2583 -0.0996  0.3834
   7823SM   H5F10348   1.784   6.514   5.934 -0.4062  0.3496 -0.3458
   7823SM   H5G10349   1.627   6.542   6.011 -1.1777 -1.2866  0.2770
   7823SM   C6F10350   1.626   6.373   5.877 -0.6114 -0.2148  0.0337
   7823SM   H6F10351   1.563   6.305   5.938  1.3857 -1.5502  0.7168
   7823SM   H6G10352   1.707   6.316   5.828 -0.4190 -1.4796  1.7498
   7823SM   C7F10353   1.549   6.458   5.772 -0.0820  0.7483  0.5452
   7823SM   H7F10354   1.624   6.507   5.707  0.6723 -0.6323  0.3273
   7823SM   H7G10355   1.510   6.528   5.848 -0.6080 -1.7963  2.7726
   7823SM   C8F10356   1.446   6.380   5.684 -0.1595  0.3534 -1.0894
   7823SM   H8F10357   1.375   6.320   5.745 -0.7834  2.7327  0.6691
   7823SM   H8G10358   1.496   6.305   5.619 -0.9185 -1.5308  0.3965
   7823SM   C9F10359   1.362   6.470   5.596  0.5007 -0.1551 -0.1671
   7823SM   H9F10360   1.416   6.541   5.529 -0.5936 -0.2723 -1.1918
   7823SM   H9G10361   1.303   6.542   5.657  0.5490 -0.3426  0.1054
   7823SM  C10F10362   1.257   6.399   5.508  0.0590  0.3314  0.6864
   7823SM  H10F10363   1.215   6.319   5.574 -1.2964  2.0731  2.0372
   7823SM  H10G10364   1.304   6.349   5.422  0.7801 -0.3966  1.4825
   7823SM  C11F10365   1.151   6.491   5.443 -0.7172  1.0952 -0.1542
   7823SM  H11F10366   1.206   6.584   5.417  0.6142  0.2180 -0.5930
   7823SM  H11G10367   1.072   6.528   5.512 -0.2592  0.0340  0.9567
   7823SM  C12F10368   1.081   6.416   5.332  0.3555 -0.7153 -0.0717
   7823SM  H12F10369   1.012   6.338   5.370  0.6837 -0.2632  1.5236
   7823SM  H12G10370   1.147   6.365   5.258  0.4443 -0.1575 -0.3837
   7823SM  C13F10371   1.007   6.517   5.237 -0.3077 -0.0640 -0.6816
   7823SM  H13F10372   1.073   6.596   5.195 -1.8957  2.1678  0.7446
   7823SM  H13G10373   0.928   6.569   5.296 -0.4814 -2.2124  1.1025
   7823SM  C14F10374   0.936   6.434   5.130 -0.1047 -0.0995 -0.3210
   7823SM  H14F10375   0.886   6.353   5.187 -0.9490 -0.9721 -2.2173
   7823SM  H14G10376   1.010   6.381   5.065  0.4431 -1.4519  1.3180
   7823SM  C15F10377   0.846   6.527   5.036 -1.1015 -0.1255  0.4077
   7823SM  H15F10378   0.781   6.589   5.101 -1.0575  0.7226 -0.3357
   7823SM  H15G10379   0.781   6.464   4.971  0.4826 -0.5356 -0.8469
   7823SM  C16F10380   0.941   6.620   4.945  0.1367  0.4152  0.1497
   7823SM  H16F10381   1.012   6.671   5.013  0.8929  0.0186 -0.3177
   7823SM  H16G10382   0.879   6.695   4.891 -1.5213 -0.2681  1.0450
   7823SM  C17F10383   1.032   6.542   4.847  0.5381  0.2079  0.4495
   7823SM  H17F10384   0.969   6.470   4.789  0.5765 -0.8667  1.6817
   7823SM  H17G10385   1.089   6.470   4.910  1.6075  0.8690  0.2502
   7823SM  C18F10386   1.113   6.628   4.753  0.7195  0.1046 -0.2552
   7823SM  H18F10387   1.156   6.714   4.808 -0.1696  1.4738 -1.6017
   7823SM  H18G10388   1.056   6.668   4.666 -0.7416 -0.1795  0.5311
   7823SM  C19F10389   1.230   6.552   4.688 -0.5777 -0.1803 -0.7079
   7823SM  H19F10390   1.278   6.615   4.609  0.6016  0.6693  0.6433
   7823SM  H19G10391   1.198   6.457   4.640  1.6783 -0.4295 -1.8687
   7823SM  C20F10392   1.342   6.511   4.786  0.5650 -0.6928 -0.3334
   7823SM  H20F10393   1.299   6.443   4.862 -0.3300 -0.6725 -0.8062
   7823SM  H20G10394   1.387   6.591   4.848 -0.5501 -0.6825  0.4837
   7823SM  C21F10395   1.461   6.427   4.726  0.1928 -0.1931 -0.5454
   7823SM  H21F10396   1.430   6.328   4.687  1.7574 -0.2983 -1.5928
   7823SM  H21G10397   1.525   6.408   4.815 -0.4880 -1.5670 -0.3295
   7823SM  C22F10398   1.524   6.506   4.604  0.2026  0.1857 -0.0351
   7823SM  H22F10399   1.551   6.613   4.609 -3.6983  1.3617 -0.2620
   7823SM  H22G10400   1.444   6.485   4.529  0.1975 -1.1265  0.3027
   7823SM  C23F10401   1.641   6.418   4.546  0.1953  0.4718 -0.1754
   7823SM  H23F10402   1.732   6.429   4.608 -1.5718  0.2376  2.6456
   7823SM  H23G10403   1.662   6.447   4.441  0.2039 -0.6488 -0.4983
   7823SM  H23H10404   1.611   6.311   4.547  0.4837  0.3877  1.2403
   7923SM     N10405   7.188   7.197   7.325 -0.6219 -0.1016 -0.0227
   7923SM   C1510406   7.233   7.185   7.464 -0.2610 -0.1282  0.4218
   7923SM  H15A10407   7.242   7.083   7.497  0.3435  0.5064  2.3294
   7923SM  H15B10408   7.168   7.239   7.533  1.6178  1.2834  1.1694
   7923SM  H15C10409   7.325   7.241   7.475 -0.2763 -0.2909  1.5137
   7923SM   C1410410   7.194   7.338   7.281  0.0732 -1.0139 -0.2520
   7923SM  H14A10411   7.163   7.346   7.178 -0.1215  0.2554 -0.1203
   7923SM  H14B10412   7.297   7.369   7.291 -0.7297  2.2446 -0.6907
   7923SM  H14C10413   7.142   7.398   7.355  0.7245 -1.9572  1.0157
   7923SM   C1310414   7.283   7.121   7.234 -0.4157  0.1668 -1.0078
   7923SM  H13A10415   7.249   7.129   7.132  1.0972  2.2024 -1.4317
   7923SM  H13B10416   7.291   7.017   7.262  1.3256  1.1185  2.7306
   7923SM  H13C10417   7.381   7.166   7.243  0.8860 -2.7643  1.1271
   7923SM   C1210418   7.052   7.135   7.319  1.7032 -0.5488 -0.3092
   7923SM  H12A10419   7.070   7.031   7.339 -1.0128 -1.0535 -0.0943
   7923SM  H12B10420   7.011   7.132   7.219  1.4335 -0.2629 -0.2075
   7923SM   C1110421   6.936   7.185   7.412 -0.1206  0.4971  0.5925
   7923SM  H11A10422   6.900   7.277   7.361  1.5770 -0.1479 -1.9724
   7923SM  H11B10423   6.979   7.226   7.507 -2.4556  2.8037  0.7666
   7923SM     P10424   6.729   7.093   7.542  0.0628 -0.3850 -0.0658
   7923SM   O1310425   6.690   6.956   7.580  0.5299  0.2222  0.2684
   7923SM   O1410426   6.777   7.179   7.658  1.1070 -0.1859 -0.5578
   7923SM   O1110427   6.622   7.163   7.447 -0.4589 -0.2790  0.6706
   7923SM   O1210428   6.846   7.081   7.440 -0.5337  0.2023  0.8090
   7923SM   C1S10429   6.582   7.095   7.327 -0.3498 -0.1689  0.1163
   7923SM   H1S10430   6.498   7.027   7.352 -0.7896 -0.6323 -2.4105
   7923SM   H1T10431   6.660   7.023   7.292 -1.3260 -0.9959 -0.4132
   7923SM    NF10432   6.533   7.097   7.092 -0.1887 -0.5200 -0.3634
   7923SM   HNF10433   6.596   7.119   7.018  0.6998 -0.6674  0.3470
   7923SM   C2S10434   6.546   7.183   7.207 -0.1206 -0.4269 -0.5748
   7923SM   H2S10435   6.446   7.222   7.238  0.4069  0.4210  0.1241
   7923SM   C3S10436   6.652   7.297   7.190  0.0073 -0.5929 -0.0653
   7923SM   H3S10437   6.754   7.254   7.180  0.7698  0.5444  2.2464
   7923SM    O310438   6.655   7.388   7.302 -0.1970 -0.3020 -0.0397
   7923SM   HO310439   6.634   7.336   7.380  3.0319  0.9553  1.8814
   7923SM   C4S10440   6.612   7.383   7.078 -0.0969  0.1713  0.5705
   7923SM   H4S10441   6.547   7.469   7.099 -0.5010  1.1164 -3.6935
   7923SM   C5S10442   6.660   7.378   6.952 -0.1835  0.1435  0.5895
   7923SM   H5S10443   6.733   7.303   6.916  0.7375  0.7696  1.1174
   7923SM   C6S10444   6.617   7.472   6.838  0.2386 -1.1182 -0.9040
   7923SM   H6S10445   6.625   7.577   6.871 -0.5577 -1.3101 -0.0586
   7923SM   H6T10446   6.512   7.451   6.809 -0.4930 -0.7225  1.2823
   7923SM   C7S10447   6.693   7.448   6.712  0.1369  0.2031 -0.7853
   7923SM   H7S10448   6.801   7.455   6.739  0.6352 -1.5645 -2.0570
   7923SM   H7T10449   6.657   7.512   6.629 -0.8549 -0.7843 -1.1310
   7923SM   C8S10450   6.677   7.305   6.649 -0.5737 -0.4829 -0.2222
   7923SM   H8S10451   6.570   7.275   6.646 -1.3159  1.9515 -0.5360
   7923SM   H8T10452   6.723   7.227   6.713 -0.2988 -0.6982 -0.6824
   7923SM   C9S10453   6.756   7.285   6.514 -0.7822 -0.9257 -0.4147
   7923SM   H9S10454   6.711   7.353   6.439  2.6374  0.7196 -1.1702
   7923SM   H9T10455   6.739   7.184   6.472 -0.6716  0.5241 -4.3052
   7923SM  C10S10456   6.905   7.321   6.522  1.1052 -0.0844  0.8272
   7923SM  H10S10457   6.917   7.427   6.555 -1.6442  0.3185  0.8002
   7923SM  H10T10458   6.953   7.320   6.422  1.2950  2.7567  0.7910
   7923SM  C11S10459   6.982   7.225   6.619 -0.1121  0.3559  0.4074
   7923SM  H11S10460   6.920   7.223   6.711 -0.7817  1.3444 -0.0066
   7923SM  H11T10461   7.079   7.276   6.634  0.4956 -0.6403  0.0036
   7923SM  C12S10462   7.013   7.079   6.566  0.0916 -0.1379  0.1040
   7923SM  H12S10463   6.930   7.056   6.495  1.8795 -0.1489 -2.0795
   7923SM  H12T10464   6.999   7.022   6.660 -0.6875 -0.9385 -0.4739
   7923SM  C13S10465   7.151   7.062   6.501  0.1961  0.1339  0.0050
   7923SM  H13S10466   7.155   6.952   6.489 -2.5440 -0.1160  0.8515
   7923SM  H13T10467   7.216   7.097   6.584 -3.2959 -0.7451  3.3971
   7923SM  C14S10468   7.179   7.131   6.363  0.1275  0.1989  0.7181
   7923SM  H14S10469   7.195   7.237   6.392 -1.8553  0.6588  0.2992
   7923SM  H14T10470   7.090   7.126   6.296 -0.0475  0.7654  0.9063
   7923SM  C15S10471   7.315   7.079   6.310  0.5161 -0.0965 -0.9063
   7923SM  H15S10472   7.401   7.073   6.380  0.1880  1.1185 -0.3870
   7923SM  H15T10473   7.352   7.150   6.232 -0.0086  1.8890  0.5890
   7923SM  C16S10474   7.313   6.942   6.245  0.1321  0.3300 -0.5254
   7923SM  H16S10475   7.230   6.936   6.171  0.1216  0.3068 -0.5114
   7923SM  H16T10476   7.292   6.863   6.320  0.0948  1.2367  0.4365
   7923SM  C17S10477   7.443   6.906   6.163  0.6795  0.6055 -0.0605
   7923SM  H17S10478   7.465   6.991   6.096 -0.3414  0.7746 -0.1966
   7923SM  H17T10479   7.415   6.819   6.100 -1.6602  0.9953  0.3721
   7923SM  C18S10480   7.560   6.863   6.253  0.1815 -0.4576 -0.5944
   7923SM  H18S10481   7.573   6.943   6.330 -2.7539 -1.9171  1.6294
   7923SM  H18T10482   7.654   6.855   6.194  0.3043  0.2036 -0.4934
   7923SM  H18U10483   7.528   6.774   6.311 -1.6114  1.5257  1.6911
   7923SM   C1F10484   6.433   7.007   7.075  0.4940 -0.3125 -0.2216
   7923SM    OF10485   6.350   6.991   7.170 -0.3217  0.3848  0.0270
   7923SM   C2F10486   6.416   6.940   6.946 -0.0190 -1.0182  0.2345
   7923SM   H2F10487   6.461   6.839   6.937 -0.9997 -1.6356  1.7880
   7923SM   H2G10488   6.458   6.998   6.862  0.7851 -1.5671  0.2407
   7923SM   C3F10489   6.260   6.932   6.916  0.3257 -0.2724 -0.4045
   7923SM   H3F10490   6.220   7.036   6.922  1.3657  0.0802  0.8760
   7923SM   H3G10491   6.206   6.880   6.998  0.3552  0.3424  0.0136
   7923SM   C4F10492   6.236   6.872   6.783 -0.3460 -0.0302 -0.3749
   7923SM   H4F10493   6.281   6.772   6.761 -1.4091 -0.7770  0.6918
   7923SM   H4G10494   6.291   6.937   6.712 -0.4705  0.7691  0.2439
   7923SM   C5F10495   6.081   6.871   6.744  0.2401 -0.5904 -0.0836
   7923SM   H5F10496   6.065   6.864   6.634 -0.7930 -1.6213  0.1171
   7923SM   H5G10497   6.032   6.963   6.781  0.7408 -0.8995  1.4266
   7923SM   C6F10498   6.022   6.747   6.816  0.2656 -0.0256 -0.0701
   7923SM   H6F10499   6.065   6.748   6.918  0.6451 -0.7551 -0.2161
   7923SM   H6G10500   6.066   6.657   6.768 -0.9299  0.9867 -3.3141
   7923SM   C7F10501   5.866   6.754   6.808  0.3364  0.4928 -0.1496
   7923SM   H7F10502   5.843   6.793   6.707  1.4180  1.4821 -0.0337
   7923SM   H7G10503   5.821   6.813   6.891 -0.1366  1.2403 -0.9314
   7923SM   C8F10504   5.782   6.616   6.820 -0.6863 -0.9323  0.1253
   7923SM   H8F10505   5.676   6.641   6.801 -0.6446  0.9217  1.9718
   7923SM   H8G10506   5.777   6.582   6.926  1.7855  0.2944  0.7242
   7923SM   C9F10507   5.818   6.512   6.720 -0.1198  0.4197  0.6108
   7923SM   H9F10508   5.749   6.425   6.729 -0.3143  0.7680  3.1344
   7923SM   H9G10509   5.912   6.460   6.748 -1.3711 -0.8883  2.5832
   7923SM  C10F10510   5.817   6.563   6.570  0.0291  0.5249 -0.2312
   7923SM  H10F10511   5.859   6.487   6.502 -0.1097 -0.7636  1.0769
   7923SM  H10G10512   5.885   6.651   6.569  3.1320 -1.6156  2.7639
   7923SM  C11F10513   5.677   6.604   6.526 -0.4624  0.0370  0.5926
   7923SM  H11F10514   5.633   6.682   6.593 -3.5184 -0.8350 -0.2578
   7923SM  H11G10515   5.622   6.508   6.518  0.7789 -0.6237 -0.1881
   7923SM  C12F10516   5.685   6.662   6.382  0.3887 -0.0707 -0.2221
   7923SM  H12F10517   5.735   6.578   6.329  2.4959  0.6927  0.4717
   7923SM  H12G10518   5.751   6.750   6.382  0.6194 -0.2213 -1.4470
   7923SM  C13F10519   5.544   6.691   6.317  0.2706 -0.5093 -0.1403
   7923SM  H13F10520   5.533   6.801   6.331  2.1472 -0.1908 -0.9093
   7923SM  H13G10521   5.470   6.640   6.382 -0.0018  2.3891  2.0400
   7923SM  C14F10522   5.527   6.666   6.167 -0.2892 -0.3164 -0.3246
   7923SM  H14F10523   5.428   6.682   6.120 -0.7694 -0.9388  0.4479
   7923SM  H14G10524   5.561   6.561   6.153  3.1966  0.3732  1.7644
   7923SM  C15F10525   5.618   6.764   6.095  0.1247 -0.4671 -0.8541
   7923SM  H15F10526   5.720   6.772   6.139 -0.2274  1.0559 -0.2436
   7923SM  H15G10527   5.574   6.864   6.118 -0.1015 -1.0416  1.5445
   7923SM  C16F10528   5.615   6.763   5.944 -0.2256  0.3686  0.6526
   7923SM  H16F10529   5.664   6.855   5.906  0.6733 -0.3501  0.0124
   7923SM  H16G10530   5.510   6.757   5.908 -0.0775  2.7147 -0.3350
   7923SM  C17F10531   5.696   6.642   5.896 -0.1216 -0.1687  0.1714
   7923SM  H17F10532   5.672   6.548   5.950  1.4019 -1.0342 -0.5962
   7923SM  H17G10533   5.802   6.660   5.924  0.8216 -0.3071 -2.8841
   7923SM  C18F10534   5.695   6.629   5.743 -0.5478  0.1993 -0.2137
   7923SM  H18F10535   5.753   6.708   5.691 -0.3919 -0.0159 -0.3709
   7923SM  H18G10536   5.587   6.633   5.718 -1.1846 -0.9281  2.1143
   7923SM  C19F10537   5.759   6.494   5.698  0.3982 -0.0790  0.1804
   7923SM  H19F10538   5.702   6.412   5.746  2.0571 -2.2732 -1.4106
   7923SM  H19G10539   5.866   6.491   5.727  0.8083  2.1934 -0.8525
   7923SM  C20F10540   5.758   6.480   5.546 -0.0876 -0.0342 -0.3531
   7923SM  H20F10541   5.812   6.566   5.502  0.0627  0.3517  0.5503
   7923SM  H20G10542   5.653   6.491   5.512 -0.6933  0.1371  1.4577
   7923SM  C21F10543   5.817   6.357   5.481  0.4058  0.6587  0.3984
   7923SM  H21F10544   5.774   6.262   5.520  0.1961  0.1741 -0.9612
   7923SM  H21G10545   5.926   6.367   5.499  0.6630 -0.2075 -0.5869
   7923SM  C22F10546   5.787   6.356   5.333 -0.0394 -0.3140  0.1449
   7923SM  H22F10547   5.829   6.445   5.281 -0.5946  0.5174  1.0899
   7923SM  H22G10548   5.678   6.361   5.311 -0.3023 -2.1959  0.8347
   7923SM  C23F10549   5.842   6.231   5.266 -0.1119 -0.4019  0.7810
   7923SM  H23F10550   5.953   6.229   5.263 -0.1174  0.3772 -1.9672
   7923SM  H23G10551   5.807   6.229   5.161  1.8169  0.3551  0.0782
   7923SM  H23H10552   5.807   6.140   5.320 -1.2030 -0.4966 -0.0563
   8023SM     N10553   2.319   0.062   6.936  0.8263 -0.7269 -0.0633
   8023SM   C1510554   2.194   0.082   7.018 -0.8284  0.1641  0.3220
   8023SM  H15A10555   2.198   0.018   7.105  1.0006 -1.0040 -0.5581
   8023SM  H15B10556   2.098   0.053   6.978 -0.5612 -0.8195  0.3901
   8023SM  H15C10557   2.186   0.178   7.069 -1.7337  0.5039 -0.4435
   8023SM   C1410558   2.330   0.173   6.831 -0.1696  0.4516  0.0702
   8023SM  H14A10559   2.426   0.176   6.782 -1.1727  0.0052 -2.0369
   8023SM  H14B10560   2.314   0.274   6.867 -1.1797 -0.0081  0.9855
   8023SM  H14C10561   2.250   0.158   6.760 -0.0251  3.1080 -0.7437
   8023SM   C1310562   2.435   0.060   7.030 -1.2167  0.4717  0.1272
   8023SM  H13A10563   2.440   0.152   7.088 -1.9993  0.7233 -0.1977
   8023SM  H13B10564   2.524   0.066   6.969 -0.2268  1.8510  1.6168
   8023SM  H13C10565   2.440  -0.025   7.097 -0.2491 -1.0386 -1.7707
   8023SM   C1210566   2.309  -0.081   6.868  0.5310  0.4610 -0.1282
   8023SM  H12A10567   2.324  -0.150   6.949  1.7690  1.5345  0.6153
   8023SM  H12B10568   2.399  -0.086   6.807  0.8555  1.8942  0.1806
   8023SM   C1110569   2.179  -0.128   6.787 -0.8941 -0.6307 -0.2639
   8023SM  H11A10570   2.197  -0.223   6.732 -2.1221 -1.2185  0.2968
   8023SM  H11B10571   2.177  -0.042   6.717  1.9302  0.9566  1.4442
   8023SM     P10572   2.038  -0.260   6.957  0.0426 -0.1852  0.1371
   8023SM   O1310573   2.157  -0.294   7.043 -0.0618  0.1045  0.7899
   8023SM   O1410574   1.915  -0.235   7.030 -0.4310  0.4601  0.4762
   8023SM   O1110575   2.016  -0.377   6.850  0.2703 -0.5760 -0.5540
   8023SM   O1210576   2.061  -0.129   6.862 -0.6682  0.2512  0.3316
   8023SM   C1S10577   1.901  -0.363   6.758 -0.2458  0.3507  0.8896
   8023SM   H1S10578   1.838  -0.272   6.765 -1.3596 -0.3211 -0.0379
   8023SM   H1T10579   1.826  -0.441   6.782  1.1796 -1.0599  0.9427
   8023SM    NF10580   1.832  -0.375   6.517 -0.0901 -0.3767 -0.0245
   8023SM   HNF10581   1.789  -0.462   6.492  3.4906 -2.1991 -0.5759
   8023SM   C2S10582   1.945  -0.393   6.608 -0.3349 -0.3548 -0.1682
   8023SM   H2S10583   2.025  -0.319   6.587  2.3957 -2.6693  1.2383
   8023SM   C3S10584   2.007  -0.538   6.591  0.5288 -0.6182 -1.3100
   8023SM   H3S10585   1.931  -0.612   6.622  0.4912 -0.5545 -1.2504
   8023SM    O310586   2.100  -0.567   6.696  0.3910 -0.5616  0.2598
   8023SM   HO310587   2.069  -0.516   6.772 -0.4290 -1.8194  0.8030
   8023SM   C4S10588   2.073  -0.554   6.461  0.2325  0.4712 -0.2162
   8023SM   H4S10589   2.098  -0.460   6.411  1.0610 -0.4291 -1.5330
   8023SM   C5S10590   2.075  -0.669   6.389 -0.6973  0.2096  0.3191
   8023SM   H5S10591   2.021  -0.752   6.435 -0.3478 -0.2668 -0.1097
   8023SM   C6S10592   2.141  -0.681   6.255 -0.0273  0.2588 -0.1444
   8023SM   H6S10593   2.213  -0.765   6.262 -1.5598 -0.9783  1.4423
   8023SM   H6T10594   2.204  -0.592   6.229 -0.4888  1.6211  2.9485
   8023SM   C7S10595   2.044  -0.689   6.133 -0.2835 -0.2207  0.0878
   8023SM   H7S10596   2.002  -0.587   6.124 -0.3853 -0.4084 -1.8198
   8023SM   H7T10597   1.960  -0.762   6.145  0.5007 -0.9160  1.7934
   8023SM   C8S10598   2.112  -0.724   6.000  0.2678  0.3070  0.0358
   8023SM   H8S10599   2.171  -0.816   6.019 -0.1215  0.0108 -0.1670
   8023SM   H8T10600   2.180  -0.644   5.963  0.4124  1.3404  2.3436
   8023SM   C9S10601   2.030  -0.755   5.870  0.0273 -0.1535 -0.2805
   8023SM   H9S10602   1.964  -0.669   5.844 -0.0776 -0.3312 -0.6053
   8023SM   H9T10603   1.961  -0.836   5.900 -1.5926  1.5099  0.7172
   8023SM  C10S10604   2.111  -0.784   5.744  0.3145  0.3398 -0.0647
   8023SM  H10S10605   2.164  -0.881   5.751 -2.5034 -1.2659  0.6545
   8023SM  H10T10606   2.196  -0.716   5.723  0.4091  0.2604  0.0622
   8023SM  C11S10607   2.020  -0.788   5.608  0.4033 -0.0331 -0.6309
   8023SM  H11S10608   2.087  -0.804   5.520 -0.4052  1.6281 -1.5959
   8023SM  H11T10609   1.979  -0.686   5.590 -0.8995 -0.3249  0.5402
   8023SM  C12S10610   1.904  -0.886   5.621 -0.3056  0.4530 -0.1018
   8023SM  H12S10611   1.845  -0.867   5.713  0.5768 -3.5939  1.5126
   8023SM  H12T10612   1.944  -0.987   5.643  1.3121  0.9697 -0.5165
   8023SM  C13S10613   1.812  -0.888   5.491 -0.3050  0.2110 -0.1866
   8023SM  H13S10614   1.802  -0.782   5.459  0.1770  0.8767  1.7779
   8023SM  H13T10615   1.713  -0.935   5.510 -1.3995  1.1681 -2.9268
   8023SM  C14S10616   1.865  -0.959   5.367 -0.3921  0.0966 -0.4120
   8023SM  H14S10617   1.938  -1.037   5.398 -2.1507 -2.2963 -1.9470
   8023SM  H14T10618   1.922  -0.892   5.300 -1.3009  2.2130  0.8224
   8023SM  C15S10619   1.746  -1.025   5.289  0.2716  0.6305  0.4760
   8023SM  H15S10620   1.696  -1.107   5.345 -1.3006  2.7520  2.3753
   8023SM  H15T10621   1.787  -1.072   5.197 -0.1573 -4.0545  2.3988
   8023SM  C16S10622   1.632  -0.933   5.252  0.4860 -0.0691 -0.5206
   8023SM  H16S10623   1.674  -0.851   5.189  0.0247 -0.5367 -1.4663
   8023SM  H16T10624   1.596  -0.890   5.348  1.1793 -2.0527  0.6825
   8023SM  C17S10625   1.510  -1.005   5.195 -0.1451  0.4972 -0.6385
   8023SM  H17S10626   1.459  -1.064   5.273  0.5209  1.7131  0.7566
   8023SM  H17T10627   1.551  -1.081   5.124 -1.6740 -0.0546 -0.9540
   8023SM  C18S10628   1.415  -0.911   5.119 -0.1771  0.5518 -0.1696
   8023SM  H18S10629   1.328  -0.972   5.088 -0.2453 -0.1381  1.3146
   8023SM  H18T10630   1.471  -0.872   5.030 -0.6353 -1.6704 -1.5206
   8023SM  H18U10631   1.388  -0.834   5.194  0.1864  1.5245 -1.0174
   8023SM   C1F10632   1.778  -0.259   6.485  0.2067 -0.1400  0.4490
   8023SM    OF10633   1.829  -0.157   6.531  0.3898 -0.2064  0.4265
   8023SM   C2F10634   1.653  -0.259   6.396  0.1265 -0.3182 -0.5856
   8023SM   H2F10635   1.574  -0.298   6.464  0.7493 -0.0393  0.3120
   8023SM   H2G10636   1.687  -0.315   6.306  1.7956  1.6215 -1.2525
   8023SM   C3F10637   1.609  -0.115   6.359 -0.2210 -0.0568  0.0235
   8023SM   H3F10638   1.695  -0.059   6.317  2.1318 -0.6898  3.5357
   8023SM   H3G10639   1.588  -0.050   6.447 -0.6133  2.4493 -1.8192
   8023SM   C4F10640   1.483  -0.116   6.269 -0.5575  0.4507  0.1445
   8023SM   H4F10641   1.400  -0.184   6.298  0.5729 -1.1756 -0.2718
   8023SM   H4G10642   1.505  -0.143   6.164  0.4060 -2.2722  0.9449
   8023SM   C5F10643   1.427   0.029   6.254  0.6951  0.0158 -0.0224
   8023SM   H5F10644   1.415   0.075   6.354  1.0975 -3.1890  1.6278
   8023SM   H5G10645   1.332   0.009   6.201  1.2622  0.0156 -1.0575
   8023SM   C6F10646   1.510   0.113   6.164  0.0523  0.1038  0.4892
   8023SM   H6F10647   1.525   0.055   6.070 -2.3709  1.2101 -0.6892
   8023SM   H6G10648   1.611   0.136   6.204  0.5124 -0.5206 -0.2910
   8023SM   C7F10649   1.448   0.247   6.115 -0.0930 -0.3329 -0.2447
   8023SM   H7F10650   1.438   0.315   6.203  1.7966  2.5409 -2.0580
   8023SM   H7G10651   1.346   0.235   6.073 -0.0751  0.1397 -0.4306
   8023SM   C8F10652   1.531   0.316   6.001  0.4472  0.1865  0.1258
   8023SM   H8F10653   1.582   0.238   5.942  0.0074  0.8603 -1.1717
   8023SM   H8G10654   1.615   0.369   6.051  1.4843 -1.3828  0.1427
   8023SM   C9F10655   1.460   0.390   5.885 -1.0550  0.5480 -0.1959
   8023SM   H9F10656   1.378   0.456   5.921 -2.3757 -1.5790  0.8359
   8023SM   H9G10657   1.413   0.311   5.824 -0.9063  0.4045 -0.1242
   8023SM  C10F10658   1.557   0.480   5.804  0.6545  0.1127  0.1715
   8023SM  H10F10659   1.655   0.437   5.771  1.8155  2.7619 -0.0602
   8023SM  H10G10660   1.588   0.562   5.872 -0.8596  0.0248  1.0088
   8023SM  C11F10661   1.484   0.547   5.687  0.0507  0.6055 -0.0428
   8023SM  H11F10662   1.408   0.615   5.729 -2.5324  0.0223 -3.3578
   8023SM  H11G10663   1.428   0.473   5.626 -1.1187  2.4756 -1.3087
   8023SM  C12F10664   1.565   0.627   5.586  0.2564 -1.0958 -0.1472
   8023SM  H12F10665   1.629   0.558   5.527 -0.0050 -0.2141 -1.5166
   8023SM  H12G10666   1.643   0.694   5.629 -0.0504 -0.7203 -0.1762
   8023SM  C13F10667   1.477   0.705   5.482 -0.2740 -0.2848 -0.4662
   8023SM  H13F10668   1.533   0.773   5.414 -1.2562 -0.5516 -1.5925
   8023SM  H13G10669   1.401   0.768   5.532 -0.2506  0.2128 -1.0406
   8023SM  C14F10670   1.394   0.608   5.403 -0.1852  0.2906 -0.2970
   8023SM  H14F10671   1.326   0.544   5.464  0.8516 -0.6969 -0.1441
   8023SM  H14G10672   1.464   0.545   5.343 -2.3683 -1.0614 -1.5721
   8023SM  C15F10673   1.308   0.676   5.291  0.3268  0.3856  0.1628
   8023SM  H15F10674   1.222   0.721   5.344  1.3477  0.1308  2.1685
   8023SM  H15G10675   1.257   0.597   5.231 -1.4202  1.0482  0.7314
   8023SM  C16F10676   1.374   0.775   5.195  0.0804 -0.9974  0.3546
   8023SM  H16F10677   1.445   0.720   5.129 -0.4240  0.4908 -1.4921
   8023SM  H16G10678   1.436   0.847   5.253 -0.4739  0.2645 -0.5763
   8023SM  C17F10679   1.277   0.852   5.103 -0.4853 -1.3163 -0.1269
   8023SM  H17F10680   1.326   0.944   5.067  1.0354 -2.1511 -0.2831
   8023SM  H17G10681   1.193   0.884   5.169  0.9209 -0.3653  1.2931
   8023SM  C18F10682   1.232   0.775   4.975  0.5629 -1.0131  0.1082
   8023SM  H18F10683   1.185   0.675   4.980 -0.4615 -0.4931  1.2800
   8023SM  H18G10684   1.310   0.765   4.896  0.2534 -2.4203 -0.0488
   8023SM  C19F10685   1.121   0.867   4.909  0.2297 -0.2169  0.3540
   8023SM  H19F10686   1.150   0.974   4.903 -0.0386  0.0794  3.1150
   8023SM  H19G10687   1.032   0.867   4.975 -1.1176  1.7023 -1.3132
   8023SM  C20F10688   1.093   0.831   4.765 -0.5054 -0.7421 -0.1262
   8023SM  H20F10689   1.065   0.723   4.768  1.5928 -1.3145  0.8849
   8023SM  H20G10690   1.187   0.841   4.707  0.0917 -1.1465  0.7332
   8023SM  C21F10691   0.983   0.924   4.697  0.2995 -0.3708  0.3334
   8023SM  H21F10692   0.925   0.972   4.779 -0.6612  0.6091 -0.8833
   8023SM  H21G10693   0.923   0.855   4.634 -1.1778 -1.0007  2.2835
   8023SM  C22F10694   1.046   1.039   4.610  0.7345  0.1047  0.4949
   8023SM  H22F10695   1.121   0.998   4.539 -0.5798  1.8898 -2.0634
   8023SM  H22G10696   1.099   1.116   4.669  1.4676  0.9870 -1.2261
   8023SM  C23F10697   0.941   1.101   4.521  0.1198 -0.0243  0.9347
   8023SM  H23F10698   0.855   1.129   4.586 -0.4613 -0.8937  0.5598
   8023SM  H23G10699   0.912   1.039   4.434  1.3952  1.5803 -0.7209
   8023SM  H23H10700   0.983   1.201   4.493 -0.3025 -0.2006 -0.4309
   8123SM     N10701   2.612   4.011   2.148  0.1422 -0.4297  0.7593
   8123SM   C1510702   2.507   3.946   2.227  1.1719 -0.0859  0.0217
   8123SM  H15A10703   2.409   3.939   2.182  0.5888 -2.5700  1.4880
   8123SM  H15B10704   2.491   3.987   2.326  1.4838 -1.1489  0.5293
   8123SM  H15C10705   2.530   3.844   2.255  0.8404 -0.2707 -0.3675
   8123SM   C1410706   2.618   3.940   2.011 -0.5390  0.4682 -0.5510
   8123SM  H14A10707   2.716   3.965   1.974 -0.1594 -1.7008 -1.1468
   8123SM  H14B10708   2.542   3.984   1.948 -1.6646  0.7660  0.9572
   8123SM  H14C10709   2.610   3.833   2.022  0.0096  0.4678 -0.1022
   8123SM   C1310710   2.580   4.162   2.128 -0.2799  0.2936  0.0610
   8123SM  H13A10711   2.564   4.208   2.224 -1.0911 -0.4340  0.2813
   8123SM  H13B10712   2.490   4.164   2.069  1.1253  0.7176 -2.1682
   8123SM  H13C10713   2.655   4.215   2.070 -0.8252  1.8395  0.7100
   8123SM   C1210714   2.743   3.979   2.219 -0.2726 -0.4491  0.1319
   8123SM  H12A10715   2.828   4.015   2.163  0.9851 -1.9003  1.0197
   8123SM  H12B10716   2.761   3.873   2.227  2.6385 -0.3169 -2.6953
   8123SM   C1110717   2.761   4.033   2.364  0.7652  0.2805 -0.0117
   8123SM  H11A10718   2.853   3.984   2.403  1.7853  0.6257 -1.8537
   8123SM  H11B10719   2.676   3.993   2.423 -0.3817  1.4649 -0.7902
   8123SM     P10720   2.892   4.258   2.354 -0.0408  0.4103  0.3438
   8123SM   O1310721   2.978   4.211   2.243  1.3574  0.0566  0.6572
   8123SM   O1410722   2.862   4.400   2.351 -0.3222 -0.1919  0.1413
   8123SM   O1110723   2.976   4.222   2.483  0.1728  0.7935 -0.7401
   8123SM   O1210724   2.752   4.177   2.368 -0.9065 -0.0464  0.2975
   8123SM   C1S10725   2.916   4.188   2.607 -0.0336 -0.2615 -0.3014
   8123SM   H1S10726   2.928   4.079   2.626  0.6431 -0.2329 -0.5216
   8123SM   H1T10727   2.810   4.219   2.617 -0.0878 -0.3665 -0.5598
   8123SM    NF10728   2.906   4.241   2.849 -0.2326 -0.1802  0.4229
   8123SM   HNF10729   2.884   4.322   2.904  0.5973 -1.0518  2.1218
   8123SM   C2S10730   2.992   4.250   2.733 -0.1043  0.1080 -0.0232
   8123SM   H2S10731   3.085   4.192   2.747 -0.4869 -0.5799 -0.3200
   8123SM   C3S10732   3.045   4.398   2.702  0.1604  0.4220 -0.2751
   8123SM   H3S10733   2.968   4.466   2.659 -1.3774 -0.0501  1.6085
   8123SM    O310734   3.156   4.403   2.610 -0.0011 -0.1743 -0.1191
   8123SM   HO310735   3.174   4.309   2.607  1.8176  0.0618  1.6047
   8123SM   C4S10736   3.093   4.447   2.836  0.4044  0.3566 -0.3212
   8123SM   H4S10737   3.174   4.387   2.880 -0.4759 -2.0225 -1.7240
   8123SM   C5S10738   3.025   4.544   2.899 -0.1059  0.1490  0.3908
   8123SM   H5S10739   2.958   4.605   2.836  0.3646  1.2362  0.9192
   8123SM   C6S10740   3.060   4.605   3.033 -0.2214  0.2579  0.5611
   8123SM   H6S10741   3.028   4.709   3.011 -2.6739 -0.8923 -1.9607
   8123SM   H6T10742   3.170   4.605   3.049 -0.0245 -0.4852 -0.6672
   8123SM   C7S10743   2.985   4.535   3.149 -0.2557 -0.1991  0.1823
   8123SM   H7S10744   2.975   4.426   3.133 -0.2227 -0.0523 -0.9941
   8123SM   H7T10745   2.878   4.565   3.144  0.0582  1.1613  1.2085
   8123SM   C8S10746   3.041   4.573   3.281  0.0539 -0.0193 -0.2605
   8123SM   H8S10747   3.017   4.677   3.312  1.2704  0.5579 -1.1872
   8123SM   H8T10748   3.151   4.566   3.268  0.1067 -0.0240  0.1644
   8123SM   C9S10749   3.005   4.472   3.399  0.0955  0.5328 -0.7392
   8123SM   H9S10750   3.028   4.368   3.369 -0.0319 -0.2195  1.6075
   8123SM   H9T10751   2.900   4.492   3.428  0.3348 -0.7462  1.1604
   8123SM  C10S10752   3.100   4.488   3.521  0.4545  0.5802  0.3770
   8123SM  H10S10753   3.090   4.595   3.550 -1.2435  0.8421 -1.0327
   8123SM  H10T10754   3.205   4.468   3.491 -0.4971 -0.1865 -2.7539
   8123SM  C11S10755   3.063   4.387   3.636 -0.3451 -0.4806 -0.2833
   8123SM  H11S10756   3.018   4.293   3.599  0.2003 -1.4465  1.3908
   8123SM  H11T10757   2.978   4.437   3.688  0.1126  0.7995 -0.7114
   8123SM  C12S10758   3.184   4.356   3.732 -0.2707  1.1803  0.2989
   8123SM  H12S10759   3.271   4.326   3.670  0.0751  1.9727  0.3848
   8123SM  H12T10760   3.150   4.269   3.792 -0.7370 -0.7245 -2.5013
   8123SM  C13S10761   3.222   4.476   3.820 -0.1818  0.6202  0.6763
   8123SM  H13S10762   3.148   4.485   3.903  2.2979  1.7471  2.8860
   8123SM  H13T10763   3.213   4.573   3.766 -0.6069  1.5153  2.3027
   8123SM  C14S10764   3.366   4.475   3.869 -0.1757  0.7230 -0.0134
   8123SM  H14S10765   3.386   4.373   3.907 -0.1470  0.4124 -0.8311
   8123SM  H14T10766   3.380   4.547   3.953  0.2727  0.4348  0.1605
   8123SM  C15S10767   3.480   4.501   3.761  0.4192 -0.1004  0.6344
   8123SM  H15S10768   3.452   4.586   3.695 -3.8001  1.0923  3.5318
   8123SM  H15T10769   3.472   4.418   3.687  0.5069  1.3001 -1.0261
   8123SM  C16S10770   3.628   4.495   3.818  1.4491  0.2479 -0.3424
   8123SM  H16S10771   3.654   4.391   3.848 -0.5862 -0.4589 -0.8247
   8123SM  H16T10772   3.639   4.556   3.910  0.6192  0.0716 -0.1118
   8123SM  C17S10773   3.733   4.535   3.709  0.3100  0.0595 -0.7381
   8123SM  H17S10774   3.696   4.469   3.628  0.2673 -1.7030  0.6502
   8123SM  H17T10775   3.830   4.492   3.740  0.0983 -0.0177 -0.1610
   8123SM  C18S10776   3.744   4.686   3.686 -0.4629  0.3724 -0.3510
   8123SM  H18S10777   3.646   4.733   3.662  0.4188  3.4872  1.6188
   8123SM  H18T10778   3.819   4.712   3.608  1.2122  0.0168  1.1037
   8123SM  H18U10779   3.774   4.736   3.780  0.1142  0.4907 -0.5938
   8123SM   C1F10780   2.858   4.122   2.903  0.0113  0.7085  0.2712
   8123SM    OF10781   2.924   4.018   2.887 -0.1039 -0.5983 -0.1622
   8123SM   C2F10782   2.735   4.129   2.992 -0.1668 -0.0327 -0.3312
   8123SM   H2F10783   2.651   4.141   2.921  0.2686  1.7676 -0.5764
   8123SM   H2G10784   2.740   4.214   3.064  0.7080 -1.4219  1.3489
   8123SM   C3F10785   2.722   4.000   3.085 -0.3079  0.4715 -0.1065
   8123SM   H3F10786   2.728   3.910   3.020 -1.5124  0.5087 -0.2936
   8123SM   H3G10787   2.625   4.012   3.136 -0.5435  2.6203 -0.9469
   8123SM   C4F10788   2.830   3.994   3.194  0.3671  0.3499  0.3233
   8123SM   H4F10789   2.843   4.097   3.232 -0.5662 -0.0928  1.9853
   8123SM   H4G10790   2.929   3.963   3.154  0.9074  0.4796  1.5278
   8123SM   C5F10791   2.796   3.910   3.322  0.3161  0.2907  0.4367
   8123SM   H5F10792   2.855   3.951   3.407 -0.3190  0.9704  0.5549
   8123SM   H5G10793   2.818   3.802   3.308  1.8849  0.4754  1.2239
   8123SM   C6F10794   2.644   3.900   3.383 -0.1755  0.2381  0.6391
   8123SM   H6F10795   2.645   3.833   3.472  0.6953 -1.1153 -0.3458
   8123SM   H6G10796   2.582   3.848   3.306  0.0043 -0.3253  0.8646
   8123SM   C7F10797   2.575   4.032   3.424 -0.8265  0.2961  0.2290
   8123SM   H7F10798   2.466   4.010   3.431 -0.9488  0.6048 -0.5949
   8123SM   H7G10799   2.571   4.100   3.337 -1.0897  0.1227  0.1027
   8123SM   C8F10800   2.628   4.091   3.555 -1.2163 -0.5060 -0.1808
   8123SM   H8F10801   2.618   4.202   3.553 -1.5099 -0.4273  2.2863
   8123SM   H8G10802   2.735   4.068   3.572 -0.4700  0.9731 -2.4423
   8123SM   C9F10803   2.559   4.053   3.682 -0.1349 -0.5050 -0.5821
   8123SM   H9F10804   2.630   4.079   3.763 -2.6932 -0.0666  1.6411
   8123SM   H9G10805   2.542   3.945   3.700  1.5753 -0.4045  2.1312
   8123SM  C10F10806   2.427   4.133   3.698  0.1038  0.5990  0.1577
   8123SM  H10F10807   2.364   4.115   3.608 -1.6368  0.1016  1.4126
   8123SM  H10G10808   2.460   4.239   3.705 -0.2101  0.6752  0.5611
   8123SM  C11F10809   2.347   4.101   3.827 -0.3433  0.1813 -0.1423
   8123SM  H11F10810   2.291   4.007   3.808  0.0069  0.0945 -0.8055
   8123SM  H11G10811   2.266   4.175   3.842 -1.2562 -1.0233  1.0298
   8123SM  C12F10812   2.423   4.095   3.956  0.7868 -0.3374 -0.0211
   8123SM  H12F10813   2.491   4.007   3.955  0.9294 -0.2641  1.2907
   8123SM  H12G10814   2.349   4.079   4.038  1.6049 -1.1459  0.5759
   8123SM  C13F10815   2.507   4.211   4.003 -0.2211  0.5521  0.0875
   8123SM  H13F10816   2.445   4.303   4.015 -2.1710 -0.5420 -1.0826
   8123SM  H13G10817   2.579   4.236   3.922  0.1984  0.6927  0.5006
   8123SM  C14F10818   2.577   4.192   4.130 -0.0619 -0.3662 -0.1245
   8123SM  H14F10819   2.662   4.123   4.112  0.3862 -0.8998  3.2998
   8123SM  H14G10820   2.513   4.158   4.214 -0.0561  1.2665  0.5770
   8123SM  C15F10821   2.636   4.326   4.195 -0.5611  0.0895  0.4841
   8123SM  H15F10822   2.562   4.409   4.193  0.2067  0.7937  0.5222
   8123SM  H15G10823   2.714   4.362   4.125 -2.3926 -0.5865 -2.0223
   8123SM  C16F10824   2.706   4.307   4.335 -0.3163  0.4578  0.2571
   8123SM  H16F10825   2.731   4.414   4.354  0.3679  0.8342 -2.3831
   8123SM  H16G10826   2.789   4.234   4.336 -0.6460  0.0140  2.9869
   8123SM  C17F10827   2.608   4.249   4.437  0.5838 -0.7406  0.1623
   8123SM  H17F10828   2.585   4.144   4.408  0.2896 -0.7096  0.2871
   8123SM  H17G10829   2.512   4.305   4.437 -0.7265 -2.8746 -0.1205
   8123SM  C18F10830   2.669   4.241   4.579 -0.1049  0.6605  0.5250
   8123SM  H18F10831   2.677   4.344   4.619  1.0739  0.1143  1.8115
   8123SM  H18G10832   2.775   4.206   4.579 -0.1507  0.1961 -3.1873
   8123SM  C19F10833   2.591   4.149   4.670  0.5365  0.8015  0.1833
   8123SM  H19F10834   2.605   4.039   4.658 -0.1875  0.8754 -1.8184
   8123SM  H19G10835   2.482   4.164   4.655  0.2231 -1.2629  0.1072
   8123SM  C20F10836   2.617   4.176   4.823  0.5510  0.5775  0.9020
   8123SM  H20F10837   2.537   4.119   4.875 -1.5280  1.1467 -1.4969
   8123SM  H20G10838   2.601   4.282   4.852 -0.4778  1.1021 -1.3979
   8123SM  C21F10839   2.749   4.110   4.859 -0.0039  0.0408 -0.6948
   8123SM  H21F10840   2.832   4.168   4.814 -0.5639  1.1901 -0.2930
   8123SM  H21G10841   2.761   4.013   4.806  1.7865  0.2478 -0.7442
   8123SM  C22F10842   2.768   4.087   5.014  0.2999  0.7245 -0.1869
   8123SM  H22F10843   2.684   4.024   5.050  0.1211  0.1384 -1.5917
   8123SM  H22G10844   2.752   4.183   5.068 -2.4958  0.7572 -0.9392
   8123SM  C23F10845   2.913   4.033   5.049  1.0330  0.1658  0.5238
   8123SM  H23F10846   2.942   3.962   4.968 -0.6515 -2.1417  1.8132
   8123SM  H23G10847   2.911   3.969   5.140 -0.2895 -2.6551 -1.3446
   8123SM  H23H10848   2.982   4.117   5.070  0.3217 -0.0392  4.5664
   8223SM     N10849   2.400   5.018   2.259  0.0870  0.6352 -0.1807
   8223SM   C1510850   2.276   4.940   2.283  0.0908  0.0939 -0.2240
   8223SM  H15A10851   2.291   4.847   2.231 -0.3058  0.1832 -0.4968
   8223SM  H15B10852   2.184   4.987   2.253  0.9116  2.2724  0.4553
   8223SM  H15C10853   2.274   4.921   2.390 -0.7798  0.4539 -0.1711
   8223SM   C1410854   2.398   5.052   2.112  0.0032  0.2329  0.1332
   8223SM  H14A10855   2.402   4.965   2.049  0.8983  0.4714 -0.1521
   8223SM  H14B10856   2.483   5.118   2.098  0.2346  0.7599  3.2175
   8223SM  H14C10857   2.310   5.111   2.092  1.7994  3.8862  1.9826
   8223SM   C1310858   2.407   5.138   2.342 -0.1501 -0.0958 -0.8958
   8223SM  H13A10859   2.315   5.194   2.349 -0.0215 -0.0694  1.2128
   8223SM  H13B10860   2.485   5.207   2.315 -0.6964  0.7191 -0.4147
   8223SM  H13C10861   2.439   5.107   2.440  0.0907 -2.2602 -1.5981
   8223SM   C1210862   2.511   4.923   2.291 -0.3985 -0.3050  0.1918
   8223SM  H12A10863   2.598   4.987   2.289 -1.4173  1.0977 -0.8830
   8223SM  H12B10864   2.529   4.845   2.218 -0.5420 -1.8470  1.7216
   8223SM   C1110865   2.510   4.850   2.429 -0.5140 -0.1265  0.2813
   8223SM  H11A10866   2.598   4.783   2.437 -0.0951  0.6253  3.0460
   8223SM  H11B10867   2.425   4.779   2.432 -0.6278  0.0179  0.6078
   8223SM     P10868   2.633   4.981   2.619 -0.1076 -0.0626 -0.5773
   8223SM   O1310869   2.745   4.969   2.528  0.0905 -0.5265 -0.4457
   8223SM   O1410870   2.601   5.114   2.664  0.3219  0.0290  0.0345
   8223SM   O1110871   2.657   4.887   2.739 -0.4151  0.3106 -0.6133
   8223SM   O1210872   2.502   4.930   2.555  0.0840  0.6064  0.2159
   8223SM   C1S10873   2.575   4.890   2.855  0.5236  0.4160  0.6309
   8223SM   H1S10874   2.519   4.795   2.844  3.5046 -1.3495 -0.4004
   8223SM   H1T10875   2.499   4.971   2.860  1.0565  1.0127 -0.6383
   8223SM    NF10876   2.572   4.813   3.091 -0.5000 -0.5498 -0.3536
   8223SM   HNF10877   2.558   4.884   3.159 -2.3614 -1.2500  0.0493
   8223SM   C2S10878   2.657   4.856   2.976 -0.8296  0.4031  0.2426
   8223SM   H2S10879   2.719   4.767   2.952 -1.0104 -0.1561  1.7072
   8223SM   C3S10880   2.744   4.981   3.013  0.4079 -0.7830  0.4520
   8223SM   H3S10881   2.668   5.059   3.035  0.0785 -0.5670 -1.3038
   8223SM    O310882   2.820   5.032   2.899 -0.2003 -0.7457  0.0229
   8223SM   HO310883   2.772   4.999   2.823  0.4717 -2.1177  0.1615
   8223SM   C4S10884   2.826   4.955   3.137 -0.6681  0.7629  0.8187
   8223SM   H4S10885   2.896   4.870   3.126 -1.4773  0.2800 -1.0317
   8223SM   C5S10886   2.811   5.022   3.251 -0.4543 -0.5617  0.8223
   8223SM   H5S10887   2.753   5.116   3.259 -0.5996 -0.5109 -0.5577
   8223SM   C6S10888   2.895   4.986   3.370 -0.0942 -0.2486 -0.4916
   8223SM   H6S10889   2.985   5.050   3.381 -0.0291 -0.6600  2.1560
   8223SM   H6T10890   2.933   4.883   3.359 -0.4818 -0.5065  0.4667
   8223SM   C7S10891   2.799   5.004   3.495  0.4933 -0.3390  0.4645
   8223SM   H7S10892   2.705   4.947   3.480 -1.3175  2.2214  1.3795
   8223SM   H7T10893   2.784   5.114   3.502 -3.1912 -0.6067 -0.7197
   8223SM   C8S10894   2.853   4.948   3.629 -0.3034  0.1224 -0.7936
   8223SM   H8S10895   2.941   5.013   3.646  0.1123  0.3162 -3.3200
   8223SM   H8T10896   2.883   4.844   3.608  0.6167  0.0496  0.7331
   8223SM   C9S10897   2.749   4.961   3.747 -0.0030 -0.3117  0.3689
   8223SM   H9S10898   2.785   4.929   3.847 -0.1289  1.4668  1.0130
   8223SM   H9T10899   2.660   4.900   3.721 -0.1612 -0.3968  1.0891
   8223SM  C10S10900   2.690   5.102   3.770  0.3887  0.5302  0.0629
   8223SM  H10S10901   2.642   5.142   3.678  1.8975 -1.2984 -1.6305
   8223SM  H10T10902   2.770   5.171   3.804  0.9055 -1.2111  2.7443
   8223SM  C11S10903   2.581   5.117   3.875 -0.4472 -0.5804 -0.6736
   8223SM  H11S10904   2.601   5.048   3.961 -0.4187  0.5490  0.2473
   8223SM  H11T10905   2.478   5.094   3.840 -1.0801 -0.8136  1.1855
   8223SM  C12S10906   2.574   5.261   3.945 -0.0322 -0.2901  1.3084
   8223SM  H12S10907   2.507   5.320   3.879 -0.4404 -0.6172  1.4259
   8223SM  H12T10908   2.675   5.307   3.950  0.1359 -0.4422 -0.1075
   8223SM  C13S10909   2.538   5.251   4.092  0.0059  0.4162  0.6956
   8223SM  H13S10910   2.622   5.204   4.146 -0.0780  0.1464  0.5922
   8223SM  H13T10911   2.449   5.185   4.099  0.4582 -0.0996  1.6507
   8223SM  C14S10912   2.520   5.390   4.162 -0.4052  0.3827  0.7617
   8223SM  H14S10913   2.603   5.460   4.139 -1.5508  1.1635 -1.3209
   8223SM  H14T10914   2.515   5.358   4.268  0.2407 -3.2399 -0.1546
   8223SM  C15S10915   2.390   5.466   4.125 -0.5759  0.6015  0.3697
   8223SM  H15S10916   2.384   5.481   4.015  1.0655  0.7248  0.2790
   8223SM  H15T10917   2.397   5.567   4.170 -1.4017 -0.1828  2.3568
   8223SM  C16S10918   2.260   5.389   4.168 -0.0902 -0.7661 -0.4520
   8223SM  H16S10919   2.266   5.352   4.273  2.8473  1.4229  0.3035
   8223SM  H16T10920   2.251   5.297   4.106 -1.0456 -0.4356 -0.8256
   8223SM  C17S10921   2.131   5.461   4.146  0.6498 -0.8408  0.2620
   8223SM  H17S10922   2.115   5.489   4.039 -0.0821 -0.8994  0.3508
   8223SM  H17T10923   2.138   5.562   4.191 -0.7337 -0.1388 -0.9963
   8223SM  C18S10924   2.002   5.399   4.194  0.0496  0.3362  0.4507
   8223SM  H18S10925   1.959   5.329   4.119 -1.5923  0.9259  0.7924
   8223SM  H18T10926   1.925   5.475   4.220 -0.4652 -0.8555  2.5819
   8223SM  H18U10927   2.010   5.344   4.290 -0.3794 -0.1967  0.1818
   8223SM   C1F10928   2.496   4.708   3.090  0.3012  0.1475  0.3546
   8223SM    OF10929   2.492   4.628   2.991 -0.2849 -0.6513 -0.9725
   8223SM   C2F10930   2.407   4.684   3.210 -0.5482 -0.4620  0.1311
   8223SM   H2F10931   2.383   4.576   3.204 -1.6867 -0.1839 -0.7985
   8223SM   H2G10932   2.316   4.747   3.196 -0.0316  0.5003  1.0027
   8223SM   C3F10933   2.472   4.730   3.342  0.0000 -0.3992  0.5462
   8223SM   H3F10934   2.402   4.692   3.419 -2.2028 -2.1800 -2.1199
   8223SM   H3G10935   2.484   4.840   3.348  0.5494 -0.5058  1.7521
   8223SM   C4F10936   2.617   4.678   3.365  0.3669  0.3891 -0.3619
   8223SM   H4F10937   2.695   4.737   3.312 -1.2400  2.4000 -0.5876
   8223SM   H4G10938   2.607   4.576   3.321  1.0471  0.1114  0.0989
   8223SM   C5F10939   2.654   4.656   3.513  0.4716  0.5020 -0.0229
   8223SM   H5F10940   2.643   4.757   3.559 -0.1724  0.8500 -0.9045
   8223SM   H5G10941   2.757   4.621   3.535  1.2776  3.0740  0.6238
   8223SM   C6F10942   2.570   4.544   3.577  0.3576 -0.2127 -0.0279
   8223SM   H6F10943   2.563   4.467   3.497  2.7001  2.1763 -2.7273
   8223SM   H6G10944   2.470   4.585   3.601  1.1257  2.5941 -1.2819
   8223SM   C7F10945   2.623   4.501   3.716  0.2049  0.3951  0.6156
   8223SM   H7F10946   2.723   4.456   3.701  1.3346  2.9647 -0.0927
   8223SM   H7G10947   2.555   4.422   3.754 -0.8636  0.0380 -1.9032
   8223SM   C8F10948   2.640   4.621   3.809 -0.2289 -0.2989  0.3846
   8223SM   H8F10949   2.543   4.675   3.819 -1.2555 -1.7994 -0.9769
   8223SM   H8G10950   2.723   4.683   3.769  1.7859 -2.4991  0.9430
   8223SM   C9F10951   2.671   4.587   3.955 -0.3569 -0.5345 -0.0966
   8223SM   H9F10952   2.756   4.517   3.961 -0.8925 -1.1287  0.8768
   8223SM   H9G10953   2.592   4.521   3.999 -0.1523 -0.3218  0.6067
   8223SM  C10F10954   2.690   4.720   4.027  0.0865  0.1134 -0.5378
   8223SM  H10F10955   2.602   4.787   4.014  0.7644  1.4522  1.4054
   8223SM  H10G10956   2.780   4.775   3.990  0.1850 -0.0026 -0.4712
   8223SM  C11F10957   2.708   4.715   4.178  0.2681  0.0848  0.1043
   8223SM  H11F10958   2.794   4.650   4.203 -0.3760 -0.7750  0.1380
   8223SM  H11G10959   2.624   4.656   4.220 -1.3445  1.3522 -1.1992
   8223SM  C12F10960   2.730   4.857   4.241  0.1929  0.2609 -0.3790
   8223SM  H12F10961   2.646   4.907   4.189 -0.9956 -0.3660  0.8694
   8223SM  H12G10962   2.827   4.905   4.215  0.0504  0.8004  0.0559
   8223SM  C13F10963   2.716   4.868   4.397  0.0028 -0.6954  0.1552
   8223SM  H13F10964   2.742   4.975   4.412 -1.2518 -0.2816 -0.4189
   8223SM  H13G10965   2.798   4.804   4.436  1.0759 -0.2158 -1.2292
   8223SM  C14F10966   2.580   4.837   4.457  0.2956 -0.0249  0.8564
   8223SM  H14F10967   2.562   4.728   4.447 -0.9584  0.2119  0.4020
   8223SM  H14G10968   2.508   4.902   4.402  2.7134  1.4032 -0.7951
   8223SM  C15F10969   2.579   4.867   4.605  0.6165  0.1440  0.3647
   8223SM  H15F10970   2.476   4.883   4.643 -0.6373  0.0769 -2.7258
   8223SM  H15G10971   2.651   4.947   4.635  1.3757 -0.5613  0.4509
   8223SM  C16F10972   2.631   4.740   4.679 -0.5806  0.4900 -0.7783
   8223SM  H16F10973   2.728   4.716   4.631 -1.2405 -0.9061 -1.4769
   8223SM  H16G10974   2.572   4.646   4.670 -0.0289  0.0594  0.0279
   8223SM  C17F10975   2.640   4.766   4.836  0.1697  0.0503  0.2053
   8223SM  H17F10976   2.586   4.857   4.870  0.1125 -0.0501  0.3858
   8223SM  H17G10977   2.749   4.778   4.855  0.5503 -1.2501 -1.0020
   8223SM  C18F10978   2.592   4.655   4.935 -0.3148  0.3131  0.1509
   8223SM  H18F10979   2.644   4.681   5.029  0.5863  0.6462 -0.4243
   8223SM  H18G10980   2.622   4.553   4.902 -0.4495  0.7990 -1.5638
   8223SM  C19F10981   2.438   4.647   4.946 -0.2633  0.7026 -0.1224
   8223SM  H19F10982   2.395   4.629   4.845  1.3794  1.5414 -1.0048
   8223SM  H19G10983   2.402   4.747   4.977 -0.5520  0.9903 -1.3150
   8223SM  C20F10984   2.399   4.532   5.039 -0.1005 -0.8034 -0.5792
   8223SM  H20F10985   2.412   4.564   5.145 -0.7038 -1.2705 -0.3590
   8223SM  H20G10986   2.473   4.450   5.035  2.1864  1.1072  0.1607
   8223SM  C21F10987   2.258   4.477   5.029  0.0038 -0.4305 -0.6173
   8223SM  H21F10988   2.231   4.434   4.930 -2.7955 -0.5674  0.1323
   8223SM  H21G10989   2.186   4.562   5.033 -1.2441 -1.5065  1.8301
   8223SM  C22F10990   2.223   4.377   5.138 -0.4069 -0.9689 -0.1258
   8223SM  H22F10991   2.118   4.346   5.124 -1.4049  2.3712 -0.9257
   8223SM  H22G10992   2.219   4.445   5.226  0.0491 -1.9946  0.7083
   8223SM  C23F10993   2.309   4.256   5.155 -0.0063  0.2838  0.2354
   8223SM  H23F10994   2.329   4.198   5.062  2.4922  1.1507  0.1494
   8223SM  H23G10995   2.257   4.182   5.221 -3.3314  0.7105 -1.6779
   8223SM  H23H10996   2.408   4.283   5.199  1.3112  1.1692 -3.0018
   8323SM     N10997   2.361   2.943   2.536  0.6865  0.0620 -0.4079
   8323SM   C1510998   2.357   2.956   2.684 -0.1412 -0.8231  0.6546
   8323SM  H15A10999   2.295   2.877   2.725 -0.1723 -0.9983  0.2776
   8323SM  H15B11000   2.323   3.055   2.711  0.4300 -0.0486 -1.2674
   8323SM  H15C11001   2.457   2.954   2.724 -0.4478  1.2856  1.6367
   8323SM   C1411002   2.408   2.802   2.510  0.5086  0.5981  0.0856
   8323SM  H14A11003   2.332   2.728   2.532 -0.5580  1.3483 -0.9952
   8323SM  H14B11004   2.501   2.778   2.559  0.0463  0.5632  0.9679
   8323SM  H14C11005   2.434   2.791   2.406  1.1655 -0.0822  0.3145
   8323SM   C1311006   2.221   2.970   2.475 -1.0735 -0.3765  0.4569
   8323SM  H13A11007   2.227   3.070   2.433  1.1428 -0.9287 -0.6997
   8323SM  H13B11008   2.142   2.957   2.547 -0.1915 -1.3260  1.2877
   8323SM  H13C11009   2.205   2.922   2.380  0.6282  1.6919 -0.9984
   8323SM   C1211010   2.465   3.035   2.475 -0.5305 -0.3081 -0.0480
   8323SM  H12A11011   2.486   3.005   2.374  3.2067 -1.4620  0.9324
   8323SM  H12B11012   2.551   3.000   2.531 -1.8747 -1.2734  1.5225
   8323SM   C1111013   2.447   3.177   2.493 -0.5229 -0.3627  0.0094
   8323SM  H11A11014   2.541   3.229   2.463 -0.5665 -1.3490 -2.0495
   8323SM  H11B11015   2.445   3.194   2.602 -1.4795  1.4068 -0.2577
   8323SM     P11016   2.306   3.392   2.470 -0.1908 -0.0162 -0.1948
   8323SM   O1311017   2.408   3.479   2.407 -0.1190 -0.1751 -0.0185
   8323SM   O1411018   2.167   3.434   2.450 -0.3377 -0.0933 -0.2562
   8323SM   O1111019   2.342   3.392   2.623 -0.0314 -0.2567  0.0639
   8323SM   O1211020   2.335   3.241   2.426  0.3320  0.0118 -0.4861
   8323SM   C1S11021   2.240   3.344   2.711  0.4093 -0.2143  0.0735
   8323SM   H1S11022   2.235   3.233   2.708 -1.2276 -0.1672 -0.0353
   8323SM   H1T11023   2.135   3.374   2.690  0.5912 -0.6527 -1.5783
   8323SM    NF11024   2.179   3.326   2.958 -0.0095  0.0774 -0.7058
   8323SM   HNF11025   2.104   3.375   3.002  0.6276  1.3207 -0.9407
   8323SM   C2S11026   2.267   3.395   2.862  0.2375  0.0646 -0.0347
   8323SM   H2S11027   2.373   3.374   2.886  0.4230 -0.9825 -1.6013
   8323SM   C3S11028   2.246   3.549   2.861  0.3775 -0.0546  0.7723
   8323SM   H3S11029   2.140   3.583   2.855  1.0609  2.8332  2.6831
   8323SM    O311030   2.332   3.618   2.770 -0.3861  0.0771 -0.0967
   8323SM   HO311031   2.368   3.535   2.738 -0.2374  0.2094 -0.2693
   8323SM   C4S11032   2.289   3.606   2.993 -0.3485  0.0452 -0.0430
   8323SM   H4S11033   2.395   3.602   3.020 -0.9568 -1.6294  2.4317
   8323SM   C5S11034   2.203   3.645   3.093  0.6874  0.7519  0.1496
   8323SM   H5S11035   2.095   3.642   3.071  0.9117  0.2043 -0.9544
   8323SM   C6S11036   2.229   3.700   3.230 -0.3094 -0.6658  0.2018
   8323SM   H6S11037   2.184   3.800   3.244  1.1904 -0.0233  0.5797
   8323SM   H6T11038   2.339   3.716   3.232 -0.4159  0.0349  0.6679
   8323SM   C7S11039   2.184   3.603   3.336 -0.0205  0.2075  0.6459
   8323SM   H7S11040   2.240   3.508   3.320 -0.4451  0.0489  0.0339
   8323SM   H7T11041   2.077   3.582   3.314 -0.3523  1.2584  1.1668
   8323SM   C8S11042   2.193   3.646   3.483 -0.8103  0.4767  0.5062
   8323SM   H8S11043   2.126   3.733   3.501 -1.3794  0.2052 -0.2669
   8323SM   H8T11044   2.299   3.676   3.500 -0.4071 -1.3592  1.5591
   8323SM   C9S11045   2.166   3.541   3.584 -0.1393  0.1487 -0.8181
   8323SM   H9S11046   2.237   3.555   3.668 -2.8137  1.3313  1.4173
   8323SM   H9T11047   2.191   3.440   3.546 -0.6137 -0.0396 -0.6292
   8323SM  C10S11048   2.016   3.553   3.635 -0.2948 -0.0069 -0.2820
   8323SM  H10S11049   1.952   3.553   3.544  0.9253 -0.8031 -1.1614
   8323SM  H10T11050   1.997   3.647   3.692  1.9609 -0.4797  1.3822
   8323SM  C11S11051   1.968   3.432   3.726  0.2528  0.8298  0.8509
   8323SM  H11S11052   1.990   3.338   3.671  0.3704 -0.8571  3.6159
   8323SM  H11T11053   1.859   3.456   3.728  0.6498  3.2164 -1.0986
   8323SM  C12S11054   2.030   3.431   3.863  0.4059 -0.6957 -0.2720
   8323SM  H12S11055   2.031   3.536   3.901  0.8592 -0.0638 -1.9250
   8323SM  H12T11056   2.136   3.398   3.854  0.5753 -0.0550 -0.7647
   8323SM  C13S11057   1.970   3.342   3.979  0.5079 -0.2715  0.3536
   8323SM  H13S11058   1.990   3.237   3.952 -1.3562 -0.4202 -0.6363
   8323SM  H13T11059   1.860   3.356   3.979  0.4867 -0.4438  0.3031
   8323SM  C14S11060   2.042   3.380   4.106  0.5675 -0.1488  0.0548
   8323SM  H14S11061   2.042   3.487   4.134  1.8310  0.3908 -1.8503
   8323SM  H14T11062   2.146   3.343   4.099  0.9915  0.5290  1.9807
   8323SM  C15S11063   1.986   3.312   4.235  0.1653 -0.1444  0.7200
   8323SM  H15S11064   1.954   3.211   4.202 -0.6089  0.8712 -1.9179
   8323SM  H15T11065   1.903   3.366   4.284 -1.9569 -1.5127 -1.1699
   8323SM  C16S11066   2.094   3.293   4.345  0.4780  0.5928  0.3957
   8323SM  H16S11067   2.180   3.232   4.308 -0.9610 -0.3133 -1.6439
   8323SM  H16T11068   2.057   3.257   4.443 -1.7724 -1.5879 -1.1430
   8323SM  C17S11069   2.162   3.433   4.372  0.3333  0.4877  0.7596
   8323SM  H17S11070   2.230   3.457   4.288 -1.4468 -0.1092 -0.9158
   8323SM  H17T11071   2.217   3.420   4.468  0.2408 -0.3646  0.7054
   8323SM  C18S11072   2.069   3.556   4.398 -0.4818  0.2170 -0.3509
   8323SM  H18S11073   2.008   3.523   4.484  1.3306 -1.7755  0.2553
   8323SM  H18T11074   2.002   3.572   4.310  0.8034 -0.7481 -1.5607
   8323SM  H18U11075   2.116   3.653   4.422 -4.2186  1.9500  0.6667
   8323SM   C1F11076   2.196   3.195   2.969 -0.0719 -0.2262  0.5645
   8323SM    OF11077   2.288   3.138   2.909 -0.1917  0.1292 -0.3649
   8323SM   C2F11078   2.110   3.122   3.066 -0.0223 -0.5770  0.1605
   8323SM   H2F11079   2.069   3.032   3.015 -1.8987  0.2978  0.0433
   8323SM   H2G11080   2.023   3.181   3.100 -0.1154  0.1738 -1.2880
   8323SM   C3F11081   2.183   3.061   3.193  0.3119  0.2448  1.3772
   8323SM   H3F11082   2.259   2.989   3.155 -1.1090 -0.8527  0.4892
   8323SM   H3G11083   2.113   3.003   3.257 -1.3823 -2.2171 -2.3598
   8323SM   C4F11084   2.255   3.156   3.291  0.0144  0.2874  0.2090
   8323SM   H4F11085   2.176   3.229   3.320 -0.2310  0.4757 -0.8714
   8323SM   H4G11086   2.334   3.208   3.233  0.8258  1.3350  2.1664
   8323SM   C5F11087   2.303   3.104   3.422 -0.0557  0.6135 -0.5805
   8323SM   H5F11088   2.392   3.162   3.455  2.4706 -2.5620 -1.2933
   8323SM   H5G11089   2.346   3.004   3.402 -0.6322  0.3909 -0.7147
   8323SM   C6F11090   2.197   3.091   3.535  0.5747  0.0955  0.2787
   8323SM   H6F11091   2.103   3.043   3.499 -1.7595  3.2235  1.7373
   8323SM   H6G11092   2.173   3.194   3.568  0.6200  0.6677 -1.4113
   8323SM   C7F11093   2.246   3.011   3.655 -0.0606  0.9995 -0.2881
   8323SM   H7F11094   2.346   3.044   3.691  1.2312 -1.9525 -0.8706
   8323SM   H7G11095   2.265   2.908   3.616 -2.3163  0.1189  0.7452
   8323SM   C8F11096   2.149   3.013   3.768 -0.4101  0.1696 -0.2917
   8323SM   H8F11097   2.055   2.959   3.745  0.0512 -1.0270  0.5227
   8323SM   H8G11098   2.132   3.120   3.791  0.3920  0.0837  0.7932
   8323SM   C9F11099   2.211   2.939   3.891 -0.8763  0.5434 -0.0434
   8323SM   H9F11100   2.255   2.844   3.854  2.2013  1.6608  0.4327
   8323SM   H9G11101   2.126   2.912   3.957 -1.9231  3.4639 -0.0605
   8323SM  C10F11102   2.314   3.027   3.964  0.0390  0.1310 -0.4537
   8323SM  H10F11103   2.265   3.120   3.997  1.7968  0.3189  1.8454
   8323SM  H10G11104   2.402   3.059   3.904 -0.7175  0.1077 -1.6064
   8323SM  C11F11105   2.374   2.958   4.082  0.1113  0.4402 -0.4083
   8323SM  H11F11106   2.435   2.869   4.058 -1.2234 -0.9250  1.0308
   8323SM  H11G11107   2.296   2.922   4.152  1.8434  0.8950  1.8836
   8323SM  C12F11108   2.463   3.047   4.172 -0.3881 -0.5568  0.0608
   8323SM  H12F11109   2.465   3.147   4.122 -1.6113  0.2201  1.4655
   8323SM  H12G11110   2.567   3.012   4.180 -0.2308 -0.2081 -0.4227
   8323SM  C13F11111   2.409   3.066   4.314 -0.5636 -0.0359 -0.8204
   8323SM  H13F11112   2.449   2.985   4.378  0.7949  1.8845  0.8798
   8323SM  H13G11113   2.299   3.058   4.330 -0.2993  1.2687  2.3535
   8323SM  C14F11114   2.458   3.199   4.369  0.2087 -0.4387  0.4925
   8323SM  H14F11115   2.419   3.283   4.308  1.4718  0.3606  0.7698
   8323SM  H14G11116   2.562   3.214   4.333  0.0942  0.4426  0.5025
   8323SM  C15F11117   2.431   3.220   4.517 -0.6247 -0.1743  0.0692
   8323SM  H15F11118   2.474   3.139   4.581 -3.5373 -1.0813  1.0148
   8323SM  H15G11119   2.322   3.211   4.533 -0.8000  1.4697 -0.0674
   8323SM  C16F11120   2.471   3.355   4.577  0.6901  0.1497 -0.1706
   8323SM  H16F11121   2.413   3.433   4.523 -0.5996 -1.1939 -0.7948
   8323SM  H16G11122   2.577   3.377   4.553  0.7091  1.5433  1.0314
   8323SM  C17F11123   2.441   3.347   4.730 -0.9415 -0.3248  0.1497
   8323SM  H17F11124   2.519   3.276   4.767 -0.8751 -0.3729 -0.0784
   8323SM  H17G11125   2.335   3.313   4.724 -1.6291  1.6401  0.6277
   8323SM  C18F11126   2.426   3.483   4.794 -0.3830  0.0070 -0.4355
   8323SM  H18F11127   2.513   3.548   4.771 -0.8696  0.3402 -1.4360
   8323SM  H18G11128   2.415   3.470   4.904 -0.8909 -0.5233 -0.5393
   8323SM  C19F11129   2.306   3.561   4.746  0.8265 -0.5591  0.4348
   8323SM  H19F11130   2.213   3.500   4.748 -0.6608  1.5110 -1.1072
   8323SM  H19G11131   2.319   3.596   4.641 -0.1150 -0.8561  0.2069
   8323SM  C20F11132   2.280   3.680   4.844 -0.4949  0.1917 -0.4221
   8323SM  H20F11133   2.381   3.724   4.855 -0.1959 -0.5783  0.0287
   8323SM  H20G11134   2.247   3.641   4.943 -0.6727 -1.2571 -1.0282
   8323SM  C21F11135   2.171   3.772   4.791  0.4898 -0.4846 -0.5095
   8323SM  H21F11136   2.073   3.720   4.798  0.4470 -0.4882 -1.0438
   8323SM  H21G11137   2.196   3.789   4.684  1.4286 -0.1769 -0.2506
   8323SM  C22F11138   2.168   3.914   4.851  0.4086  0.2772 -0.7021
   8323SM  H22F11139   2.236   3.965   4.780 -1.1629  0.1903 -2.3881
   8323SM  H22G11140   2.208   3.909   4.954  1.1107  0.4087 -0.9657
   8323SM  C23F11141   2.040   3.992   4.857 -0.0709  0.7700  1.0345
   8323SM  H23F11142   1.953   3.932   4.893  0.8575 -1.2253  0.1049
   8323SM  H23G11143   2.019   4.023   4.753  0.7866 -1.8583  0.0175
   8323SM  H23H11144   2.046   4.082   4.921 -1.2290 -1.4636  4.6121
   8423SM     N11145   3.303   2.455   2.215  0.0708 -0.0674  0.4817
   8423SM   C1511146   3.164   2.474   2.180  0.7738 -0.0257  0.7395
   8423SM  H15A11147   3.157   2.537   2.092  1.0460  0.5499  1.1191
   8423SM  H15B11148   3.121   2.526   2.265  3.0042  1.2835  1.1557
   8423SM  H15C11149   3.112   2.381   2.161 -0.1269  0.7256 -0.6659
   8423SM   C1411150   3.375   2.364   2.105 -0.3796 -0.7927 -1.1811
   8423SM  H14A11151   3.360   2.410   2.009  1.7079  2.1021 -0.2465
   8423SM  H14B11152   3.328   2.267   2.116 -0.1221 -0.7276  0.7713
   8423SM  H14C11153   3.479   2.350   2.130 -0.6137  0.3482  0.5610
   8423SM   C1311154   3.371   2.588   2.202 -0.2289 -0.0032 -0.2160
   8423SM  H13A11155   3.360   2.620   2.100 -1.3102  0.3278 -0.0032
   8423SM  H13B11156   3.476   2.582   2.229  0.2351 -0.2344 -1.9500
   8423SM  H13C11157   3.327   2.657   2.273  1.1065  1.2006 -0.5043
   8423SM   C1211158   3.306   2.400   2.354  1.1132 -0.2639 -0.4036
   8423SM  H12A11159   3.408   2.373   2.374  0.7916 -0.5024  0.9802
   8423SM  H12B11160   3.259   2.303   2.358  1.6698 -0.7080 -2.9096
   8423SM   C1111161   3.254   2.494   2.466 -0.3154  0.1999  0.9912
   8423SM  H11A11162   3.294   2.597   2.453 -0.6812  0.2288 -0.0319
   8423SM  H11B11163   3.292   2.439   2.555 -0.2461 -0.5184  0.5265
   8423SM     P11164   3.010   2.390   2.504 -0.0124  0.0135  0.0964
   8423SM   O1311165   2.882   2.407   2.436  0.4623  0.4762  0.3585
   8423SM   O1411166   3.065   2.260   2.468 -0.1428  0.1728 -0.2559
   8423SM   O1111167   2.998   2.392   2.666  0.4844 -0.7033 -0.0275
   8423SM   O1211168   3.110   2.501   2.466 -0.4545 -0.2727  0.2334
   8423SM   C1S11169   2.986   2.523   2.732 -0.5825  0.1521 -0.5860
   8423SM   H1S11170   2.880   2.549   2.710 -1.3568 -0.1387  2.3915
   8423SM   H1T11171   3.056   2.595   2.685 -1.3156  0.7051 -0.8575
   8423SM    NF11172   2.968   2.624   2.961  0.6471  0.7951  0.0725
   8423SM   HNF11173   3.031   2.686   3.007 -0.9026  1.0405  1.9618
   8423SM   C2S11174   3.018   2.510   2.888  0.6952  0.5583  0.1579
   8423SM   H2S11175   2.967   2.422   2.931 -0.0362  1.6718  1.6597
   8423SM   C3S11176   3.170   2.482   2.904 -0.2261 -0.0308 -0.1188
   8423SM   H3S11177   3.234   2.563   2.863 -1.6621  1.9510  1.3867
   8423SM    O311178   3.215   2.353   2.862  0.2364  0.3981  0.1191
   8423SM   HO311179   3.146   2.317   2.807  0.9642  1.7710 -1.8165
   8423SM   C4S11180   3.195   2.477   3.053  0.2178 -0.2296  0.9042
   8423SM   H4S11181   3.142   2.399   3.110 -0.7192 -1.1173 -1.0723
   8423SM   C5S11182   3.294   2.548   3.116  0.2958  0.0620  0.1868
   8423SM   H5S11183   3.350   2.621   3.056  0.0024 -0.9149 -1.3332
   8423SM   C6S11184   3.325   2.535   3.266  0.2487  0.4669  0.2522
   8423SM   H6S11185   3.396   2.614   3.297  0.8392  0.5377 -1.2168
   8423SM   H6T11186   3.376   2.439   3.287 -2.4438 -1.0295  0.4894
   8423SM   C7S11187   3.210   2.536   3.365  0.8521 -0.4097  0.3635
   8423SM   H7S11188   3.151   2.442   3.355 -1.4023  1.0669 -1.1935
   8423SM   H7T11189   3.152   2.628   3.343  1.2839 -0.0925  0.5440
   8423SM   C8S11190   3.261   2.551   3.512 -0.2897 -0.0876 -0.1091
   8423SM   H8S11191   3.341   2.626   3.534  0.1876 -0.7570  0.4990
   8423SM   H8T11192   3.294   2.453   3.553 -1.6971 -0.0156  1.3120
   8423SM   C9S11193   3.138   2.593   3.600  0.1356  0.0297  0.1526
   8423SM   H9S11194   3.064   2.516   3.570  0.5764 -0.0048 -0.8807
   8423SM   H9T11195   3.086   2.688   3.575 -0.0834 -0.5595 -1.8160
   8423SM  C10S11196   3.172   2.600   3.750  0.0962 -0.1953  0.3735
   8423SM  H10S11197   3.277   2.637   3.754  0.5879 -1.3446 -1.1994
   8423SM  H10T11198   3.160   2.500   3.798  0.7264 -0.6932 -0.4924
   8423SM  C11S11199   3.084   2.711   3.821  0.3222 -0.0700 -0.4389
   8423SM  H11S11200   2.977   2.679   3.817  0.8036 -2.0781  1.0841
   8423SM  H11T11201   3.094   2.802   3.759  0.9576  0.5177  0.4926
   8423SM  C12S11202   3.128   2.737   3.966  0.0947 -0.1683 -0.2243
   8423SM  H12S11203   3.058   2.815   4.003  0.2616 -0.4696  0.7505
   8423SM  H12T11204   3.231   2.776   3.955  1.2818 -3.1867 -0.9207
   8423SM  C13S11205   3.140   2.616   4.059  0.0834 -0.5038  0.6739
   8423SM  H13S11206   3.223   2.564   4.008  0.5702  0.2395  0.6984
   8423SM  H13T11207   3.055   2.544   4.058 -0.2047 -0.1681  0.6512
   8423SM  C14S11208   3.181   2.657   4.198  0.3404  0.8206  0.1241
   8423SM  H14S11209   3.103   2.726   4.237 -0.1607 -0.5434  1.6803
   8423SM  H14T11210   3.275   2.716   4.212  1.3272 -0.5862 -0.3268
   8423SM  C15S11211   3.181   2.544   4.305  0.3256  0.2527 -0.2495
   8423SM  H15S11212   3.262   2.469   4.295 -0.5840 -1.1222  2.1098
   8423SM  H15T11213   3.089   2.482   4.302  0.1385  0.5543 -1.3036
   8423SM  C16S11214   3.196   2.608   4.438  0.5419 -1.1615 -1.2088
   8423SM  H16S11215   3.178   2.531   4.516  1.3434  0.4347  0.6275
   8423SM  H16T11216   3.127   2.691   4.459  0.5612 -1.4872  0.2408
   8423SM  C17S11217   3.347   2.655   4.467 -0.2344  0.0173  0.4427
   8423SM  H17S11218   3.347   2.766   4.479  3.8451  0.1572  0.3862
   8423SM  H17T11219   3.424   2.632   4.391  0.9628  2.5631  0.7874
   8423SM  C18S11220   3.420   2.592   4.584  0.8883  0.5951  0.1418
   8423SM  H18S11221   3.359   2.582   4.677  2.0837 -0.6563  0.8252
   8423SM  H18T11222   3.512   2.641   4.622  3.0845 -1.0470 -2.6508
   8423SM  H18U11223   3.437   2.487   4.555 -0.1869  0.4251  0.0871
   8423SM   C1F11224   2.841   2.661   2.975  0.0826  0.2137 -0.2878
   8423SM    OF11225   2.752   2.584   2.943 -0.1217  0.3389 -0.8281
   8423SM   C2F11226   2.823   2.795   3.040  0.0472  0.0834 -0.2503
   8423SM   H2F11227   2.736   2.840   2.987 -2.1396 -2.1070  1.2242
   8423SM   H2G11228   2.921   2.846   3.037 -0.1572  0.7508  2.3014
   8423SM   C3F11229   2.774   2.771   3.186 -0.1924 -0.2965  0.0831
   8423SM   H3F11230   2.838   2.700   3.244  1.0422  0.0527 -0.8219
   8423SM   H3G11231   2.669   2.734   3.190 -0.3870  0.2285 -0.1577
   8423SM   C4F11232   2.749   2.904   3.264 -0.4092 -0.1217  0.3309
   8423SM   H4F11233   2.656   2.955   3.230  0.1235 -1.1893 -3.0643
   8423SM   H4G11234   2.831   2.973   3.236 -1.4852  0.0257 -2.7806
   8423SM   C5F11235   2.739   2.881   3.410 -0.4486  0.0170  0.3081
   8423SM   H5F11236   2.762   2.974   3.466  0.1947 -0.0713  0.1980
   8423SM   H5G11237   2.795   2.787   3.427 -0.1015  0.6303  2.9501
   8423SM   C6F11238   2.605   2.856   3.480 -0.0318  0.2871 -0.1650
   8423SM   H6F11239   2.561   2.774   3.419  1.2537 -0.5686  0.0147
   8423SM   H6G11240   2.541   2.944   3.460  0.4951  0.5772 -0.6058
   8423SM   C7F11241   2.606   2.811   3.624 -0.4385  0.8349  0.4765
   8423SM   H7F11242   2.659   2.715   3.635  0.7666  1.3249 -0.7705
   8423SM   H7G11243   2.500   2.793   3.655  0.0318 -2.1459  0.5972
   8423SM   C8F11244   2.675   2.893   3.730 -0.0329  0.2641  0.2445
   8423SM   H8F11245   2.612   2.983   3.750 -0.4325 -0.0329  0.3344
   8423SM   H8G11246   2.777   2.926   3.700 -0.2783  1.5032  0.7235
   8423SM   C9F11247   2.700   2.814   3.860 -0.7954 -0.1053 -0.3435
   8423SM   H9F11248   2.776   2.734   3.854 -0.4107 -0.0051  1.9898
   8423SM   H9G11249   2.613   2.757   3.900  2.6621 -2.8511  4.2407
   8423SM  C10F11250   2.746   2.909   3.967 -0.7719  0.0407  0.1392
   8423SM  H10F11251   2.670   2.989   3.984 -0.6272 -0.0354  1.2382
   8423SM  H10G11252   2.837   2.960   3.930 -0.0243 -1.6604 -0.4278
   8423SM  C11F11253   2.763   2.839   4.103 -0.3632 -0.3591 -0.2160
   8423SM  H11F11254   2.802   2.736   4.090 -0.3246 -0.9734  3.6280
   8423SM  H11G11255   2.659   2.827   4.141 -0.8428  4.8198  0.8658
   8423SM  C12F11256   2.838   2.918   4.201 -0.0325 -0.2494  0.0706
   8423SM  H12F11257   2.780   3.011   4.222  1.0353  0.1726  1.2904
   8423SM  H12G11258   2.936   2.946   4.158 -0.0690 -1.0581 -0.5590
   8423SM  C13F11259   2.860   2.828   4.333  0.1619  0.3881  0.7712
   8423SM  H13F11260   2.913   2.736   4.301 -2.2009 -0.9651  0.5610
   8423SM  H13G11261   2.766   2.796   4.382  0.8400 -0.7487  1.3499
   8423SM  C14F11262   2.945   2.896   4.441 -0.2624  0.3261  0.1592
   8423SM  H14F11263   3.036   2.935   4.389 -1.5010  0.5167 -1.9908
   8423SM  H14G11264   2.983   2.834   4.525 -0.7443  1.0669  0.9458
   8423SM  C15F11265   2.869   3.017   4.503  0.4652 -0.4538 -0.1101
   8423SM  H15F11266   2.770   2.984   4.542 -0.0867  0.1116 -1.0033
   8423SM  H15G11267   2.868   3.090   4.420  1.9633 -2.6274 -2.1442
   8423SM  C16F11268   2.950   3.083   4.617  0.4524  0.1897  0.1013
   8423SM  H16F11269   2.950   3.010   4.701 -2.7602  0.1442  0.1944
   8423SM  H16G11270   2.886   3.170   4.644 -1.4879 -0.8094 -1.0976
   8423SM  C17F11271   3.093   3.130   4.592 -0.1544 -0.4253 -0.6891
   8423SM  H17F11272   3.165   3.059   4.547  0.6251  1.1069 -1.9682
   8423SM  H17G11273   3.130   3.154   4.695  1.6919 -2.1463 -0.8921
   8423SM  C18F11274   3.091   3.252   4.500  0.5282 -0.3240 -0.5309
   8423SM  H18F11275   3.016   3.331   4.525 -0.4680 -0.8101 -1.8514
   8423SM  H18G11276   3.062   3.221   4.397  2.5489  0.3348 -1.3455
   8423SM  C19F11277   3.231   3.319   4.491  0.4109  0.7122  0.2273
   8423SM  H19F11278   3.221   3.403   4.419 -1.4020  0.6664  0.3872
   8423SM  H19G11279   3.289   3.238   4.443 -0.2638  0.9099 -0.9652
   8423SM  C20F11280   3.294   3.372   4.620  0.1764  0.1869 -0.4035
   8423SM  H20F11281   3.331   3.290   4.685  0.1144 -1.0762 -1.9056
   8423SM  H20G11282   3.219   3.433   4.675  0.6176  0.9585 -0.6304
   8423SM  C21F11283   3.415   3.470   4.606 -0.3785 -0.5682 -0.0590
   8423SM  H21F11284   3.378   3.559   4.550 -0.1457 -1.1753 -1.2196
   8423SM  H21G11285   3.495   3.425   4.543 -0.1632  0.8572 -0.8591
   8423SM  C22F11286   3.475   3.502   4.743  0.1617  0.8618 -0.2598
   8423SM  H22F11287   3.519   3.409   4.784  0.3695  0.3866 -1.5092
   8423SM  H22G11288   3.401   3.542   4.816  0.5484  1.8779 -0.4021
   8423SM  C23F11289   3.590   3.606   4.753  0.4050 -0.0443  0.5827
   8423SM  H23F11290   3.683   3.563   4.710 -2.1983 -2.7757 -3.0066
   8423SM  H23G11291   3.598   3.663   4.848 -0.4745  2.5777 -0.8232
   8423SM  H23H11292   3.566   3.679   4.673  1.1078  2.0888  2.2272
   8523SM     N11293   4.976   5.071   1.639 -0.0279 -0.6949 -0.0986
   8523SM   C1511294   5.097   4.982   1.626 -0.4414 -0.0776 -0.5049
   8523SM  H15A11295   5.066   4.888   1.584  0.2424 -0.1329 -0.8940
   8523SM  H15B11296   5.136   4.966   1.725 -1.4144  2.9980  0.5158
   8523SM  H15C11297   5.173   5.024   1.562 -0.3477 -1.2896 -1.2069
   8523SM   C1411298   4.947   5.155   1.514 -0.5135  0.5691 -0.2984
   8523SM  H14A11299   5.028   5.223   1.492  0.5813  0.0246  1.7480
   8523SM  H14B11300   4.860   5.218   1.530  0.0270  1.3298 -0.2771
   8523SM  H14C11301   4.922   5.092   1.431 -0.6949  0.6466 -0.3025
   8523SM   C1311302   4.859   4.992   1.666 -0.7638 -0.1353  0.8647
   8523SM  H13A11303   4.870   4.959   1.768  0.5092 -0.3671  0.6677
   8523SM  H13B11304   4.840   4.916   1.591 -1.1169  0.0146  0.7986
   8523SM  H13C11305   4.767   5.050   1.668 -0.4405  0.3618  1.8485
   8523SM   C1211306   5.003   5.160   1.763  0.1301 -0.1136 -0.3322
   8523SM  H12A11307   4.926   5.235   1.777  0.0566 -0.1867 -0.3447
   8523SM  H12B11308   5.089   5.224   1.746  0.7326 -0.3725  1.5986
   8523SM   C1111309   5.027   5.098   1.898  0.4729 -0.4631  0.2642
   8523SM  H11A11310   5.036   5.175   1.977 -2.5773  1.1129 -0.7668
   8523SM  H11B11311   5.131   5.062   1.888  0.4292 -0.4228 -0.3972
   8523SM     P11312   4.849   4.987   2.048 -0.1879 -0.0837 -0.8906
   8523SM   O1311313   4.751   5.102   2.027  0.0980  0.4994 -0.1460
   8523SM   O1411314   4.801   4.852   2.066  0.6856 -0.1028 -0.3399
   8523SM   O1111315   4.940   5.030   2.171 -0.1822 -0.2950  0.0329
   8523SM   O1211316   4.953   4.981   1.928 -0.8598 -0.6989 -0.2452
   8523SM   C1S11317   5.057   4.945   2.201 -0.2185 -0.5671  0.0797
   8523SM   H1S11318   5.139   4.963   2.129 -0.6872  0.7197 -0.1700
   8523SM   H1T11319   5.035   4.837   2.186  0.8054 -0.6052 -1.2639
   8523SM    NF11320   5.229   4.878   2.360  0.1162 -0.2873  0.1575
   8523SM   HNF11321   5.216   4.810   2.431 -1.3870  0.2128  0.4030
   8523SM   C2S11322   5.118   4.976   2.338 -0.1123 -0.0629 -0.8818
   8523SM   H2S11323   5.170   5.074   2.347 -1.0598  0.3543  0.4693
   8523SM   C3S11324   4.996   4.970   2.447 -0.2172  0.5720 -0.3459
   8523SM   H3S11325   4.938   4.878   2.422  0.1810  0.0432  0.6355
   8523SM    O311326   4.912   5.086   2.451 -0.4204 -0.0200  0.8069
   8523SM   HO311327   4.914   5.110   2.358 -1.7450 -3.1600 -0.1710
   8523SM   C4S11328   5.054   4.963   2.586  1.1031  0.3576 -0.7275
   8523SM   H4S11329   5.142   5.028   2.600  0.1980  1.2149  1.3978
   8523SM   C5S11330   5.018   4.887   2.694 -0.4174 -0.2861 -0.0280
   8523SM   H5S11331   4.943   4.808   2.679  1.1301 -1.8633  0.2834
   8523SM   C6S11332   5.093   4.890   2.824  0.4973 -0.4749 -0.1458
   8523SM   H6S11333   5.030   4.911   2.913 -1.7177  0.5214 -1.8399
   8523SM   H6T11334   5.160   4.978   2.835 -0.0231 -0.2805  1.8101
   8523SM   C7S11335   5.178   4.760   2.834  0.3586  0.3883 -0.3513
   8523SM   H7S11336   5.244   4.744   2.746  0.2777 -0.0588 -0.3365
   8523SM   H7T11337   5.111   4.671   2.838  1.0795 -0.1173  1.5473
   8523SM   C8S11338   5.276   4.757   2.955  0.3156 -0.2117  0.0170
   8523SM   H8S11339   5.334   4.852   2.960  3.5481 -2.0885  1.2935
   8523SM   H8T11340   5.350   4.676   2.934 -0.3261 -0.6486 -0.6142
   8523SM   C9S11341   5.203   4.726   3.088  0.3672 -0.0628  0.1188
   8523SM   H9S11342   5.127   4.647   3.070 -0.7701  0.2737  2.9260
   8523SM   H9T11343   5.140   4.814   3.114 -3.1291 -1.2631 -3.2844
   8523SM  C10S11344   5.293   4.680   3.208 -0.2385 -0.8463  0.1074
   8523SM  H10S11345   5.214   4.666   3.285 -0.9384  0.6758 -0.2957
   8523SM  H10T11346   5.350   4.762   3.257 -1.7106 -0.6916  1.6535
   8523SM  C11S11347   5.376   4.555   3.178 -0.7352 -0.0321 -0.9319
   8523SM  H11S11348   5.454   4.575   3.102 -0.3653  2.3712 -0.0087
   8523SM  H11T11349   5.307   4.471   3.151  1.3594 -1.9850 -0.4763
   8523SM  C12S11350   5.451   4.507   3.308  0.1827  0.5626  0.0129
   8523SM  H12S11351   5.508   4.598   3.335  1.2440 -0.4794  1.4758
   8523SM  H12T11352   5.522   4.422   3.294 -0.4338  0.0288  0.0463
   8523SM  C13S11353   5.362   4.459   3.430  0.1185  0.3338  0.6193
   8523SM  H13S11354   5.319   4.372   3.375  1.1295  0.7655 -0.9288
   8523SM  H13T11355   5.271   4.515   3.461 -0.0818  0.4352 -0.1285
   8523SM  C14S11356   5.445   4.436   3.556  0.4038  0.2947 -0.2812
   8523SM  H14S11357   5.524   4.367   3.519 -1.1472 -0.9263 -1.4305
   8523SM  H14T11358   5.376   4.381   3.622  1.3268  0.7732  1.1212
   8523SM  C15S11359   5.488   4.571   3.620  0.2109 -0.0777 -0.0508
   8523SM  H15S11360   5.402   4.605   3.681  1.5375  3.4510  0.1203
   8523SM  H15T11361   5.515   4.650   3.546 -1.6304  1.1071  0.4670
   8523SM  C16S11362   5.597   4.559   3.733  0.3698 -0.4636 -0.1957
   8523SM  H16S11363   5.688   4.514   3.689  0.6709  1.2057 -1.3439
   8523SM  H16T11364   5.554   4.498   3.816 -0.6805  2.4709  1.5462
   8523SM  C17S11365   5.635   4.699   3.789  0.1654 -0.0565 -0.0378
   8523SM  H17S11366   5.686   4.752   3.706  0.2674 -1.2781 -0.7751
   8523SM  H17T11367   5.717   4.689   3.863  1.1711  1.4031 -0.9040
   8523SM  C18S11368   5.522   4.790   3.855 -0.6784  0.4727  0.3433
   8523SM  H18S11369   5.568   4.866   3.921 -0.7462 -0.2020  1.1953
   8523SM  H18T11370   5.445   4.724   3.902  0.7073 -1.4200  0.0735
   8523SM  H18U11371   5.474   4.844   3.771  0.9984  1.4313 -0.0425
   8523SM   C1F11372   5.344   4.880   2.291 -0.2990  0.1606 -0.0532
   8523SM    OF11373   5.357   4.965   2.205 -0.1337 -0.4198 -0.2056
   8523SM   C2F11374   5.448   4.775   2.315 -0.1064  0.0349 -0.5639
   8523SM   H2F11375   5.484   4.740   2.215 -0.6989 -0.7770 -0.5059
   8523SM   H2G11376   5.402   4.687   2.366  2.3937  1.1677  4.0893
   8523SM   C3F11377   5.562   4.829   2.403  0.2553 -0.2103  0.4471
   8523SM   H3F11378   5.625   4.906   2.353 -0.0469  0.4045  1.0056
   8523SM   H3G11379   5.630   4.743   2.425  1.8820  1.0209  0.4578
   8523SM   C4F11380   5.512   4.879   2.536  0.1852  0.3050  0.0934
   8523SM   H4F11381   5.419   4.822   2.560  0.1111  0.3488 -0.0889
   8523SM   H4G11382   5.471   4.980   2.512 -2.4784 -1.0916 -1.7613
   8523SM   C5F11383   5.612   4.893   2.653  0.9053 -0.6482  0.3585
   8523SM   H5F11384   5.570   4.970   2.721  0.3579 -1.6243  1.1499
   8523SM   H5G11385   5.709   4.925   2.610  0.4355  1.7444  0.9542
   8523SM   C6F11386   5.632   4.761   2.734 -0.4057  0.0806  0.0230
   8523SM   H6F11387   5.679   4.679   2.675 -0.3534  1.1124 -1.4119
   8523SM   H6G11388   5.528   4.736   2.766 -0.1046 -0.3005  0.7157
   8523SM   C7F11389   5.708   4.777   2.862 -0.5982  0.2943 -1.2943
   8523SM   H7F11390   5.658   4.841   2.938  1.6965 -0.7877  1.3026
   8523SM   H7G11391   5.814   4.808   2.853  0.0872 -1.5286 -0.0337
   8523SM   C8F11392   5.703   4.641   2.941  0.4267 -0.2986 -0.6724
   8523SM   H8F11393   5.749   4.561   2.879  1.4737  0.1444 -0.5027
   8523SM   H8G11394   5.595   4.625   2.958 -0.0532  0.8876 -2.3205
   8523SM   C9F11395   5.780   4.646   3.065 -0.6991 -0.3872  0.0080
   8523SM   H9F11396   5.731   4.719   3.132 -0.4869 -0.4497  0.2313
   8523SM   H9G11397   5.886   4.676   3.051 -0.6371 -0.6801 -0.1564
   8523SM  C10F11398   5.785   4.506   3.134  0.5042 -0.4038 -0.2344
   8523SM  H10F11399   5.856   4.440   3.080 -0.0974 -0.0209 -1.5133
   8523SM  H10G11400   5.689   4.451   3.138  0.0592  0.3110 -0.9283
   8523SM  C11F11401   5.842   4.514   3.274 -0.7219  0.4476 -0.5832
   8523SM  H11F11402   5.781   4.602   3.306  0.0127  1.6033 -2.2018
   8523SM  H11G11403   5.946   4.553   3.275 -0.1239 -1.1019  0.7412
   8523SM  C12F11404   5.833   4.384   3.357  0.1825  0.2145  0.1807
   8523SM  H12F11405   5.872   4.300   3.296 -1.9721 -1.6553  1.2309
   8523SM  H12G11406   5.726   4.356   3.359 -0.1091  0.8069 -2.9376
   8523SM  C13F11407   5.899   4.392   3.491  0.1492  0.0157 -0.3218
   8523SM  H13F11408   5.873   4.488   3.542 -0.3296 -0.8364  1.1092
   8523SM  H13G11409   6.007   4.405   3.473 -0.1192 -0.2050 -2.2480
   8523SM  C14F11410   5.858   4.285   3.594  0.0044 -0.1064  0.3209
   8523SM  H14F11411   5.894   4.186   3.557  1.5373  0.5409 -0.0174
   8523SM  H14G11412   5.747   4.278   3.590  0.0544 -0.7021 -0.3305
   8523SM  C15F11413   5.908   4.310   3.736  0.9903 -0.4277  0.4099
   8523SM  H15F11414   5.886   4.412   3.774  2.3912  0.2115 -0.4080
   8523SM  H15G11415   6.018   4.293   3.731  1.1097  0.6248 -1.6520
   8523SM  C16F11416   5.851   4.209   3.837 -0.2197 -0.1159  0.5083
   8523SM  H16F11417   5.892   4.109   3.813 -0.6015  0.0444 -0.8876
   8523SM  H16G11418   5.740   4.205   3.828 -0.2703  1.1139  0.3798
   8523SM  C17F11419   5.882   4.254   3.978 -0.4304  0.1223 -0.4479
   8523SM  H17F11420   5.989   4.281   3.988  0.3408 -3.0269  1.5460
   8523SM  H17G11421   5.878   4.165   4.045  0.0194  0.8548  0.5752
   8523SM  C18F11422   5.791   4.360   4.037 -0.3047 -0.9722 -0.2455
   8523SM  H18F11423   5.690   4.315   4.046 -0.4454 -0.2541  2.7582
   8523SM  H18G11424   5.783   4.452   3.975  1.7858  1.2492  2.5437
   8523SM  C19F11425   5.829   4.398   4.182 -0.0720  0.0817 -0.1867
   8523SM  H19F11426   5.934   4.435   4.176 -0.2818  1.1724  1.9374
   8523SM  H19G11427   5.826   4.316   4.257  0.6284  0.2648  0.0451
   8523SM  C20F11428   5.731   4.509   4.231 -0.0545  0.2926 -1.1517
   8523SM  H20F11429   5.630   4.466   4.247  0.3569 -0.5432 -0.7519
   8523SM  H20G11430   5.716   4.576   4.144 -0.1183  0.9706 -0.6254
   8523SM  C21F11431   5.769   4.587   4.353 -0.2607  0.3719 -0.7937
   8523SM  H21F11432   5.877   4.613   4.355 -0.2618  0.3335  1.1600
   8523SM  H21G11433   5.752   4.521   4.440 -0.9355  0.7580 -0.6285
   8523SM  C22F11434   5.686   4.710   4.365 -0.1762  0.2821  0.0795
   8523SM  H22F11435   5.690   4.755   4.466 -2.0178  0.2492  0.1930
   8523SM  H22G11436   5.582   4.673   4.359 -0.2163  0.5359 -1.2512
   8523SM  C23F11437   5.708   4.826   4.262 -1.1175 -0.8142 -0.0088
   8523SM  H23F11438   5.807   4.875   4.276 -1.4302 -0.8172  2.9339
   8523SM  H23G11439   5.633   4.907   4.268 -0.1102  0.3553 -2.1782
   8523SM  H23H11440   5.696   4.779   4.162  0.4477 -1.0146 -0.1301
   8623SM     N11441   3.120   1.672   2.596  0.1251  0.4210  0.2422
   8623SM   C1511442   3.053   1.540   2.590 -0.0689 -0.2183 -0.5213
   8623SM  H15A11443   2.967   1.537   2.524  0.0206  2.3653 -0.8554
   8623SM  H15B11444   3.008   1.522   2.686  1.0962  0.8679  0.2590
   8623SM  H15C11445   3.116   1.460   2.552 -1.1330 -0.8796 -0.9443
   8623SM   C1411446   3.237   1.661   2.691 -0.4875  0.0072  0.0302
   8623SM  H14A11447   3.320   1.601   2.657  0.3168  0.8152  0.5021
   8623SM  H14B11448   3.197   1.634   2.788  0.0058 -0.8561 -0.0027
   8623SM  H14C11449   3.288   1.753   2.716  0.2797 -1.1076  3.0861
   8623SM   C1311450   3.169   1.709   2.463 -0.0253 -0.0836  0.0588
   8623SM  H13A11451   3.078   1.711   2.404 -0.0851 -0.0559  0.1515
   8623SM  H13B11452   3.227   1.625   2.428  0.8049  0.0171  1.1492
   8623SM  H13C11453   3.231   1.796   2.449 -0.7119  0.2583 -0.9824
   8623SM   C1211454   3.024   1.779   2.651 -0.5859  0.5125 -0.0272
   8623SM  H12A11455   3.088   1.864   2.670 -1.1030  1.0205 -0.5277
   8623SM  H12B11456   2.974   1.745   2.740 -1.3686 -2.6324 -1.4993
   8623SM   C1111457   2.894   1.824   2.575  0.4842 -0.1295 -0.4860
   8623SM  H11A11458   2.920   1.869   2.477  1.8403  0.3616  0.0798
   8623SM  H11B11459   2.836   1.901   2.631 -0.6953 -1.3171 -0.0218
   8623SM     P11460   2.681   1.677   2.615  0.3444  0.1954 -0.0171
   8623SM   O1311461   2.573   1.765   2.571  0.0939 -0.2753 -0.5049
   8623SM   O1411462   2.661   1.529   2.600  0.0799  0.1653  0.1794
   8623SM   O1111463   2.717   1.700   2.763 -0.4862  0.4256 -0.0913
   8623SM   O1211464   2.819   1.715   2.549  0.9399  0.3672 -0.2916
   8623SM   C1S11465   2.616   1.689   2.867 -0.4393  0.1616  0.1254
   8623SM   H1S11466   2.570   1.588   2.862 -0.1201  0.0819 -1.8099
   8623SM   H1T11467   2.533   1.761   2.851 -1.4623 -1.1510 -0.6125
   8623SM    NF11468   2.584   1.665   3.113 -0.5823 -0.0226 -0.8382
   8623SM   HNF11469   2.538   1.736   3.165 -3.8540 -0.3746 -2.9712
   8623SM   C2S11470   2.681   1.709   3.012 -0.2126  0.0571  0.5009
   8623SM   H2S11471   2.770   1.642   3.014 -0.6812 -0.5722  0.1802
   8623SM   C3S11472   2.717   1.857   3.032 -0.4710 -0.2942 -0.2586
   8623SM   H3S11473   2.627   1.922   3.035  0.7070  1.3660  0.4406
   8623SM    O311474   2.803   1.918   2.938 -0.3407 -0.1646  0.1213
   8623SM   HO311475   2.817   1.852   2.869  1.7859  1.7660 -1.4459
   8623SM   C4S11476   2.772   1.866   3.173  0.1132 -0.4423  0.2844
   8623SM   H4S11477   2.693   1.892   3.245  0.7258  0.2631  0.7127
   8623SM   C5S11478   2.896   1.850   3.226  0.1684  0.2845 -0.3444
   8623SM   H5S11479   2.978   1.832   3.155  1.2458  0.1953  0.8838
   8623SM   C6S11480   2.935   1.870   3.367  0.1779  0.4319  0.3909
   8623SM   H6S11481   2.865   1.937   3.421  0.1194  0.1664  0.6475
   8623SM   H6T11482   3.037   1.915   3.375  0.9890 -1.3284  0.5365
   8623SM   C7S11483   2.932   1.746   3.460  0.5112  0.0226 -0.1667
   8623SM   H7S11484   3.018   1.677   3.445  0.8205 -0.1368  1.9996
   8623SM   H7T11485   2.840   1.685   3.446  1.5214 -1.0978 -2.6093
   8623SM   C8S11486   2.955   1.800   3.603  0.0801 -0.0909  0.3471
   8623SM   H8S11487   2.875   1.871   3.634  2.1073  1.5623  2.1611
   8623SM   H8T11488   3.045   1.864   3.621 -2.2790  3.8231 -0.5764
   8623SM   C9S11489   2.946   1.681   3.706  0.0730 -0.2962 -0.2844
   8623SM   H9S11490   3.022   1.603   3.679 -1.2481 -2.0531  0.8515
   8623SM   H9T11491   2.846   1.634   3.717  0.6579 -1.2370  1.2612
   8623SM  C10S11492   2.983   1.724   3.853  0.5329 -0.0415  0.1656
   8623SM  H10S11493   2.904   1.795   3.887 -1.1118 -2.0854  0.8247
   8623SM  H10T11494   3.078   1.781   3.856 -0.2919  1.4482 -0.6888
   8623SM  C11S11495   2.982   1.607   3.949 -0.0834 -0.0811 -0.4955
   8623SM  H11S11496   3.047   1.530   3.901 -0.1321 -0.9765  0.8159
   8623SM  H11T11497   2.878   1.570   3.953 -0.1021  0.0856  1.4713
   8623SM  C12S11498   3.023   1.650   4.092 -0.6914  0.4443 -0.3907
   8623SM  H12S11499   2.956   1.732   4.129 -1.9230 -0.4452 -0.5969
   8623SM  H12T11500   3.122   1.698   4.074 -0.5077 -0.5948 -2.4056
   8623SM  C13S11501   3.039   1.541   4.191 -0.3839 -0.1195  0.1445
   8623SM  H13S11502   3.125   1.562   4.258  2.7366  0.4505 -3.6945
   8623SM  H13T11503   3.093   1.464   4.131  1.4411  2.1035 -1.2226
   8623SM  C14S11504   2.915   1.479   4.254 -0.1426  0.1971 -0.1648
   8623SM  H14S11505   2.865   1.413   4.179  0.9558 -0.3640 -0.4261
   8623SM  H14T11506   2.845   1.559   4.286  0.7559  0.9331 -0.0100
   8623SM  C15S11507   2.959   1.403   4.380  0.4282  0.9793  0.7329
   8623SM  H15S11508   3.040   1.329   4.361  0.2179  0.9890 -0.2436
   8623SM  H15T11509   2.875   1.342   4.419 -0.3406  0.6663 -1.3367
   8623SM  C16S11510   3.003   1.491   4.501 -0.4467 -0.3803  0.2150
   8623SM  H16S11511   2.921   1.566   4.511  0.4391  0.7228 -0.6258
   8623SM  H16T11512   3.099   1.542   4.483 -0.1731 -0.3861  1.5269
   8623SM  C17S11513   3.022   1.403   4.630 -0.6473 -0.0790  0.1194
   8623SM  H17S11514   3.111   1.338   4.615  0.2358  1.1660 -0.2310
   8623SM  H17T11515   2.930   1.342   4.642  0.4165 -1.5643  1.1214
   8623SM  C18S11516   3.045   1.500   4.752  0.8981  0.5024  0.1669
   8623SM  H18S11517   3.043   1.434   4.841 -2.0039  1.4459  0.9039
   8623SM  H18T11518   2.969   1.579   4.767 -0.4986 -0.8261  0.2170
   8623SM  H18U11519   3.136   1.565   4.748 -0.2896  2.1973 -1.1523
   8623SM   C1F11520   2.548   1.536   3.128 -0.3509 -0.4038 -0.0290
   8623SM    OF11521   2.599   1.451   3.058  0.0006  0.2820 -0.1333
   8623SM   C2F11522   2.450   1.508   3.231 -0.3406 -0.8059 -0.3614
   8623SM   H2F11523   2.408   1.408   3.204  0.7498 -1.0821 -1.1340
   8623SM   H2G11524   2.370   1.585   3.230 -2.5515 -2.8710 -3.2991
   8623SM   C3F11525   2.525   1.501   3.364  0.1325  0.9323  0.0934
   8623SM   H3F11526   2.578   1.594   3.395  2.0963 -0.5978  1.5850
   8623SM   H3G11527   2.603   1.422   3.368  0.1467  0.6957 -2.7752
   8623SM   C4F11528   2.429   1.451   3.470 -0.7450 -0.5099 -0.3645
   8623SM   H4F11529   2.373   1.362   3.434 -2.2745  0.6486 -0.9701
   8623SM   H4G11530   2.354   1.526   3.504  1.6032  1.7792  0.0316
   8623SM   C5F11531   2.503   1.411   3.591  0.1193  0.5958 -0.1337
   8623SM   H5F11532   2.565   1.490   3.639  0.7664  0.1628 -0.2311
   8623SM   H5G11533   2.578   1.333   3.565 -0.1000  0.7737 -1.3604
   8623SM   C6F11534   2.409   1.336   3.690  1.0091  0.1394 -0.2029
   8623SM   H6F11535   2.366   1.244   3.645  1.0682 -0.3448  0.7066
   8623SM   H6G11536   2.326   1.408   3.708  1.8902  1.0326  0.4013
   8623SM   C7F11537   2.459   1.308   3.828  0.8963  0.2636 -0.2622
   8623SM   H7F11538   2.373   1.287   3.895  1.3746 -1.6999 -0.2172
   8623SM   H7G11539   2.506   1.405   3.853 -1.0753  0.6070  2.4548
   8623SM   C8F11540   2.561   1.191   3.826  0.0914 -0.3468 -0.4201
   8623SM   H8F11541   2.617   1.198   3.731 -0.4657 -1.1779 -0.8281
   8623SM   H8G11542   2.507   1.093   3.821 -0.9472  0.2909 -2.4418
   8623SM   C9F11543   2.673   1.207   3.934  0.2164 -0.0120  0.1190
   8623SM   H9F11544   2.625   1.206   4.034  0.6726  1.1070  0.3705
   8623SM   H9G11545   2.725   1.302   3.907  0.4624 -0.3145 -0.4902
   8623SM  C10F11546   2.769   1.092   3.933  0.2692  0.3377 -0.1972
   8623SM  H10F11547   2.801   1.074   3.828 -0.3435 -0.2759 -0.2881
   8623SM  H10G11548   2.720   1.000   3.972  2.2064 -0.5004  0.3683
   8623SM  C11F11549   2.895   1.112   4.016 -0.6711 -0.4075 -0.5707
   8623SM  H11F11550   2.853   1.135   4.116  0.5357  0.1319 -0.1663
   8623SM  H11G11551   2.941   1.209   3.984 -1.7705 -0.3920 -2.2577
   8623SM  C12F11552   2.990   1.002   4.011  0.0653  0.5327  0.1316
   8623SM  H12F11553   3.065   1.008   3.929 -0.1054  1.1556  0.0125
   8623SM  H12G11554   2.941   0.903   3.999  1.7481 -0.1565 -1.6570
   8623SM  C13F11555   3.083   0.995   4.139  0.4467 -0.4980  0.4830
   8623SM  H13F11556   3.034   0.994   4.238  0.4055 -1.1091  0.4658
   8623SM  H13G11557   3.145   1.087   4.138  1.9908 -1.4818  0.0541
   8623SM  C14F11558   3.177   0.869   4.131  0.4967 -0.0257  0.1964
   8623SM  H14F11559   3.254   0.882   4.052 -1.2514  0.2492 -1.5618
   8623SM  H14G11560   3.109   0.789   4.096 -0.5344  0.4200  1.1097
   8623SM  C15F11561   3.236   0.816   4.261  0.7711  0.2883 -0.2545
   8623SM  H15F11562   3.217   0.887   4.344  1.7614 -0.2140  0.4297
   8623SM  H15G11563   3.346   0.797   4.253  0.6215 -1.4462  1.2159
   8623SM  C16F11564   3.174   0.680   4.308  0.0283 -0.2334  0.3079
   8623SM  H16F11565   3.198   0.607   4.227  0.5134  1.9150 -1.6179
   8623SM  H16G11566   3.064   0.686   4.308 -0.0705 -0.2271 -2.8833
   8623SM  C17F11567   3.224   0.638   4.442 -0.2315  0.1259 -0.4671
   8623SM  H17F11568   3.237   0.725   4.511 -0.2219  0.7302 -1.2135
   8623SM  H17G11569   3.328   0.602   4.434 -0.3259 -0.1659 -0.4089
   8623SM  C18F11570   3.131   0.534   4.503  0.1795  0.3540  0.0550
   8623SM  H18F11571   3.139   0.449   4.432  1.0311  0.2195  0.3066
   8623SM  H18G11572   3.026   0.572   4.502  0.0392  0.0119  0.6932
   8623SM  C19F11573   3.161   0.488   4.645  0.1811 -0.4410 -0.6490
   8623SM  H19F11574   3.130   0.574   4.708  3.1984 -0.3599  0.8565
   8623SM  H19G11575   3.268   0.477   4.671 -0.4235  0.0331  2.3243
   8623SM  C20F11576   3.095   0.349   4.683 -0.9727  0.0916 -0.6058
   8623SM  H20F11577   3.158   0.271   4.635 -1.2783 -1.7001  1.7070
   8623SM  H20G11578   2.994   0.349   4.638 -1.0467 -1.6755 -0.4957
   8623SM  C21F11579   3.103   0.324   4.832 -0.3961  0.6979 -0.4421
   8623SM  H21F11580   3.044   0.398   4.890 -0.2797 -0.2492  0.9442
   8623SM  H21G11581   3.206   0.346   4.869 -0.3964 -0.0486  0.0278
   8623SM  C22F11582   3.039   0.185   4.864 -0.1766 -0.1956 -0.4249
   8623SM  H22F11583   3.077   0.116   4.786 -2.8368 -0.5347 -1.5101
   8623SM  H22G11584   2.931   0.195   4.842 -0.1208  0.8717 -0.2862
   8623SM  C23F11585   3.057   0.128   5.007 -0.4900 -0.5353  0.2032
   8623SM  H23F11586   3.014   0.026   5.009 -0.5305 -0.6883 -3.1209
   8623SM  H23G11587   3.007   0.199   5.076  0.6173 -0.3717  0.8690
   8623SM  H23H11588   3.163   0.121   5.040 -0.0288  0.2237 -1.0201
   8723SM     N11589   3.804   1.800   2.313 -0.1322 -0.8353  0.3117
   8723SM   C1511590   3.914   1.701   2.305  0.2107 -0.5300  0.6375
   8723SM  H15A11591   4.006   1.748   2.272 -0.3789 -0.6739 -1.3771
   8723SM  H15B11592   3.884   1.623   2.237 -1.8408 -0.5765  1.5284
   8723SM  H15C11593   3.932   1.651   2.399 -0.6501 -1.9048  0.0966
   8723SM   C1411594   3.817   1.890   2.428  0.0147  0.3831 -0.1235
   8723SM  H14A11595   3.915   1.933   2.443  0.4945 -0.6885 -0.0940
   8723SM  H14B11596   3.790   1.840   2.520  1.1489  0.6014  0.3400
   8723SM  H14C11597   3.743   1.968   2.422  0.5086  0.8364 -0.3569
   8723SM   C1311598   3.818   1.891   2.197 -0.0835  0.7387  0.5473
   8723SM  H13A11599   3.731   1.955   2.198 -1.3730 -0.7394 -2.8485
   8723SM  H13B11600   3.811   1.833   2.107  1.3409  0.8704  0.3313
   8723SM  H13C11601   3.906   1.953   2.197  0.4338  0.0047  0.4498
   8723SM   C1211602   3.667   1.734   2.317  0.5807 -0.2069 -0.3119
   8723SM  H12A11603   3.651   1.688   2.414 -0.4782  1.4602  0.3532
   8723SM  H12B11604   3.677   1.651   2.250  2.0279 -1.3395  1.2167
   8723SM   C1111605   3.534   1.815   2.300 -0.4122  0.0840 -0.0706
   8723SM  H11A11606   3.456   1.739   2.323  0.7053 -1.0001  0.2491
   8723SM  H11B11607   3.519   1.843   2.193  1.3394  2.1961  0.1691
   8723SM     P11608   3.507   2.076   2.312 -0.0664 -0.0982 -0.3371
   8723SM   O1311609   3.634   2.135   2.267 -0.0721  0.5375  0.1846
   8723SM   O1411610   3.400   2.066   2.206 -0.0709  0.1822  0.0435
   8723SM   O1111611   3.450   2.168   2.427 -0.0401  0.2873  0.6286
   8723SM   O1211612   3.530   1.930   2.381  0.3079  0.3183  0.1101
   8723SM   C1S11613   3.385   2.117   2.551  0.1006  0.0848 -0.2226
   8723SM   H1S11614   3.363   2.008   2.542 -0.0550 -0.1805  2.4172
   8723SM   H1T11615   3.288   2.165   2.575  0.7675  1.2155  0.2751
   8723SM    NF11616   3.398   2.104   2.797 -0.0938 -0.8589 -0.3611
   8723SM   HNF11617   3.360   2.182   2.846  1.2559  0.8117 -1.8061
   8723SM   C2S11618   3.474   2.127   2.679 -0.6346 -0.7361  0.3134
   8723SM   H2S11619   3.560   2.056   2.682  0.0011  0.0037  3.4809
   8723SM   C3S11620   3.549   2.269   2.685  0.8368 -0.4517  0.0705
   8723SM   H3S11621   3.469   2.346   2.694 -0.3718 -1.7444  0.8018
   8723SM    O311622   3.631   2.302   2.574 -0.1148 -0.3816 -0.6550
   8723SM   HO311623   3.600   2.240   2.507  1.6127 -0.6233 -1.3010
   8723SM   C4S11624   3.634   2.281   2.809  1.0406 -0.0747 -0.1385
   8723SM   H4S11625   3.713   2.205   2.810  0.1805 -0.9922  1.2360
   8723SM   C5S11626   3.634   2.377   2.906  0.0669 -0.1435  0.5259
   8723SM   H5S11627   3.565   2.462   2.900  0.9400  0.5278 -0.3027
   8723SM   C6S11628   3.723   2.379   3.029 -0.1020  0.1933 -0.7622
   8723SM   H6S11629   3.774   2.478   3.036 -0.1866  0.3441 -2.0487
   8723SM   H6T11630   3.794   2.294   3.025 -1.5842 -1.0880 -1.0182
   8723SM   C7S11631   3.650   2.356   3.163  0.2763 -0.5290  0.3287
   8723SM   H7S11632   3.617   2.250   3.166  0.1804 -0.5858 -1.5997
   8723SM   H7T11633   3.558   2.418   3.162 -0.4698 -1.6083  0.6109
   8723SM   C8S11634   3.734   2.372   3.286  0.2390  0.1804  0.0005
   8723SM   H8S11635   3.823   2.437   3.272  0.1101  0.5331  0.7828
   8723SM   H8T11636   3.774   2.269   3.301  0.9304  0.7865  2.6993
   8723SM   C9S11637   3.647   2.419   3.412 -0.6407  0.2908 -0.0672
   8723SM   H9S11638   3.561   2.349   3.420  0.4027 -1.4681 -2.6665
   8723SM   H9T11639   3.597   2.516   3.392  2.7439  2.0208 -0.8146
   8723SM  C10S11640   3.720   2.428   3.551  0.4850  0.3207  0.1873
   8723SM  H10S11641   3.804   2.500   3.555 -0.1696  1.0803  0.4856
   8723SM  H10T11642   3.764   2.329   3.577  0.6050  0.9898  2.7984
   8723SM  C11S11643   3.621   2.475   3.663  0.3912 -0.7327  0.5135
   8723SM  H11S11644   3.540   2.402   3.681  1.1230 -2.3598 -2.2641
   8723SM  H11T11645   3.569   2.558   3.612 -0.9962 -2.7580 -1.5307
   8723SM  C12S11646   3.691   2.496   3.797 -1.2367  0.3841  0.0611
   8723SM  H12S11647   3.759   2.582   3.785 -1.5202  0.5271 -0.5463
   8723SM  H12T11648   3.753   2.405   3.810 -0.7132  0.7981  0.4992
   8723SM  C13S11649   3.601   2.512   3.929  0.3310 -0.6987 -0.3527
   8723SM  H13S11650   3.546   2.418   3.947 -0.5349  0.0176  0.9091
   8723SM  H13T11651   3.519   2.586   3.914 -2.2465 -3.4095 -0.5701
   8723SM  C14S11652   3.683   2.531   4.052 -0.4138  0.2050  0.0453
   8723SM  H14S11653   3.731   2.631   4.049  0.1351  0.0111  1.7197
   8723SM  H14T11654   3.763   2.454   4.044 -1.9855 -1.6094  1.0392
   8723SM  C15S11655   3.604   2.519   4.179  0.4222 -0.1915 -0.1446
   8723SM  H15S11656   3.565   2.416   4.185 -0.1632  0.0362  0.0061
   8723SM  H15T11657   3.516   2.587   4.182 -0.0206 -0.6946 -1.4332
   8723SM  C16S11658   3.691   2.546   4.308  0.0065  0.3761  0.0316
   8723SM  H16S11659   3.777   2.477   4.320  0.3077  0.7056 -0.2255
   8723SM  H16T11660   3.623   2.529   4.395 -0.9840  3.8460  0.0887
   8723SM  C17S11661   3.736   2.692   4.322  0.2212  0.5020 -0.4182
   8723SM  H17S11662   3.649   2.761   4.311 -0.7394 -0.1226  2.4400
   8723SM  H17T11663   3.809   2.710   4.241 -1.6237 -0.8579 -2.5208
   8723SM  C18S11664   3.794   2.725   4.463 -0.0109  0.3908 -0.5522
   8723SM  H18S11665   3.822   2.833   4.461 -0.1941  0.4282 -1.6747
   8723SM  H18T11666   3.877   2.655   4.485  0.0126  0.2615 -1.0390
   8723SM  H18U11667   3.711   2.716   4.536 -1.0515  1.4377 -1.5669
   8723SM   C1F11668   3.360   1.987   2.827  0.1774  0.0239  0.5417
   8723SM    OF11669   3.383   1.893   2.749 -0.3681 -0.0543 -0.3599
   8723SM   C2F11670   3.281   1.971   2.952 -0.5159 -0.8229 -0.3422
   8723SM   H2F11671   3.256   1.864   2.966  0.9683 -1.1694 -0.2220
   8723SM   H2G11672   3.187   2.028   2.933 -1.9151 -2.7653  0.3517
   8723SM   C3F11673   3.363   2.042   3.072 -0.1281  0.1371 -0.2144
   8723SM   H3F11674   3.398   2.146   3.058 -0.3636  0.0416 -1.6841
   8723SM   H3G11675   3.451   1.980   3.101 -1.2046 -1.0600  0.5995
   8723SM   C4F11676   3.273   2.052   3.196 -0.2029 -0.0443  0.3692
   8723SM   H4F11677   3.231   1.955   3.231 -0.8423 -0.5990 -1.8056
   8723SM   H4G11678   3.190   2.122   3.173 -0.1001 -0.0272  0.0447
   8723SM   C5F11679   3.340   2.121   3.315 -0.1280  0.0693  0.4118
   8723SM   H5F11680   3.352   2.230   3.301  0.1897  0.0235  0.3092
   8723SM   H5G11681   3.445   2.084   3.323 -0.1397 -0.7558 -2.2182
   8723SM   C6F11682   3.254   2.094   3.441 -0.4060  0.6297 -0.3356
   8723SM   H6F11683   3.232   1.988   3.462 -0.8695  0.2345 -2.4932
   8723SM   H6G11684   3.159   2.152   3.433 -0.8233 -0.0080 -0.0566
   8723SM   C7F11685   3.321   2.156   3.575 -0.6248 -0.1464  0.0010
   8723SM   H7F11686   3.273   2.252   3.602 -0.6916 -0.6354  1.7554
   8723SM   H7G11687   3.428   2.173   3.551 -0.5268 -2.6437 -1.7576
   8723SM   C8F11688   3.332   2.078   3.706  0.3271 -0.2313  0.0003
   8723SM   H8F11689   3.391   1.985   3.691  0.3989 -0.2503  0.3812
   8723SM   H8G11690   3.225   2.056   3.731 -0.1441  2.1173  0.2499
   8723SM   C9F11691   3.402   2.160   3.813 -0.2429 -0.2056 -0.6729
   8723SM   H9F11692   3.389   2.270   3.824 -1.2544 -0.5117  1.6607
   8723SM   H9G11693   3.508   2.138   3.790 -0.6103 -2.5143 -0.3881
   8723SM  C10F11694   3.350   2.098   3.947  0.9456 -0.0711  0.0111
   8723SM  H10F11695   3.388   1.994   3.941  5.5645  1.3730  0.1346
   8723SM  H10G11696   3.239   2.099   3.949  0.8988 -1.9992  0.2350
   8723SM  C11F11697   3.406   2.155   4.085  0.1019  1.1372  0.5098
   8723SM  H11F11698   3.373   2.260   4.098 -1.4732  0.4027  3.3997
   8723SM  H11G11699   3.517   2.160   4.079  0.0053  2.6128 -0.7582
   8723SM  C12F11700   3.351   2.073   4.204 -0.5371 -0.2157  0.1005
   8723SM  H12F11701   3.248   2.047   4.169 -0.3591  2.1499 -2.5733
   8723SM  H12G11702   3.333   2.150   4.282  0.4006  0.6148 -0.4797
   8723SM  C13F11703   3.436   1.945   4.242 -0.0163 -0.0534  0.5812
   8723SM  H13F11704   3.532   1.970   4.291 -0.2374  1.0848  0.4422
   8723SM  H13G11705   3.445   1.892   4.145  0.8999  0.5671  0.3232
   8723SM  C14F11706   3.362   1.863   4.350  0.0631 -0.2093 -0.0703
   8723SM  H14F11707   3.391   1.760   4.322 -0.8193 -0.3684 -0.4318
   8723SM  H14G11708   3.254   1.866   4.324 -0.4245  0.3887  1.9055
   8723SM  C15F11709   3.388   1.901   4.498  0.0879 -0.3253 -0.3280
   8723SM  H15F11710   3.332   1.994   4.521 -0.5530 -0.3709 -1.6485
   8723SM  H15G11711   3.499   1.905   4.507  0.1544  2.7540 -1.4748
   8723SM  C16F11712   3.341   1.783   4.589 -0.2659 -0.8467 -0.0010
   8723SM  H16F11713   3.411   1.696   4.586  0.7800 -0.0523  0.7669
   8723SM  H16G11714   3.244   1.741   4.555 -0.4116 -0.0210 -0.6359
   8723SM  C17F11715   3.336   1.832   4.732  0.2565 -0.7684 -0.1333
   8723SM  H17F11716   3.411   1.911   4.756 -2.0581  1.1992  1.1380
   8723SM  H17G11717   3.354   1.747   4.800  2.9514  1.1962  1.8187
   8723SM  C18F11718   3.208   1.910   4.775  0.6447  0.6961 -0.2979
   8723SM  H18F11719   3.120   1.845   4.758  1.0613 -0.4119  1.5286
   8723SM  H18G11720   3.187   1.996   4.708  0.5093 -0.0169 -1.1874
   8723SM  C19F11721   3.215   1.965   4.916  0.0152  0.2234 -0.3445
   8723SM  H19F11722   3.294   2.041   4.933 -0.1258  0.1690  0.6142
   8723SM  H19G11723   3.244   1.883   4.985 -1.4061 -1.4302 -1.6115
   8723SM  C20F11724   3.090   2.041   4.968  0.8051  0.1533 -0.1959
   8723SM  H20F11725   3.025   2.067   4.882 -2.2383 -1.1837  1.5221
   8723SM  H20G11726   3.131   2.135   5.009  1.3056  1.5769 -3.6556
   8723SM  C21F11727   3.000   1.961   5.061 -1.0187 -0.1743  0.9473
   8723SM  H21F11728   3.072   1.924   5.137  1.1922 -0.8443 -1.3362
   8723SM  H21G11729   2.960   1.875   5.003 -1.2939  1.7650 -1.9474
   8723SM  C22F11730   2.889   2.038   5.125 -0.4178 -0.1185 -0.6269
   8723SM  H22F11731   2.829   1.966   5.184 -1.1392 -0.6607 -1.9687
   8723SM  H22G11732   2.824   2.075   5.042 -0.0515  3.2575  0.4424
   8723SM  C23F11733   2.945   2.145   5.212 -0.4191  0.7375 -0.0266
   8723SM  H23F11734   3.022   2.110   5.285 -1.9666 -1.5503  0.6154
   8723SM  H23G11735   2.868   2.199   5.271  0.4951  2.9832 -0.7860
   8723SM  H23H11736   3.003   2.212   5.145  1.7184 -0.4770  0.4803
   8823SM     N11737   1.554   2.558   2.740 -1.2575  0.4867 -0.2130
   8823SM   C1511738   1.463   2.651   2.663 -0.2624  0.3716  0.1312
   8823SM  H15A11739   1.434   2.606   2.569 -1.7344 -0.3271  0.8800
   8823SM  H15B11740   1.521   2.739   2.641  2.2547 -0.1615  3.7904
   8823SM  H15C11741   1.372   2.685   2.709 -1.1345  0.8600 -1.8384
   8823SM   C1411742   1.665   2.503   2.656  0.1778 -0.4026  0.0359
   8823SM  H14A11743   1.718   2.417   2.693 -0.4922 -1.2410 -0.9057
   8823SM  H14B11744   1.730   2.582   2.620 -0.5748  0.1146 -0.2174
   8823SM  H14C11745   1.625   2.459   2.566 -1.7474 -2.2090  1.6817
   8823SM   C1311746   1.619   2.633   2.853  0.5723 -0.3094  0.3527
   8823SM  H13A11747   1.550   2.693   2.911  0.8344 -0.9877  1.4027
   8823SM  H13B11748   1.699   2.697   2.820 -0.0171  0.4883  0.4558
   8823SM  H13C11749   1.665   2.564   2.922  0.0602 -2.3223 -1.2032
   8823SM   C1211750   1.463   2.449   2.796  0.4484  0.4409 -0.3782
   8823SM  H12A11751   1.383   2.481   2.862  0.2891 -0.9804  0.1406
   8823SM  H12B11752   1.521   2.385   2.861 -0.5914 -0.7830 -0.6263
   8823SM   C1111753   1.394   2.364   2.684 -0.5240  0.3717  0.2455
   8823SM  H11A11754   1.362   2.266   2.726  0.5148 -0.0593  0.0704
   8823SM  H11B11755   1.473   2.340   2.609 -1.3471  0.8822 -0.8187
   8823SM     P11756   1.133   2.441   2.677 -0.3475  0.4011  0.2283
   8823SM   O1311757   1.062   2.548   2.605  0.0146 -0.4127 -0.5424
   8823SM   O1411758   1.065   2.310   2.683  0.0370  0.1878 -0.1742
   8823SM   O1111759   1.166   2.497   2.824  0.3627 -0.3138 -0.1049
   8823SM   O1211760   1.279   2.423   2.620  0.5172 -0.1440  1.0572
   8823SM   C1S11761   1.064   2.528   2.916 -0.1902 -0.0011 -0.3085
   8823SM   H1S11762   0.992   2.443   2.914  0.3457 -0.5638  1.7411
   8823SM   H1T11763   0.999   2.616   2.897 -2.6881 -1.7347 -0.2992
   8823SM    NF11764   1.014   2.535   3.156 -0.4868  0.0074 -0.0732
   8823SM   HNF11765   0.969   2.619   3.187  0.4147 -0.4687  2.9315
   8823SM   C2S11766   1.124   2.528   3.059 -0.0817 -0.4728 -0.0629
   8823SM   H2S11767   1.185   2.437   3.074  0.1183 -0.6473 -1.6968
   8823SM   C3S11768   1.224   2.652   3.067  0.0569  0.4065 -0.0193
   8823SM   H3S11769   1.162   2.743   3.055  0.4419  0.4135 -2.3946
   8823SM    O311770   1.325   2.644   2.965  0.4508  0.0980 -0.5306
   8823SM   HO311771   1.278   2.605   2.891 -3.3252 -0.4761  1.8686
   8823SM   C4S11772   1.301   2.654   3.197 -1.2449  0.2629 -0.0259
   8823SM   H4S11773   1.383   2.581   3.208 -2.0237 -0.7451 -0.6888
   8823SM   C5S11774   1.288   2.744   3.295  0.4356 -0.4702 -0.4180
   8823SM   H5S11775   1.241   2.842   3.276  1.2037  0.0493  0.2595
   8823SM   C6S11776   1.366   2.743   3.425 -0.5488 -0.8327  0.5051
   8823SM   H6S11777   1.404   2.843   3.455 -0.5048  0.0497 -2.2314
   8823SM   H6T11778   1.456   2.680   3.409  0.0583 -0.1138  1.0119
   8823SM   C7S11779   1.296   2.680   3.537 -0.4254  0.1468 -0.2455
   8823SM   H7S11780   1.247   2.582   3.518  1.2444 -0.6490 -0.6281
   8823SM   H7T11781   1.208   2.740   3.570  1.3917  1.8470  1.8702
   8823SM   C8S11782   1.383   2.682   3.665 -0.9618  0.2739  0.2909
   8823SM   H8S11783   1.398   2.791   3.679 -1.7985  0.4183  0.1369
   8823SM   H8T11784   1.478   2.628   3.648 -0.6479 -0.2568  3.2653
   8823SM   C9S11785   1.305   2.627   3.785 -0.0583 -0.4815 -0.5139
   8823SM   H9S11786   1.307   2.516   3.782  1.7534 -0.5350  0.7444
   8823SM   H9T11787   1.203   2.667   3.802  0.8321  1.3692  0.7329
   8823SM  C10S11788   1.375   2.673   3.914 -0.2082  0.0229 -0.6992
   8823SM  H10S11789   1.382   2.783   3.931 -0.3616 -0.3398  2.0963
   8823SM  H10T11790   1.482   2.647   3.909 -0.3454 -0.6814 -0.2021
   8823SM  C11S11791   1.307   2.623   4.039  0.1186  0.0850 -0.5830
   8823SM  H11S11792   1.313   2.513   4.047 -1.3517  0.0778  1.0817
   8823SM  H11T11793   1.200   2.654   4.039 -0.0524 -0.5047 -0.8639
   8823SM  C12S11794   1.370   2.684   4.162  0.0158 -0.5539 -0.3042
   8823SM  H12S11795   1.359   2.794   4.147  1.9238 -0.3466 -0.3867
   8823SM  H12T11796   1.480   2.671   4.175  0.2880  1.6501 -0.0414
   8823SM  C13S11797   1.312   2.665   4.300  0.2184 -0.3943  0.0230
   8823SM  H13S11798   1.288   2.558   4.316 -0.2605 -0.1183  1.2614
   8823SM  H13T11799   1.219   2.724   4.313  1.5191  2.1718 -1.5078
   8823SM  C14S11800   1.408   2.701   4.412  0.2776  0.2795 -0.0159
   8823SM  H14S11801   1.503   2.643   4.403 -0.3592 -0.4652 -3.1718
   8823SM  H14T11802   1.355   2.667   4.503 -0.4295  1.2043 -0.0746
   8823SM  C15S11803   1.425   2.855   4.445  0.3529 -0.0105  0.8285
   8823SM  H15S11804   1.324   2.902   4.442 -0.2996 -1.3512 -2.1219
   8823SM  H15T11805   1.497   2.911   4.381 -0.5235 -0.3900 -0.5397
   8823SM  C16S11806   1.485   2.873   4.584 -0.4038 -0.5390  0.7818
   8823SM  H16S11807   1.578   2.815   4.600  0.1510  0.7783  2.7811
   8823SM  H16T11808   1.409   2.841   4.658 -1.1548 -0.7743 -0.0647
   8823SM  C17S11809   1.514   3.025   4.622  0.6850  0.4233 -0.5486
   8823SM  H17S11810   1.513   3.051   4.730 -0.7456 -2.3825  0.2026
   8823SM  H17T11811   1.421   3.074   4.586 -0.6848 -0.7962  1.1662
   8823SM  C18S11812   1.641   3.085   4.563 -0.3932 -0.1005 -0.5256
   8823SM  H18S11813   1.638   3.194   4.585 -1.1008 -0.3188  0.4908
   8823SM  H18T11814   1.653   3.073   4.453  2.8255  0.8146 -0.3785
   8823SM  H18U11815   1.737   3.050   4.606  0.6715  2.4946 -0.6039
   8823SM   C1F11816   0.948   2.419   3.180  0.3004 -0.0537 -0.6912
   8823SM    OF11817   0.998   2.313   3.134  0.1325 -0.0227 -0.3968
   8823SM   C2F11818   0.821   2.432   3.263  0.9721  0.5265 -0.1061
   8823SM   H2F11819   0.738   2.387   3.204 -0.0579  1.8191  0.2897
   8823SM   H2G11820   0.792   2.538   3.279  0.6285  0.3025  0.8051
   8823SM   C3F11821   0.835   2.368   3.405  0.0528 -0.2979 -0.1176
   8823SM   H3F11822   0.847   2.259   3.389 -2.3770 -0.5893 -0.2962
   8823SM   H3G11823   0.745   2.382   3.468 -1.0273  0.7612 -1.8026
   8823SM   C4F11824   0.946   2.418   3.498  0.7893 -0.9615 -0.6145
   8823SM   H4F11825   0.930   2.522   3.532 -2.9289 -1.1306 -1.4359
   8823SM   H4G11826   1.040   2.414   3.439  0.8671  1.6991 -0.8132
   8823SM   C5F11827   0.966   2.322   3.614 -0.5319 -0.0608 -0.2467
   8823SM   H5F11828   0.970   2.217   3.577 -1.1135 -0.1370 -0.1002
   8823SM   H5G11829   0.872   2.332   3.673 -2.1784 -3.9299 -1.8493
   8823SM   C6F11830   1.088   2.354   3.695  0.1335 -0.1789 -0.6008
   8823SM   H6F11831   1.087   2.465   3.701 -0.8863 -0.1590 -0.8931
   8823SM   H6G11832   1.168   2.321   3.625  2.8714 -0.5396  2.4661
   8823SM   C7F11833   1.095   2.276   3.833  1.1032 -0.8560 -0.4490
   8823SM   H7F11834   1.199   2.244   3.856  1.3088  1.2150  1.9192
   8823SM   H7G11835   1.034   2.183   3.829  0.2769 -0.5297  2.2379
   8823SM   C8F11836   1.037   2.362   3.942 -0.3452  0.1123 -0.3255
   8823SM   H8F11837   0.930   2.361   3.915  0.3589 -0.0320 -3.4248
   8823SM   H8G11838   1.057   2.471   3.932 -1.5310  0.4949  1.0754
   8823SM   C9F11839   1.064   2.301   4.082 -0.8080 -0.0549 -0.1285
   8823SM   H9F11840   1.175   2.299   4.089 -0.8082 -2.1850 -0.0794
   8823SM   H9G11841   1.021   2.200   4.096 -0.9332  0.0503  0.2603
   8823SM  C10F11842   1.021   2.386   4.203  0.0756 -0.6215 -0.4986
   8823SM  H10F11843   0.911   2.375   4.211  0.0813  0.0592  0.9198
   8823SM  H10G11844   1.045   2.493   4.182  0.6151 -0.5562  0.3805
   8823SM  C11F11845   1.097   2.338   4.338  0.3899 -0.4219  0.3261
   8823SM  H11F11846   1.207   2.341   4.317  0.5915 -1.4795  1.2023
   8823SM  H11G11847   1.071   2.233   4.362  1.0998 -0.0867  2.8744
   8823SM  C12F11848   1.061   2.410   4.471  0.0918 -0.7811  0.6714
   8823SM  H12F11849   0.950   2.409   4.478 -0.0198 -0.2927 -0.6520
   8823SM  H12G11850   1.081   2.520   4.475  1.1679 -1.0127  2.1493
   8823SM  C13F11851   1.104   2.339   4.595 -0.1024  0.4812  0.7339
   8823SM  H13F11852   1.215   2.346   4.596  0.0138 -0.8130  3.0990
   8823SM  H13G11853   1.082   2.231   4.590 -0.5402  0.6257 -1.0595
   8823SM  C14F11854   1.033   2.393   4.721  0.2923 -0.0918  0.0973
   8823SM  H14F11855   0.927   2.366   4.699 -0.1929  2.4983 -1.0935
   8823SM  H14G11856   1.036   2.504   4.717 -1.7966 -0.0151 -0.4077
   8823SM  C15F11857   1.090   2.342   4.852 -0.3190 -0.1191  0.3456
   8823SM  H15F11858   1.056   2.236   4.862  0.5867 -0.4267  0.2628
   8823SM  H15G11859   1.040   2.393   4.936  0.3033  0.4705  0.3650
   8823SM  C16F11860   1.237   2.327   4.870  0.4321  0.5363 -0.4645
   8823SM  H16F11861   1.284   2.263   4.792 -0.6933 -0.2005 -0.5512
   8823SM  H16G11862   1.272   2.287   4.968  3.6773 -2.0988 -2.4637
   8823SM  C17F11863   1.307   2.459   4.868  0.0236 -1.2790  0.3847
   8823SM  H17F11864   1.260   2.533   4.936  1.8821  0.3342  0.0262
   8823SM  H17G11865   1.286   2.502   4.768  0.3356 -1.1978  0.3533
   8823SM  C18F11866   1.450   2.445   4.899 -0.8339 -0.3865  0.3170
   8823SM  H18F11867   1.491   2.356   4.847 -2.5598 -0.5501 -0.8389
   8823SM  H18G11868   1.480   2.426   5.005  2.1028  0.5268 -0.2493
   8823SM  C19F11869   1.521   2.580   4.866  0.2827  0.2525  0.0119
   8823SM  H19F11870   1.469   2.661   4.922  2.3252  3.5599 -2.5341
   8823SM  H19G11871   1.508   2.592   4.757  0.7357 -0.2823 -0.1056
   8823SM  C20F11872   1.666   2.581   4.922 -0.1560 -0.5713 -0.0756
   8823SM  H20F11873   1.718   2.486   4.897  0.2993 -0.1324 -0.8535
   8823SM  H20G11874   1.671   2.588   5.032 -0.3999  0.1213 -0.1046
   8823SM  C21F11875   1.747   2.690   4.858  0.0335 -0.2276  0.1778
   8823SM  H21F11876   1.747   2.683   4.748  3.7083  0.8166 -0.0197
   8823SM  H21G11877   1.855   2.680   4.884  0.8592  1.9830 -1.9870
   8823SM  C22F11878   1.701   2.837   4.894  0.3436 -0.2536 -0.2785
   8823SM  H22F11879   1.652   2.833   4.993 -0.2215 -2.9956 -0.5707
   8823SM  H22G11880   1.622   2.861   4.820 -0.6813 -0.3720  0.7536
   8823SM  C23F11881   1.802   2.946   4.868 -0.6652 -0.0467  0.0909
   8823SM  H23F11882   1.757   3.046   4.885  1.0259  0.5315  1.4061
   8823SM  H23G11883   1.839   2.935   4.763  0.0096  0.6270  0.2471
   8823SM  H23H11884   1.891   2.929   4.932 -0.1444  0.5796 -0.4454
   8923SM     N11885   3.807   3.066   2.082  0.0227 -0.1398 -0.3635
   8923SM   C1511886   3.692   3.126   2.005 -0.3565 -0.1333  0.4690
   8923SM  H15A11887   3.727   3.176   1.916  1.1436  1.4983  1.8982
   8923SM  H15B11888   3.635   3.199   2.062 -0.9905  1.1572 -1.7134
   8923SM  H15C11889   3.620   3.052   1.973 -0.3269  0.4239 -0.9201
   8923SM   C1411890   3.866   2.966   1.990 -0.0105  0.4952 -0.1432
   8923SM  H14A11891   3.798   2.885   1.969  2.6689 -3.0761  3.3787
   8923SM  H14B11892   3.953   2.922   2.037  1.4222  1.1330 -2.0738
   8923SM  H14C11893   3.898   3.005   1.894 -0.8414 -0.5154 -0.8549
   8923SM   C1311894   3.902   3.179   2.090  0.2441 -0.3342  0.6560
   8923SM  H13A11895   3.969   3.194   2.006 -0.3349  1.4857  0.4848
   8923SM  H13B11896   3.975   3.154   2.166  0.9885 -0.8267 -0.2037
   8923SM  H13C11897   3.862   3.274   2.120  1.6214  1.0442 -1.5845
   8923SM   C1211898   3.773   3.001   2.215 -0.7337  0.0462  0.4694
   8923SM  H12A11899   3.856   2.935   2.237 -0.3084 -0.7056 -2.9350
   8923SM  H12B11900   3.679   2.949   2.218 -2.7298  3.3402  2.6176
   8923SM   C1111901   3.770   3.108   2.329  0.1731  0.2532  0.1225
   8923SM  H11A11902   3.874   3.147   2.342  0.4950 -0.4234 -0.3448
   8923SM  H11B11903   3.751   3.046   2.419 -0.6708 -0.2819 -0.4106
   8923SM     P11904   3.534   3.203   2.371  0.0966  0.1293  0.2115
   8923SM   O1311905   3.461   3.326   2.332  0.2194  0.1744 -0.3092
   8923SM   O1411906   3.464   3.077   2.337  0.0989  0.3488 -0.0707
   8923SM   O1111907   3.562   3.214   2.523 -0.2651 -0.1942  0.1996
   8923SM   O1211908   3.676   3.211   2.313 -0.1829  1.3513  0.4925
   8923SM   C1S11909   3.640   3.331   2.566 -0.1154 -0.0290 -0.4188
   8923SM   H1S11910   3.602   3.427   2.524 -1.3945  0.5836  1.9900
   8923SM   H1T11911   3.747   3.317   2.541  0.0053 -1.4840  0.7865
   8923SM    NF11912   3.726   3.450   2.775  0.4026  0.0521 -0.1211
   8923SM   HNF11913   3.813   3.412   2.808 -0.5269 -0.3174  2.1018
   8923SM   C2S11914   3.631   3.349   2.725 -0.9636 -0.0032  0.4038
   8923SM   H2S11915   3.529   3.379   2.757 -0.7388 -1.1704  2.4059
   8923SM   C3S11916   3.656   3.210   2.799 -0.0114  0.2646 -0.4330
   8923SM   H3S11917   3.757   3.168   2.781 -0.4110 -2.1124  2.2097
   8923SM    O311918   3.559   3.107   2.762  0.2173 -0.3133  0.0010
   8923SM   HO311919   3.536   3.120   2.670 -0.4422 -0.4910  0.1340
   8923SM   C4S11920   3.649   3.232   2.945  0.3767  0.2810  0.3816
   8923SM   H4S11921   3.556   3.282   2.977 -2.3461 -3.4848 -0.9246
   8923SM   C5S11922   3.749   3.196   3.031  1.2062  0.4033  0.0119
   8923SM   H5S11923   3.842   3.149   2.996  0.8204 -0.1060 -0.3458
   8923SM   C6S11924   3.740   3.216   3.181  0.4306  0.7217 -1.2538
   8923SM   H6S11925   3.826   3.283   3.204  2.7790 -2.4792  0.2053
   8923SM   H6T11926   3.755   3.123   3.241  0.5467  0.8946 -1.0101
   8923SM   C7S11927   3.611   3.262   3.240  0.3248 -0.5513  0.4284
   8923SM   H7S11928   3.536   3.181   3.225 -0.0796 -0.1338  0.1689
   8923SM   H7T11929   3.577   3.358   3.195  0.2163 -0.6114  0.3818
   8923SM   C8S11930   3.626   3.286   3.395 -0.4411 -0.0735 -0.1190
   8923SM   H8S11931   3.703   3.364   3.414 -0.4146 -0.4302  1.3083
   8923SM   H8T11932   3.657   3.186   3.431 -0.5696 -0.2478 -0.4868
   8923SM   C9S11933   3.502   3.334   3.457  0.2439  0.2747  0.7351
   8923SM   H9S11934   3.411   3.273   3.437  0.4897  0.3721 -0.8244
   8923SM   H9T11935   3.481   3.432   3.409 -0.3250  0.3255  1.0750
   8923SM  C10S11936   3.528   3.359   3.604  0.4422 -0.7031 -0.2742
   8923SM  H10S11937   3.621   3.415   3.627 -1.5584  2.2939  1.2559
   8923SM  H10T11938   3.545   3.263   3.658  3.2454 -0.3310 -0.3507
   8923SM  C11S11939   3.405   3.414   3.674  0.4441  0.2063 -0.7668
   8923SM  H11S11940   3.323   3.341   3.689  0.2149 -0.2321 -3.5758
   8923SM  H11T11941   3.354   3.494   3.615  1.2356  0.7382 -0.7496
   8923SM  C12S11942   3.450   3.470   3.812  0.1744  0.2696  0.0083
   8923SM  H12S11943   3.472   3.579   3.814 -1.3662  0.7005 -2.2802
   8923SM  H12T11944   3.544   3.423   3.845  0.1709  2.1223  3.1436
   8923SM  C13S11945   3.343   3.428   3.922  0.0450  0.7005  0.0083
   8923SM  H13S11946   3.311   3.324   3.901 -0.0279  0.5048  1.0240
   8923SM  H13T11947   3.257   3.499   3.918  1.1439  2.0778  0.2824
   8923SM  C14S11948   3.399   3.443   4.062  0.2939  0.5054 -0.0324
   8923SM  H14S11949   3.476   3.366   4.082  1.7334  1.3859 -1.8394
   8923SM  H14T11950   3.317   3.435   4.136  0.4292 -0.6783  0.0065
   8923SM  C15S11951   3.467   3.570   4.085  0.0095  0.2118  0.3426
   8923SM  H15S11952   3.411   3.652   4.035 -1.9187 -0.6663  0.9526
   8923SM  H15T11953   3.563   3.574   4.029  0.1745 -2.7039  0.2544
   8923SM  C16S11954   3.503   3.602   4.230  0.7432  0.0849 -0.6222
   8923SM  H16S11955   3.554   3.515   4.277 -3.1519 -2.0936  0.0231
   8923SM  H16T11956   3.406   3.611   4.283  1.5664  3.2282  0.5755
   8923SM  C17S11957   3.582   3.740   4.259 -0.1220  1.0631  0.9059
   8923SM  H17S11958   3.528   3.810   4.192 -0.6863  0.0038  0.2213
   8923SM  H17T11959   3.687   3.717   4.230 -0.3025 -0.7696  1.5682
   8923SM  C18S11960   3.584   3.778   4.404 -0.2055  0.1570  0.0934
   8923SM  H18S11961   3.642   3.700   4.458 -0.1661 -0.3181 -0.6248
   8923SM  H18T11962   3.481   3.784   4.446 -0.1747 -2.7895  0.8478
   8923SM  H18U11963   3.640   3.873   4.411 -0.0688  0.0621  0.3120
   8923SM   C1F11964   3.704   3.579   2.744  0.1778  0.1678 -0.1476
   8923SM    OF11965   3.606   3.621   2.672 -0.6384 -0.1205  0.3395
   8923SM   C2F11966   3.819   3.659   2.787  0.0217  0.2254  0.8327
   8923SM   H2F11967   3.793   3.765   2.764  1.4597  0.5152  0.4336
   8923SM   H2G11968   3.910   3.647   2.724  1.6163  2.2653  2.5929
   8923SM   C3F11969   3.847   3.638   2.938  0.7645  0.1226 -0.1197
   8923SM   H3F11970   3.944   3.688   2.959  0.4268 -0.2213  2.6602
   8923SM   H3G11971   3.862   3.529   2.956 -2.2677 -0.4921 -0.7499
   8923SM   C4F11972   3.741   3.711   3.027  0.1499  0.0994 -0.7388
   8923SM   H4F11973   3.642   3.662   3.013  0.0541 -0.0050  0.2211
   8923SM   H4G11974   3.743   3.820   3.003 -2.6510  0.2899 -0.4901
   8923SM   C5F11975   3.772   3.696   3.184  0.5627 -0.3218 -0.2104
   8923SM   H5F11976   3.864   3.757   3.199  1.0106 -0.4925 -1.9842
   8923SM   H5G11977   3.776   3.589   3.212 -2.5169 -0.5824 -0.3783
   8923SM   C6F11978   3.654   3.761   3.261 -0.2808 -0.1532  0.2715
   8923SM   H6F11979   3.556   3.710   3.247 -0.9653  1.2797 -0.3909
   8923SM   H6G11980   3.631   3.861   3.218 -2.3108 -0.8647 -0.4194
   8923SM   C7F11981   3.688   3.768   3.411  0.1758  0.3248 -0.0209
   8923SM   H7F11982   3.779   3.816   3.452  0.7187 -1.3954  0.8909
   8923SM   H7G11983   3.688   3.664   3.450 -1.0210 -0.1048 -1.0851
   8923SM   C8F11984   3.577   3.852   3.481  0.0301 -0.4993 -0.5800
   8923SM   H8F11985   3.477   3.837   3.434 -0.9167  0.6274  0.9842
   8923SM   H8G11986   3.596   3.961   3.468 -1.8833 -0.0722 -0.1068
   8923SM   C9F11987   3.562   3.813   3.633 -0.1997 -0.0133  0.4571
   8923SM   H9F11988   3.653   3.849   3.686  0.0221  0.0090  0.0631
   8923SM   H9G11989   3.550   3.706   3.659 -0.5912 -0.1671 -0.3320
   8923SM  C10F11990   3.455   3.896   3.705  0.0252 -0.2633 -0.5217
   8923SM  H10F11991   3.354   3.860   3.675  0.5652 -0.6311 -2.0108
   8923SM  H10G11992   3.452   3.998   3.662  0.3508 -0.4201 -0.9247
   8923SM  C11F11993   3.475   3.902   3.853 -0.6381  0.6218  0.7387
   8923SM  H11F11994   3.576   3.866   3.880 -0.6153 -0.0719 -0.2105
   8923SM  H11G11995   3.395   3.849   3.910 -0.3019 -0.3565  0.3279
   8923SM  C12F11996   3.467   4.047   3.910 -0.2104  0.0377  0.4609
   8923SM  H12F11997   3.369   4.090   3.881  0.5559 -0.2527 -3.0182
   8923SM  H12G11998   3.547   4.108   3.862 -0.9896  0.5353 -0.2442
   8923SM  C13F11999   3.489   4.039   4.059 -0.0900 -0.1604  0.6220
   8923SM  H13F12000   3.589   3.996   4.081  0.2709  0.2848 -0.0859
   8923SM  H13G12001   3.420   3.966   4.106  0.7370 -0.9710  0.5820
   8923SM  C14F12002   3.499   4.172   4.124  0.4744 -0.0709  0.4673
   8923SM  H14F12003   3.418   4.244   4.100  1.8678  0.8143 -1.9540
   8923SM  H14G12004   3.593   4.221   4.089  2.1871 -2.9353  0.7091
   8923SM  C15F12005   3.510   4.160   4.275 -0.1275  0.3402 -0.1760
   8923SM  H15F12006   3.542   4.055   4.295  2.2769  0.8171 -1.2070
   8923SM  H15G12007   3.410   4.191   4.313 -0.5321  0.3426 -1.2036
   8923SM  C16F12008   3.614   4.257   4.335 -0.4538 -0.7000 -1.1394
   8923SM  H16F12009   3.711   4.259   4.282 -0.9117  2.7429 -2.0999
   8923SM  H16G12010   3.635   4.230   4.441  0.4558 -0.2218 -1.1879
   8923SM  C17F12011   3.572   4.402   4.350  0.6544  0.0987  0.1128
   8923SM  H17F12012   3.504   4.418   4.436  0.7954 -0.1787  0.2750
   8923SM  H17G12013   3.536   4.437   4.251  1.5642 -0.4394 -0.4274
   8923SM  C18F12014   3.687   4.499   4.381 -0.5696  0.1189 -0.8101
   8923SM  H18F12015   3.661   4.607   4.373  1.5342  0.7975  0.6943
   8923SM  H18G12016   3.777   4.478   4.319  0.2881 -0.4368  0.5718
   8923SM  C19F12017   3.723   4.480   4.532 -0.6273  0.2009  0.0965
   8923SM  H19F12018   3.762   4.380   4.558 -0.1253 -0.5081 -2.9770
   8923SM  H19G12019   3.636   4.500   4.598 -0.2843  0.1202  0.5718
   8923SM  C20F12020   3.820   4.593   4.572  1.2430  0.0853  0.1506
   8923SM  H20F12021   3.775   4.693   4.552  2.3146  0.2545 -1.6900
   8923SM  H20G12022   3.904   4.580   4.500  0.1503 -0.2097 -1.1073
   8923SM  C21F12023   3.888   4.591   4.711  0.3840  0.4847  0.5562
   8923SM  H21F12024   3.951   4.682   4.720 -1.3158  1.5387  2.8134
   8923SM  H21G12025   3.962   4.508   4.712 -1.2100 -0.9941  0.3308
   8923SM  C22F12026   3.794   4.588   4.827 -0.3140 -0.7585 -0.5797
   8923SM  H22F12027   3.727   4.501   4.814 -0.9152 -0.1779 -1.4635
   8923SM  H22G12028   3.725   4.674   4.810  0.4282  0.3815  1.7448
   8923SM  C23F12029   3.857   4.600   4.969 -0.2319 -0.2127  0.5934
   8923SM  H23F12030   3.784   4.591   5.052 -0.8949  0.0850  0.0581
   8923SM  H23G12031   3.899   4.702   4.980 -1.5577  0.4824 -0.4684
   8923SM  H23H12032   3.925   4.514   4.989 -1.3429 -0.8196  1.9075
   9023SM     N12033   4.373   2.444   1.950  0.3613 -0.6579 -0.1899
   9023SM   C1512034   4.270   2.388   2.045 -1.1528  0.6034 -0.4019
   9023SM  H15A12035   4.191   2.337   1.991 -0.9391  1.0688 -1.1694
   9023SM  H15B12036   4.232   2.464   2.112 -0.4251 -0.6264  1.4777
   9023SM  H15C12037   4.312   2.307   2.102 -1.2102 -0.6883 -2.0953
   9023SM   C1412038   4.439   2.336   1.864 -0.1330 -0.9116 -0.6823
   9023SM  H14A12039   4.448   2.248   1.925 -1.3519 -0.3895  0.2825
   9023SM  H14B12040   4.538   2.364   1.830 -0.8418  1.1197 -1.2433
   9023SM  H14C12041   4.382   2.306   1.777  0.8299 -1.0067 -1.2999
   9023SM   C1312042   4.312   2.535   1.851 -0.3880 -0.6259 -0.4615
   9023SM  H13A12043   4.221   2.496   1.808 -0.7000 -0.4198 -0.0019
   9023SM  H13B12044   4.381   2.565   1.774  0.4216 -0.9951  0.1041
   9023SM  H13C12045   4.280   2.621   1.909  1.5362 -2.1385  3.1682
   9023SM   C1212046   4.486   2.510   2.025  0.1553 -0.1079  0.1414
   9023SM  H12A12047   4.552   2.558   1.954 -1.0904  0.7820 -0.4620
   9023SM  H12B12048   4.535   2.435   2.086  1.8575  0.1910 -0.7899
   9023SM   C1112049   4.451   2.627   2.116  0.2917 -0.3873 -0.0625
   9023SM  H11A12050   4.536   2.662   2.180 -3.3482  0.4585  4.9097
   9023SM  H11B12051   4.376   2.609   2.196 -0.7838 -0.2779 -1.0371
   9023SM     P12052   4.481   2.869   2.008 -0.5658  0.2417 -0.0412
   9023SM   O1312053   4.584   2.828   1.910  0.0900 -0.2865 -0.5184
   9023SM   O1412054   4.380   2.968   1.965 -0.1559 -0.0575  0.1552
   9023SM   O1112055   4.548   2.917   2.150 -0.1726 -0.0201  0.5181
   9023SM   O1212056   4.407   2.740   2.047  0.3108 -0.3047 -0.1972
   9023SM   C1S12057   4.483   2.948   2.272 -0.3117 -0.2717  0.2151
   9023SM   H1S12058   4.419   2.864   2.307  1.7117 -1.6435  0.7809
   9023SM   H1T12059   4.413   3.034   2.270  1.1195  1.0105  1.8132
   9023SM    NF12060   4.535   2.994   2.504  0.3892 -0.1693  0.4951
   9023SM   HNF12061   4.533   3.089   2.536 -0.2057 -0.3690  1.0625
   9023SM   C2S12062   4.594   2.988   2.377  0.1811 -0.0608 -0.3161
   9023SM   H2S12063   4.675   2.914   2.362  1.0073  1.0801 -1.8312
   9023SM   C3S12064   4.666   3.123   2.333 -0.2512 -0.0418 -1.2271
   9023SM   H3S12065   4.587   3.202   2.336 -0.5765 -0.3783 -0.8103
   9023SM    O312066   4.710   3.125   2.201  0.2298 -0.1713  0.0429
   9023SM   HO312067   4.648   3.059   2.168 -3.1814  1.2924  2.8145
   9023SM   C4S12068   4.772   3.150   2.430 -0.5775  0.6345 -0.0685
   9023SM   H4S12069   4.847   3.070   2.436 -0.8738  0.4420  1.5808
   9023SM   C5S12070   4.785   3.253   2.512  0.3366  0.0450 -0.3591
   9023SM   H5S12071   4.707   3.331   2.510  0.0300 -0.1486  1.8318
   9023SM   C6S12072   4.904   3.277   2.607 -0.4125  0.4220 -0.0450
   9023SM   H6S12073   4.944   3.380   2.596 -0.0536 -0.0360 -6.7135
   9023SM   H6T12074   4.987   3.207   2.585  0.9569  2.3596 -1.3672
   9023SM   C7S12075   4.855   3.278   2.755 -0.5815  0.6195  0.8116
   9023SM   H7S12076   4.762   3.336   2.766  1.1050  3.2829  1.9836
   9023SM   H7T12077   4.929   3.331   2.819  0.6231 -0.9490  0.7874
   9023SM   C8S12078   4.844   3.135   2.801  0.4077 -0.1901 -0.1061
   9023SM   H8S12079   4.942   3.103   2.841 -0.5509 -1.1800  1.5916
   9023SM   H8T12080   4.833   3.065   2.716 -3.8409 -2.3978  1.9136
   9023SM   C9S12081   4.728   3.105   2.902 -0.1193  0.4780 -0.1257
   9023SM   H9S12082   4.758   3.005   2.939  1.5322  0.5746 -1.1136
   9023SM   H9T12083   4.637   3.094   2.840  0.2992 -1.7777 -0.4245
   9023SM  C10S12084   4.698   3.200   3.016 -0.6541  0.5478  0.5549
   9023SM  H10S12085   4.629   3.280   2.982 -2.4445 -1.3753 -0.5480
   9023SM  H10T12086   4.795   3.237   3.056 -0.5943  0.6988  0.2752
   9023SM  C11S12087   4.626   3.133   3.135  0.3996  0.7780  0.4110
   9023SM  H11S12088   4.704   3.063   3.172 -0.7148  0.0177  1.3855
   9023SM  H11T12089   4.550   3.071   3.082  1.2879  0.4545 -0.5309
   9023SM  C12S12090   4.566   3.234   3.227  0.1969  0.2577  0.0647
   9023SM  H12S12091   4.495   3.290   3.162  1.0062  0.7225 -0.4359
   9023SM  H12T12092   4.635   3.313   3.265  0.0062  0.9296 -0.9640
   9023SM  C13S12093   4.493   3.182   3.354  0.3742 -0.5057  0.6070
   9023SM  H13S12094   4.446   3.084   3.329  0.3907 -0.4295  0.2652
   9023SM  H13T12095   4.418   3.260   3.378  0.5141 -0.3974  0.6937
   9023SM  C14S12096   4.583   3.154   3.479  0.1224  0.2428  0.4918
   9023SM  H14S12097   4.625   3.252   3.508 -2.1118  1.9785 -1.6738
   9023SM  H14T12098   4.666   3.091   3.439 -1.0123 -1.2742  0.4531
   9023SM  C15S12099   4.503   3.100   3.592 -0.3148 -0.0444 -0.6474
   9023SM  H15S12100   4.448   3.006   3.570 -3.3331  1.0485  1.5617
   9023SM  H15T12101   4.420   3.162   3.631  0.4465  0.4173  0.2681
   9023SM  C16S12102   4.594   3.078   3.717  0.3816 -0.1651 -0.3102
   9023SM  H16S12103   4.617   3.181   3.751  0.8206  0.2916 -1.8878
   9023SM  H16T12104   4.689   3.033   3.681  0.3031 -0.6878  0.1400
   9023SM  C17S12105   4.526   3.002   3.834 -0.3776 -0.4282 -0.0975
   9023SM  H17S12106   4.607   2.949   3.889 -0.0114  1.0909  0.8888
   9023SM  H17T12107   4.459   2.920   3.798 -1.9381  0.4204  0.7548
   9023SM  C18S12108   4.436   3.096   3.923  0.2683  1.1926 -0.2002
   9023SM  H18S12109   4.355   3.147   3.867 -1.0810  1.9839  2.3459
   9023SM  H18T12110   4.492   3.164   3.991  1.8617  0.7845 -1.0561
   9023SM  H18U12111   4.386   3.026   3.993  3.8585 -1.6881 -0.2057
   9023SM   C1F12112   4.483   2.888   2.563  0.0866 -0.3179 -0.4299
   9023SM    OF12113   4.511   2.774   2.532 -0.5866  0.0185  0.4275
   9023SM   C2F12114   4.399   2.918   2.680 -0.4256 -0.1509 -0.0754
   9023SM   H2F12115   4.347   3.013   2.655  0.7293 -0.1936 -3.0743
   9023SM   H2G12116   4.468   2.946   2.762 -1.4477  1.3444  0.3284
   9023SM   C3F12117   4.302   2.807   2.723 -1.0276 -0.5761 -0.0235
   9023SM   H3F12118   4.349   2.714   2.762 -1.3802 -1.3109 -1.2753
   9023SM   H3G12119   4.242   2.780   2.633  1.2878 -1.1787 -1.4708
   9023SM   C4F12120   4.203   2.874   2.827  0.1869  0.3345  0.1351
   9023SM   H4F12121   4.130   2.802   2.871 -0.3953  0.0008 -1.3310
   9023SM   H4G12122   4.142   2.946   2.768 -2.7818 -1.5696  0.6911
   9023SM   C5F12123   4.260   2.947   2.945 -0.5669  0.2083 -0.7465
   9023SM   H5F12124   4.331   3.023   2.907 -0.3131  0.5163  0.3122
   9023SM   H5G12125   4.314   2.890   3.023 -0.7509  0.3425 -0.5181
   9023SM   C6F12126   4.149   3.024   3.018  0.4249 -0.4374 -0.7001
   9023SM   H6F12127   4.069   2.948   3.026 -0.6569  0.7418  0.0365
   9023SM   H6G12128   4.112   3.101   2.948  0.6133  1.5792  1.2917
   9023SM   C7F12129   4.195   3.068   3.163  0.1095  0.2004  0.2431
   9023SM   H7F12130   4.270   3.149   3.149  0.3860 -0.1817 -0.5346
   9023SM   H7G12131   4.240   2.977   3.207  2.7932  1.2698 -0.0838
   9023SM   C8F12132   4.077   3.124   3.246 -0.3660  0.6377 -0.2010
   9023SM   H8F12133   4.001   3.043   3.249 -1.1398  1.3484 -0.2794
   9023SM   H8G12134   4.041   3.213   3.190  0.6657  0.5021 -1.0824
   9023SM   C9F12135   4.120   3.158   3.391  0.1876  0.1678  0.3313
   9023SM   H9F12136   4.180   3.251   3.389  0.6495 -0.1349  0.0038
   9023SM   H9G12137   4.189   3.081   3.432  0.3212 -0.0611 -0.3036
   9023SM  C10F12138   4.000   3.184   3.484  0.3675 -0.8554  0.1546
   9023SM  H10F12139   3.926   3.102   3.491 -0.1706 -0.6451 -2.3479
   9023SM  H10G12140   3.943   3.269   3.441  0.3137 -2.1770 -2.6220
   9023SM  C11F12141   4.062   3.214   3.622  0.0400  0.6573  0.3578
   9023SM  H11F12142   4.120   3.309   3.622  1.3530 -0.0968  1.3904
   9023SM  H11G12143   4.132   3.130   3.646 -0.8245 -0.0256  0.5404
   9023SM  C12F12144   3.960   3.237   3.738  0.3226 -0.5878 -0.4799
   9023SM  H12F12145   3.886   3.157   3.760 -0.5207  0.0907 -0.8069
   9023SM  H12G12146   3.898   3.325   3.712  1.9592  0.8838  0.4118
   9023SM  C13F12147   4.016   3.283   3.873 -0.2962  0.0325 -0.2081
   9023SM  H13F12148   4.067   3.381   3.861  0.5752 -0.3330  0.3798
   9023SM  H13G12149   4.092   3.205   3.895  0.0575  0.6341  0.7302
   9023SM  C14F12150   3.910   3.273   3.986 -0.4336  0.7002  0.8847
   9023SM  H14F12151   3.871   3.169   3.989  1.7513 -0.3613 -2.2030
   9023SM  H14G12152   3.832   3.348   3.962 -1.1624 -0.7545 -1.7303
   9023SM  C15F12153   3.984   3.315   4.107 -0.4399 -0.1725  0.4975
   9023SM  H15F12154   4.037   3.410   4.082 -0.5061 -0.3654 -0.4075
   9023SM  H15G12155   4.066   3.246   4.135  0.5956  0.9996  0.4506
   9023SM  C16F12156   3.904   3.342   4.239 -0.1249  0.1325  0.0287
   9023SM  H16F12157   3.835   3.426   4.218  1.3771  1.4512  0.1412
   9023SM  H16G12158   3.979   3.375   4.314  1.5343 -1.6652 -0.7493
   9023SM  C17F12159   3.833   3.219   4.283  0.0898  0.5272  0.1825
   9023SM  H17F12160   3.906   3.150   4.329  0.4251  1.0797  0.4989
   9023SM  H17G12161   3.781   3.184   4.191  1.1156  1.0016 -0.6028
   9023SM  C18F12162   3.730   3.233   4.395  0.2156 -0.1869  0.9721
   9023SM  H18F12163   3.702   3.127   4.413  0.9065 -0.1679  2.2500
   9023SM  H18G12164   3.652   3.300   4.354  0.4588  0.2664  1.2391
   9023SM  C19F12165   3.761   3.310   4.527 -0.5783  0.9613  0.4453
   9023SM  H19F12166   3.677   3.297   4.599 -2.3616 -0.5246 -1.7884
   9023SM  H19G12167   3.762   3.419   4.508 -1.1850  0.5824 -2.1605
   9023SM  C20F12168   3.886   3.260   4.601 -0.1618 -0.2802 -0.6186
   9023SM  H20F12169   3.979   3.290   4.548  1.0049 -0.9023  0.9859
   9023SM  H20G12170   3.884   3.149   4.596 -2.0065 -0.4798  2.1645
   9023SM  C21F12171   3.896   3.312   4.743 -0.1466 -0.8971  0.2130
   9023SM  H21F12172   3.796   3.312   4.792 -0.8060  1.0225 -1.0442
   9023SM  H21G12173   3.941   3.413   4.741  0.4085 -1.0738  1.8113
   9023SM  C22F12174   3.994   3.223   4.822 -0.0965 -0.1462 -0.1986
   9023SM  H22F12175   4.088   3.235   4.764 -0.1426 -0.2080 -0.2863
   9023SM  H22G12176   3.959   3.118   4.814 -0.1209 -0.1720  0.2143
   9023SM  C23F12177   4.015   3.262   4.970  1.0708 -0.0031  0.2750
   9023SM  H23F12178   4.105   3.210   5.010  1.8261  0.1066 -1.2036
   9023SM  H23G12179   3.926   3.225   5.026  1.3945 -0.2354  0.6410
   9023SM  H23H12180   4.026   3.372   4.982  2.6685 -0.1143  0.0752
   9123SM     N12181   4.468   4.776   1.835  0.6461  0.5788  0.2248
   9123SM   C1512182   4.549   4.803   1.709  0.2027 -0.4924  0.0521
   9123SM  H15A12183   4.614   4.719   1.688 -0.4044 -1.1326  0.6745
   9123SM  H15B12184   4.615   4.888   1.719 -2.1748  1.1596  4.2075
   9123SM  H15C12185   4.474   4.819   1.634 -0.4508  1.6871  1.0968
   9123SM   C1412186   4.394   4.901   1.872 -0.9052  0.5667  0.2079
   9123SM  H14A12187   4.322   4.931   1.797 -2.7201 -2.6713  0.4874
   9123SM  H14B12188   4.470   4.976   1.889 -0.6854  0.1738  1.0147
   9123SM  H14C12189   4.345   4.877   1.965 -1.0010  0.4536  0.1289
   9123SM   C1312190   4.363   4.677   1.797  0.8731  0.6196 -0.5922
   9123SM  H13A12191   4.277   4.723   1.752 -2.8148 -2.1066  2.9511
   9123SM  H13B12192   4.325   4.630   1.886  1.4085  0.9383 -0.1848
   9123SM  H13C12193   4.398   4.595   1.737 -0.3704  0.1195 -0.6396
   9123SM   C1212194   4.561   4.726   1.947  0.5650  0.4795 -0.1669
   9123SM  H12A12195   4.653   4.781   1.956  0.0786  1.3860 -0.5079
   9123SM  H12B12196   4.601   4.633   1.910  2.0095  1.5581 -1.4114
   9123SM   C1112197   4.510   4.708   2.091  0.2341 -0.1435 -0.2993
   9123SM  H11A12198   4.504   4.812   2.131 -0.3633 -0.4638  0.4899
   9123SM  H11B12199   4.583   4.661   2.161 -0.4895  1.3278  1.5330
   9123SM     P12200   4.401   4.468   2.131 -0.3159  0.4955 -0.3179
   9123SM   O1312201   4.256   4.425   2.141  0.0002 -0.1435 -0.2408
   9123SM   O1412202   4.485   4.389   2.038 -0.5232  0.8256 -0.6964
   9123SM   O1112203   4.463   4.461   2.284  0.2893  0.0111  0.6728
   9123SM   O1212204   4.392   4.623   2.101  0.3188 -0.0203  0.1390
   9123SM   C1S12205   4.386   4.498   2.397 -0.5070 -0.3830  0.5380
   9123SM   H1S12206   4.295   4.433   2.401 -0.2299 -0.8431 -0.3867
   9123SM   H1T12207   4.353   4.604   2.392  0.4939 -0.0794  0.2479
   9123SM    NF12208   4.372   4.547   2.631 -0.5442  0.6392 -0.0180
   9123SM   HNF12209   4.394   4.638   2.665  1.9419  0.9498 -2.1747
   9123SM   C2S12210   4.464   4.499   2.529 -0.6539 -0.0408  0.3043
   9123SM   H2S12211   4.494   4.394   2.546 -0.7322  0.0030  0.7079
   9123SM   C3S12212   4.587   4.595   2.518 -0.5095  0.7352 -0.0105
   9123SM   H3S12213   4.554   4.698   2.494 -0.0634  0.9430  0.2639
   9123SM    O312214   4.676   4.557   2.408 -0.0547  0.0462 -0.0755
   9123SM   HO312215   4.615   4.501   2.360 -0.6681  0.2419  0.4587
   9123SM   C4S12216   4.664   4.586   2.647  0.6678 -0.0447  0.5355
   9123SM   H4S12217   4.713   4.490   2.666  0.6628 -0.2602 -0.4946
   9123SM   C5S12218   4.678   4.686   2.736 -0.5409 -0.0652  0.0028
   9123SM   H5S12219   4.621   4.776   2.708 -3.8157 -2.7478 -2.8278
   9123SM   C6S12220   4.755   4.688   2.866  0.0239  0.0323  0.2986
   9123SM   H6S12221   4.728   4.780   2.923  0.9011  0.4512  0.0643
   9123SM   H6T12222   4.863   4.687   2.840 -0.2342  1.2283 -0.8789
   9123SM   C7S12223   4.731   4.571   2.957  0.0551 -0.0771 -0.0511
   9123SM   H7S12224   4.755   4.476   2.905  0.0305  1.1646 -2.4888
   9123SM   H7T12225   4.624   4.555   2.984  0.4080  1.7087  2.8736
   9123SM   C8S12226   4.829   4.580   3.083  0.8401  0.0223 -0.4883
   9123SM   H8S12227   4.830   4.689   3.104  0.3374 -0.0398 -0.1312
   9123SM   H8T12228   4.930   4.551   3.047 -0.6072 -1.8681 -3.4435
   9123SM   C9S12229   4.799   4.492   3.203  0.2862  0.7751  0.7306
   9123SM   H9S12230   4.818   4.384   3.185  1.4620  0.9906  0.6030
   9123SM   H9T12231   4.692   4.498   3.235  0.4594 -1.1084  1.7853
   9123SM  C10S12232   4.883   4.526   3.323  0.1174 -0.6605  0.1499
   9123SM  H10S12233   4.893   4.637   3.334  0.3201 -0.2764 -2.9322
   9123SM  H10T12234   4.978   4.483   3.283  0.8654  0.3019  0.8411
   9123SM  C11S12235   4.840   4.460   3.458 -0.1523 -0.1639  0.3782
   9123SM  H11S12236   4.849   4.350   3.443  0.8262 -0.3152  1.8111
   9123SM  H11T12237   4.733   4.475   3.483 -1.0463 -4.4860 -0.0337
   9123SM  C12S12238   4.929   4.505   3.579  0.0432  0.2263  0.0596
   9123SM  H12S12239   4.926   4.615   3.593 -0.5272  0.1207  0.8001
   9123SM  H12T12240   5.033   4.479   3.549 -0.3954 -1.0458 -0.4297
   9123SM  C13S12241   4.894   4.438   3.703 -0.6949  0.7735  0.1820
   9123SM  H13S12242   4.935   4.335   3.711 -2.1308  0.1177 -0.5342
   9123SM  H13T12243   4.783   4.432   3.705 -0.9028  3.3185 -0.6498
   9123SM  C14S12244   4.946   4.514   3.829 -0.3272 -0.7030 -0.5569
   9123SM  H14S12245   4.883   4.487   3.916 -0.8235 -0.3398 -0.7965
   9123SM  H14T12246   4.946   4.623   3.804  1.4708 -0.4100  0.5126
   9123SM  C15S12247   5.091   4.477   3.861 -0.1871 -1.0634  0.1775
   9123SM  H15S12248   5.154   4.496   3.772 -0.8792 -2.6096 -0.6699
   9123SM  H15T12249   5.111   4.371   3.887  0.8670 -0.9053  0.0576
   9123SM  C16S12250   5.141   4.558   3.983 -0.3520  0.6065 -0.0556
   9123SM  H16S12251   5.055   4.575   4.051 -2.1071 -1.3251 -1.6550
   9123SM  H16T12252   5.154   4.651   3.925 -0.7635 -0.3693 -1.7983
   9123SM  C17S12253   5.273   4.511   4.043  0.2594 -0.3206 -0.3835
   9123SM  H17S12254   5.355   4.493   3.969  0.4661 -0.8920 -0.0244
   9123SM  H17T12255   5.255   4.416   4.099  1.3855  0.2313  0.9707
   9123SM  C18S12256   5.318   4.611   4.157  0.4372 -0.2036 -0.4050
   9123SM  H18S12257   5.342   4.707   4.106 -2.8641 -0.1731 -2.1293
   9123SM  H18T12258   5.406   4.571   4.212  0.9399 -0.1662 -1.1649
   9123SM  H18U12259   5.240   4.610   4.237  0.6793  0.1877 -0.1578
   9123SM   C1F12260   4.262   4.482   2.674 -0.7070 -0.4489 -0.3710
   9123SM    OF12261   4.233   4.380   2.624  0.1536  0.2316  0.6410
   9123SM   C2F12262   4.197   4.535   2.799  0.2342  0.8266  0.2424
   9123SM   H2F12263   4.178   4.643   2.780 -1.6367  1.3516  4.0914
   9123SM   H2G12264   4.269   4.533   2.883 -0.0249  1.2222  0.4751
   9123SM   C3F12265   4.075   4.461   2.857  1.0055 -0.2029 -0.7582
   9123SM   H3F12266   4.112   4.369   2.906 -2.5590 -1.2512  0.2668
   9123SM   H3G12267   4.006   4.416   2.783  0.7746 -1.5994  0.2635
   9123SM   C4F12268   4.003   4.548   2.962  0.2505  0.5101 -0.2561
   9123SM   H4F12269   3.939   4.476   3.016  2.0032  0.3152  1.6617
   9123SM   H4G12270   3.958   4.634   2.908 -0.1889 -0.6230 -1.7482
   9123SM   C5F12271   4.100   4.600   3.068  0.3553  0.9309 -0.0664
   9123SM   H5F12272   4.186   4.665   3.041  0.1289  0.9913 -0.6525
   9123SM   H5G12273   4.135   4.506   3.117  0.1000  1.0347  0.3140
   9123SM   C6F12274   4.026   4.674   3.184  0.4183  0.0728  0.9426
   9123SM   H6F12275   3.937   4.619   3.220  0.4004  0.8895  2.1989
   9123SM   H6G12276   3.988   4.766   3.135 -0.5508 -1.3393 -1.1007
   9123SM   C7F12277   4.105   4.704   3.311 -0.3596  0.4439 -0.1264
   9123SM   H7F12278   4.210   4.727   3.283  1.2854 -1.3995  3.8058
   9123SM   H7G12279   4.115   4.610   3.369  1.8516 -1.0579 -2.7047
   9123SM   C8F12280   4.029   4.808   3.395  0.6530 -1.0948 -0.3737
   9123SM   H8F12281   3.926   4.773   3.414  0.9514 -1.8967 -0.2109
   9123SM   H8G12282   4.031   4.900   3.332 -0.0591  0.8322  2.2094
   9123SM   C9F12283   4.095   4.842   3.535  0.2264  0.0874 -0.3427
   9123SM   H9F12284   4.022   4.909   3.586 -0.1146 -1.0949  0.7651
   9123SM   H9G12285   4.184   4.907   3.521  0.1888 -0.2605 -2.5856
   9123SM  C10F12286   4.124   4.720   3.623  0.3313 -0.4541  0.3987
   9123SM  H10F12287   4.229   4.689   3.604  0.4291 -0.7935  1.4142
   9123SM  H10G12288   4.063   4.633   3.592  1.5747 -0.9467 -0.7455
   9123SM  C11F12289   4.117   4.755   3.772  0.0786  0.1932 -1.3637
   9123SM  H11F12290   4.032   4.823   3.794 -1.1868 -1.0776 -2.1367
   9123SM  H11G12291   4.202   4.816   3.811 -1.1073  0.2190  1.4108
   9123SM  C12F12292   4.084   4.635   3.866 -0.0951  0.2039 -0.6151
   9123SM  H12F12293   4.167   4.561   3.874 -0.6638 -0.4466 -0.6112
   9123SM  H12G12294   3.998   4.577   3.828 -1.3327  1.9579 -0.6104
   9123SM  C13F12295   4.045   4.686   4.008 -0.3235 -0.3429  0.2915
   9123SM  H13F12296   4.011   4.597   4.063 -0.5035  0.2508  1.1519
   9123SM  H13G12297   3.963   4.761   4.004  1.3508  1.5368 -0.9945
   9123SM  C14F12298   4.170   4.743   4.079  0.1184 -0.0594 -0.6588
   9123SM  H14F12299   4.191   4.846   4.042 -0.7993  0.5153  0.3451
   9123SM  H14G12300   4.257   4.674   4.072  0.6308  0.5453 -0.3958
   9123SM  C15F12301   4.165   4.772   4.233  0.2919  0.5089 -0.1418
   9123SM  H15F12302   4.262   4.808   4.273  0.5390  0.8408 -1.0013
   9123SM  H15G12303   4.140   4.672   4.275  1.7639  1.2633  2.7423
   9123SM  C16F12304   4.057   4.885   4.265 -0.2127  0.7293  0.3693
   9123SM  H16F12305   3.961   4.831   4.246  0.8478 -0.8046 -0.8914
   9123SM  H16G12306   4.061   4.967   4.191  1.5569  0.2291 -0.1307
   9123SM  C17F12307   4.068   4.930   4.405 -0.9960 -0.5490 -0.5518
   9123SM  H17F12308   4.163   4.985   4.422 -0.5620 -0.9262 -1.6828
   9123SM  H17G12309   4.047   4.847   4.477 -3.4181 -1.0318 -1.6969
   9123SM  C18F12310   3.962   5.031   4.444  0.3080 -0.5519  0.6261
   9123SM  H18F12311   3.863   4.982   4.452  0.1883 -0.4338 -0.0520
   9123SM  H18G12312   3.959   5.115   4.371 -1.8692 -0.2247  1.0272
   9123SM  C19F12313   3.989   5.090   4.580 -0.9258  0.3178 -0.3264
   9123SM  H19F12314   3.912   5.168   4.596  1.8658  3.4645 -1.1700
   9123SM  H19G12315   4.096   5.121   4.586 -0.4264 -1.5728  2.0651
   9123SM  C20F12316   3.984   4.990   4.696  0.6903 -0.5976 -0.0935
   9123SM  H20F12317   4.055   4.911   4.663  0.3194 -0.1356 -2.1187
   9123SM  H20G12318   3.885   4.940   4.691  1.0526 -1.3404  0.0149
   9123SM  C21F12319   4.021   5.048   4.835  0.2435  0.1997 -0.0227
   9123SM  H21F12320   4.113   5.110   4.829  0.5135 -0.1145  0.6909
   9123SM  H21G12321   4.043   4.966   4.907 -2.3597 -0.0249  0.6031
   9123SM  C22F12322   3.908   5.133   4.898 -0.3373  0.8949 -0.1182
   9123SM  H22F12323   3.861   5.205   4.827  0.8636  1.5049 -0.3335
   9123SM  H22G12324   3.966   5.185   4.977 -1.0972  1.3256  0.1683
   9123SM  C23F12325   3.803   5.050   4.972  0.1345  0.0970  0.2936
   9123SM  H23F12326   3.841   4.955   5.015  1.2643 -0.3928 -1.6533
   9123SM  H23G12327   3.726   5.014   4.900 -0.0476 -2.7976  1.8221
   9123SM  H23H12328   3.747   5.113   5.044 -1.4998  0.3084 -1.0724
   9223SM     N12329   2.899   3.078   2.069 -0.7179 -0.3920 -1.2136
   9223SM   C1512330   3.046   3.062   2.028  0.4903  0.5984 -0.0638
   9223SM  H15A12331   3.073   2.958   2.014  0.6838  0.7713 -1.0649
   9223SM  H15B12332   3.110   3.092   2.109 -0.9843 -0.0287  1.3905
   9223SM  H15C12333   3.061   3.108   1.931 -1.2463  0.0275 -0.6414
   9223SM   C1412334   2.878   3.228   2.072  0.2743  0.5835  0.0844
   9223SM  H14A12335   2.948   3.273   2.141  0.1516  0.3321  0.3758
   9223SM  H14B12336   2.777   3.244   2.105 -0.0688  2.6076 -1.6967
   9223SM  H14C12337   2.884   3.278   1.976 -2.1010  3.7031  1.4039
   9223SM   C1312338   2.816   3.027   1.950  0.6090 -0.0974  0.8419
   9223SM  H13A12339   2.843   3.072   1.856 -1.3906  0.1428  0.3426
   9223SM  H13B12340   2.713   3.055   1.962 -0.0903 -2.3477  0.6606
   9223SM  H13C12341   2.824   2.920   1.935  0.3314 -0.0200  0.1392
   9223SM   C1212342   2.856   3.010   2.204  0.2976 -0.1459 -0.3756
   9223SM  H12A12343   2.888   2.908   2.189  0.8835  0.3563 -2.9299
   9223SM  H12B12344   2.750   3.003   2.222  0.2269 -1.9870 -1.1964
   9223SM   C1112345   2.935   3.058   2.332  0.4224  0.4699  0.0359
   9223SM  H11A12346   2.885   3.052   2.432 -1.3667 -4.2377 -0.8549
   9223SM  H11B12347   2.967   3.164   2.326  3.9114 -0.4423  0.7406
   9223SM     P12348   3.074   2.843   2.356  0.1390 -0.3240  0.1801
   9223SM   O1312349   2.972   2.804   2.456 -0.2232 -0.0469  0.2237
   9223SM   O1412350   3.062   2.790   2.220  0.1477 -0.1823  0.6646
   9223SM   O1112351   3.221   2.825   2.424 -0.7560  0.5493 -1.0914
   9223SM   O1212352   3.063   2.996   2.343  0.5161 -0.5720  0.3967
   9223SM   C1S12353   3.261   2.911   2.535  0.2729  0.1114 -0.3830
   9223SM   H1S12354   3.174   2.935   2.599 -0.4048 -2.3306 -0.2947
   9223SM   H1T12355   3.310   3.006   2.502  0.4367  0.9863  2.1757
   9223SM    NF12356   3.376   2.898   2.766  0.2627  0.1113 -0.1058
   9223SM   HNF12357   3.466   2.939   2.778  0.4233 -0.2868  0.0732
   9223SM   C2S12358   3.361   2.833   2.634  0.7725 -0.2915  0.6954
   9223SM   H2S12359   3.314   2.732   2.644 -0.7453  0.3118 -0.0421
   9223SM   C3S12360   3.494   2.817   2.562 -0.3114 -0.0547  0.0873
   9223SM   H3S12361   3.533   2.921   2.562 -1.2953  0.3231 -0.0348
   9223SM    O312362   3.485   2.770   2.429 -0.4471 -0.3990  0.0344
   9223SM   HO312363   3.397   2.802   2.410  0.7493  2.3331 -1.3955
   9223SM   C4S12364   3.591   2.729   2.644 -0.1859 -0.2676 -0.4086
   9223SM   H4S12365   3.535   2.640   2.675 -2.8189  0.9775 -1.2277
   9223SM   C5S12366   3.719   2.758   2.681 -0.0386 -0.0641  0.5649
   9223SM   H5S12367   3.759   2.858   2.660  2.1672 -1.2639 -1.3170
   9223SM   C6S12368   3.816   2.674   2.762 -0.4914  0.4236 -0.4140
   9223SM   H6S12369   3.909   2.659   2.704 -1.6087 -1.6844 -1.7966
   9223SM   H6T12370   3.776   2.574   2.788 -0.9766  0.6350 -0.3251
   9223SM   C7S12371   3.851   2.747   2.891 -0.2722 -0.0414 -0.0038
   9223SM   H7S12372   3.897   2.846   2.873  0.0214 -0.8769 -5.5815
   9223SM   H7T12373   3.915   2.678   2.950 -0.6191  0.5208  1.0513
   9223SM   C8S12374   3.724   2.766   2.980 -0.6565  0.6322 -0.9563
   9223SM   H8S12375   3.669   2.669   2.989  0.5184 -0.2918 -3.1077
   9223SM   H8T12376   3.660   2.847   2.940 -1.5335  0.8352  0.7413
   9223SM   C9S12377   3.771   2.804   3.121  0.2142  0.7028 -0.4579
   9223SM   H9S12378   3.839   2.892   3.118 -1.2640  1.9505  0.9530
   9223SM   H9T12379   3.825   2.719   3.169 -2.8050 -1.2862 -0.3141
   9223SM  C10S12380   3.661   2.825   3.223  0.7284  0.1026  0.7201
   9223SM  H10S12381   3.592   2.738   3.219  0.8358  0.0528 -0.4864
   9223SM  H10T12382   3.601   2.915   3.195 -1.4381 -1.7437 -0.9504
   9223SM  C11S12383   3.704   2.830   3.368  0.0637  0.1508  0.2129
   9223SM  H11S12384   3.784   2.907   3.376 -0.3867  0.4983  1.6774
   9223SM  H11T12385   3.761   2.735   3.381 -0.9314 -0.4800  0.0440
   9223SM  C12S12386   3.590   2.840   3.478  0.0125  0.5164  0.4018
   9223SM  H12S12387   3.535   2.745   3.493 -0.4124  0.9179  1.4750
   9223SM  H12T12388   3.510   2.912   3.450  0.6601  0.6577 -1.2424
   9223SM  C13S12389   3.650   2.866   3.614  0.4357 -0.2967 -0.0327
   9223SM  H13S12390   3.708   2.960   3.600 -0.4246 -0.2173 -4.5517
   9223SM  H13T12391   3.721   2.789   3.652 -0.4741 -0.4491  1.4080
   9223SM  C14S12392   3.540   2.885   3.716 -0.5378  0.2917 -0.4125
   9223SM  H14S12393   3.479   2.793   3.707  0.8607 -0.5374 -2.1967
   9223SM  H14T12394   3.465   2.965   3.698  0.8660  2.1163  1.4310
   9223SM  C15S12395   3.597   2.919   3.852 -0.8916 -0.2188 -0.1640
   9223SM  H15S12396   3.638   3.020   3.835 -1.8018  0.2617  0.4006
   9223SM  H15T12397   3.681   2.856   3.890 -1.8613 -1.2000  0.4424
   9223SM  C16S12398   3.494   2.952   3.963 -0.2984  0.0939  0.5794
   9223SM  H16S12399   3.426   2.866   3.981  0.6796 -0.7367  0.4109
   9223SM  H16T12400   3.431   3.037   3.931  1.1491  1.2214  0.6400
   9223SM  C17S12401   3.558   2.999   4.098  0.5115 -0.1571 -0.0604
   9223SM  H17S12402   3.613   3.095   4.084  1.2001 -0.1025  2.4442
   9223SM  H17T12403   3.629   2.922   4.134  0.7577  0.4535  0.7856
   9223SM  C18S12404   3.454   3.028   4.216  0.0119 -0.1146  0.0887
   9223SM  H18S12405   3.401   2.938   4.253  2.3803 -1.3455  0.6859
   9223SM  H18T12406   3.391   3.113   4.184 -1.0066 -0.4650  1.1281
   9223SM  H18U12407   3.505   3.059   4.310  0.0725  0.3539 -0.0939
   9223SM   C1F12408   3.287   2.903   2.863  0.6855  0.3650 -0.4162
   9223SM    OF12409   3.179   2.852   2.845  0.2592 -0.5473  0.5089
   9223SM   C2F12410   3.319   2.994   2.987 -0.1236 -0.8015  0.8213
   9223SM   H2F12411   3.251   3.082   2.990  1.5756  0.5454  1.0968
   9223SM   H2G12412   3.422   3.036   2.983 -0.6199  0.3801 -0.1866
   9223SM   C3F12413   3.298   2.916   3.119  0.6661  0.9012  0.1234
   9223SM   H3F12414   3.381   2.842   3.127 -1.2741 -1.2964  0.9172
   9223SM   H3G12415   3.199   2.866   3.125  2.2483 -2.4967  0.3696
   9223SM   C4F12416   3.304   3.018   3.231  0.0134  0.9993 -0.3221
   9223SM   H4F12417   3.276   3.119   3.194 -2.2020  0.4851 -0.2079
   9223SM   H4G12418   3.411   3.027   3.259 -0.0060  3.0761 -0.8101
   9223SM   C5F12419   3.208   2.991   3.351 -0.0586 -0.6533 -0.2015
   9223SM   H5F12420   3.229   2.900   3.410 -2.5472 -1.0638  0.1845
   9223SM   H5G12421   3.108   2.986   3.302 -0.1459  0.3237 -0.1509
   9223SM   C6F12422   3.200   3.099   3.460 -0.8236  0.3536  0.2474
   9223SM   H6F12423   3.204   3.193   3.400  0.0038 -0.7614 -1.5536
   9223SM   H6G12424   3.290   3.108   3.525 -1.5778  1.3963  1.1657
   9223SM   C7F12425   3.073   3.084   3.544  0.2598 -0.0651 -0.3121
   9223SM   H7F12426   3.049   2.981   3.579 -1.5507  1.0725  2.1073
   9223SM   H7G12427   2.992   3.108   3.473  0.1752  0.7205  0.0406
   9223SM   C8F12428   3.075   3.171   3.672 -0.2826  0.0344  0.6098
   9223SM   H8F12429   3.090   3.279   3.647 -0.2323 -0.1399 -0.1375
   9223SM   H8G12430   3.167   3.138   3.725 -0.2605 -2.6977 -0.9769
   9223SM   C9F12431   2.957   3.159   3.766  0.1795  0.4195 -0.5563
   9223SM   H9F12432   2.951   3.055   3.806  0.4090  1.4926  2.5555
   9223SM   H9G12433   2.865   3.182   3.708 -0.9327  0.7090  1.2460
   9223SM  C10F12434   2.973   3.256   3.885 -0.2928 -0.1592  0.0498
   9223SM  H10F12435   2.997   3.352   3.834  1.2202 -0.3420  0.3587
   9223SM  H10G12436   3.055   3.224   3.954 -0.7829 -2.6524 -0.4206
   9223SM  C11F12437   2.849   3.284   3.978 -0.0098  0.0124 -0.4810
   9223SM  H11F12438   2.836   3.199   4.047 -2.7138  0.1054 -0.7664
   9223SM  H11G12439   2.765   3.292   3.906 -0.5767  1.6265  0.2978
   9223SM  C12F12440   2.867   3.420   4.056 -0.2858  0.9487 -0.5423
   9223SM  H12F12441   2.765   3.431   4.098 -0.4025 -2.0755  0.1782
   9223SM  H12G12442   2.888   3.498   3.980  1.7681  1.3041  0.3163
   9223SM  C13F12443   2.982   3.407   4.158 -0.0969 -0.8198  0.2507
   9223SM  H13F12444   3.071   3.360   4.110 -1.2167 -0.6834 -2.0826
   9223SM  H13G12445   2.962   3.332   4.238  0.7774 -1.5179 -0.1684
   9223SM  C14F12446   3.027   3.549   4.211 -0.7725 -0.1929  0.4363
   9223SM  H14F12447   3.050   3.610   4.121 -1.6562  0.0649  0.3698
   9223SM  H14G12448   3.120   3.549   4.271 -1.2334  2.9576  1.2930
   9223SM  C15F12449   2.919   3.607   4.296 -0.5524  0.0450  0.2129
   9223SM  H15F12450   2.922   3.543   4.387  0.8961 -0.4534 -0.1672
   9223SM  H15G12451   2.819   3.587   4.252 -0.4778  1.0289 -0.4291
   9223SM  C16F12452   2.950   3.752   4.347  0.2497 -0.0564 -0.2031
   9223SM  H16F12453   2.856   3.796   4.388  0.9843 -1.1718  2.9934
   9223SM  H16G12454   2.970   3.813   4.257 -1.9013 -1.6743 -1.8960
   9223SM  C17F12455   3.052   3.747   4.465 -0.5824 -0.3146  0.2643
   9223SM  H17F12456   3.144   3.695   4.433  1.2117  1.7019  1.8031
   9223SM  H17G12457   3.009   3.689   4.550 -1.0488  1.0455  1.0034
   9223SM  C18F12458   3.096   3.892   4.504 -0.2766 -0.2819 -0.8007
   9223SM  H18F12459   3.002   3.945   4.531  0.4273  0.2373  0.7219
   9223SM  H18G12460   3.133   3.939   4.411  1.2659  0.4901  0.1564
   9223SM  C19F12461   3.189   3.903   4.624 -0.2489 -0.1180  0.2168
   9223SM  H19F12462   3.282   3.844   4.610 -0.2270  0.1670 -0.9371
   9223SM  H19G12463   3.140   3.855   4.712 -1.3598 -1.4463 -1.0685
   9223SM  C20F12464   3.246   4.042   4.655 -0.1095 -0.7528 -0.7171
   9223SM  H20F12465   3.163   4.096   4.704 -1.2571 -1.4760 -1.8253
   9223SM  H20G12466   3.275   4.108   4.570  1.1286  1.7330  1.5069
   9223SM  C21F12467   3.374   4.031   4.747 -0.7587  0.1738 -0.1137
   9223SM  H21F12468   3.373   3.946   4.818  0.9449 -0.0998 -0.3706
   9223SM  H21G12469   3.364   4.117   4.817 -1.7899  1.9211 -2.2811
   9223SM  C22F12470   3.504   4.037   4.665  0.5874 -0.0527  0.2350
   9223SM  H22F12471   3.486   4.090   4.569  0.1947 -1.6629 -0.6152
   9223SM  H22G12472   3.525   3.930   4.644  0.3602  0.1679 -1.1958
   9223SM  C23F12473   3.621   4.103   4.748 -0.3387 -0.7613 -0.8087
   9223SM  H23F12474   3.584   4.204   4.776  0.6490  0.1745 -2.7045
   9223SM  H23G12475   3.702   4.105   4.672  0.7315  0.9391  0.3206
   9223SM  H23H12476   3.641   4.048   4.842 -0.9137  2.0299  1.0428
   9323SM     N12477   5.261   4.452   2.078  0.2056 -0.5791  0.4937
   9323SM   C1512478   5.332   4.544   1.977  0.5630  0.1562  0.1268
   9323SM  H15A12479   5.424   4.589   2.010 -0.1445  1.6646  0.1562
   9323SM  H15B12480   5.265   4.617   1.933 -1.0076 -1.3035  0.0056
   9323SM  H15C12481   5.367   4.480   1.898  1.1984  1.2375 -0.4934
   9323SM   C1412482   5.195   4.545   2.180 -0.5098 -0.1592  0.1527
   9323SM  H14A12483   5.128   4.613   2.130  1.7201  1.1991 -1.1931
   9323SM  H14B12484   5.274   4.602   2.226  0.3055 -2.4325  1.7802
   9323SM  H14C12485   5.135   4.492   2.253  0.1851 -1.5233 -0.2292
   9323SM   C1312486   5.146   4.380   2.009 -0.6301 -0.2629  0.0986
   9323SM  H13A12487   5.083   4.453   1.960  1.4492  1.8918  0.4317
   9323SM  H13B12488   5.085   4.321   2.075 -1.4039  1.2278  0.7721
   9323SM  H13C12489   5.180   4.313   1.932 -1.5506 -1.5174  0.7610
   9323SM   C1212490   5.357   4.355   2.150 -0.7335 -0.3351  0.4457
   9323SM  H12A12491   5.398   4.290   2.074 -2.5218 -1.8941  0.7447
   9323SM  H12B12492   5.293   4.284   2.202  1.6340 -0.0988  4.0430
   9323SM   C1112493   5.475   4.415   2.229 -0.0486 -0.2402  0.2641
   9323SM  H11A12494   5.510   4.327   2.287 -0.6136 -0.7641 -0.1628
   9323SM  H11B12495   5.444   4.494   2.300 -2.2396 -0.0796 -0.7980
   9323SM     P12496   5.659   4.383   2.049  0.3150 -0.7164 -0.4714
   9323SM   O1312497   5.570   4.298   1.964 -0.4619 -0.4651  0.3703
   9323SM   O1412498   5.760   4.470   1.975 -0.2992  0.7150  0.5526
   9323SM   O1112499   5.735   4.296   2.155  0.0729 -0.0500 -0.0763
   9323SM   O1212500   5.573   4.474   2.143 -0.0282  0.9013 -0.5800
   9323SM   C1S12501   5.861   4.337   2.204 -0.5178 -0.2943 -0.6860
   9323SM   H1S12502   5.884   4.444   2.181 -0.4491 -0.1031  0.2425
   9323SM   H1T12503   5.952   4.279   2.177 -0.3859 -0.2869 -0.2671
   9323SM    NF12504   5.987   4.389   2.413 -0.2033 -0.3551  0.1297
   9323SM   HNF12505   6.035   4.323   2.469  0.3058  1.0750  1.4394
   9323SM   C2S12506   5.864   4.342   2.361 -0.6146  0.0957 -0.4144
   9323SM   H2S12507   5.792   4.417   2.401 -1.2949 -0.6500 -0.2138
   9323SM   C3S12508   5.829   4.201   2.421  0.3885  0.4535  0.1984
   9323SM   H3S12509   5.921   4.141   2.402 -0.2045 -0.1322 -0.9816
   9323SM    O312510   5.726   4.123   2.357  0.0675 -0.2642 -0.0410
   9323SM   HO312511   5.687   4.180   2.291 -1.0165 -4.1730 -3.1679
   9323SM   C4S12512   5.805   4.224   2.572  0.0064 -0.1114  0.6064
   9323SM   H4S12513   5.889   4.188   2.633 -0.3985 -0.3611  1.0286
   9323SM   C5S12514   5.687   4.242   2.631  0.2211 -1.1964 -0.7081
   9323SM   H5S12515   5.595   4.224   2.573  1.1603 -0.6574 -2.4237
   9323SM   C6S12516   5.685   4.261   2.778  0.2854  0.1463  0.0327
   9323SM   H6S12517   5.585   4.298   2.809  0.1155  1.1655 -1.6621
   9323SM   H6T12518   5.762   4.331   2.817  1.6579 -0.1176 -2.0868
   9323SM   C7S12519   5.690   4.133   2.857  0.4850 -0.5657  0.1098
   9323SM   H7S12520   5.788   4.082   2.843  0.6987  0.1428 -1.1796
   9323SM   H7T12521   5.617   4.056   2.825  0.2271 -0.2751 -0.0049
   9323SM   C8S12522   5.667   4.154   3.012  0.1400  0.5450 -0.4560
   9323SM   H8S12523   5.559   4.166   3.034  0.5489  0.3774  1.9067
   9323SM   H8T12524   5.716   4.250   3.037  0.0633  1.0191 -2.0157
   9323SM   C9S12525   5.729   4.036   3.089 -0.3931 -0.1118 -0.7046
   9323SM   H9S12526   5.836   4.029   3.061 -0.4752 -1.3899 -0.7498
   9323SM   H9T12527   5.672   3.943   3.064  1.1452 -1.7081  1.3068
   9323SM  C10S12528   5.708   4.050   3.241  0.4197  0.3791 -0.5873
   9323SM  H10S12529   5.726   4.157   3.267  1.9014 -0.3053  1.5036
   9323SM  H10T12530   5.781   3.989   3.299  1.6086  1.5012 -0.8427
   9323SM  C11S12531   5.568   4.003   3.290 -0.8532  0.0603  0.1570
   9323SM  H11S12532   5.568   3.892   3.278 -0.1177  0.3014 -2.8613
   9323SM  H11T12533   5.483   4.059   3.245 -1.6172 -0.1772  1.2596
   9323SM  C12S12534   5.558   4.025   3.441 -0.3848  0.2006  0.1390
   9323SM  H12S12535   5.530   4.131   3.461  0.1650  0.4107 -0.1509
   9323SM  H12T12536   5.659   4.006   3.484 -1.1933 -1.9965  1.2080
   9323SM  C13S12537   5.449   3.947   3.521  0.0242 -0.2338  0.6899
   9323SM  H13S12538   5.482   3.841   3.518 -1.1718 -0.6475  1.3612
   9323SM  H13T12539   5.341   3.950   3.495 -0.2925 -2.6892  1.4594
   9323SM  C14S12540   5.462   3.991   3.668 -0.0572 -0.0775  0.5773
   9323SM  H14S12541   5.383   4.069   3.679 -0.8744 -0.8778  0.5409
   9323SM  H14T12542   5.558   4.036   3.701 -0.6175 -0.2556  2.5816
   9323SM  C15S12543   5.400   3.888   3.763  0.6496  0.0871  0.0754
   9323SM  H15S12544   5.325   3.819   3.720  0.5400 -0.3294  0.9057
   9323SM  H15T12545   5.486   3.827   3.797  1.8293  0.1053 -2.6368
   9323SM  C16S12546   5.316   3.948   3.883 -0.4150 -0.5706  0.1156
   9323SM  H16S12547   5.290   3.868   3.956 -1.6395 -0.4702 -0.1877
   9323SM  H16T12548   5.229   4.000   3.837  1.0003  0.3147 -1.6933
   9323SM  C17S12549   5.387   4.047   3.976 -0.2990  0.3878  0.0463
   9323SM  H17S12550   5.392   4.147   3.928  1.1009  0.0400 -0.5682
   9323SM  H17T12551   5.490   4.013   3.999 -0.6173 -1.0079 -0.4578
   9323SM  C18S12552   5.315   4.057   4.108  0.0924  0.1217 -0.5862
   9323SM  H18S12553   5.320   3.962   4.165  0.6926 -0.3622 -1.4348
   9323SM  H18T12554   5.208   4.078   4.091  0.0991  0.0483 -0.7191
   9323SM  H18U12555   5.368   4.136   4.167  0.2972  0.3128 -1.0223
   9323SM   C1F12556   6.029   4.511   2.400 -0.4797 -0.3922  0.2755
   9323SM    OF12557   5.973   4.602   2.348  0.2975 -0.1206 -0.2561
   9323SM   C2F12558   6.164   4.538   2.451 -1.0150 -0.5101 -0.4374
   9323SM   H2F12559   6.199   4.627   2.393 -0.1914  0.3387  1.2823
   9323SM   H2G12560   6.229   4.449   2.443 -1.2939 -1.0543  2.4039
   9323SM   C3F12561   6.162   4.584   2.598  0.3890  0.3007  1.2302
   9323SM   H3F12562   6.126   4.689   2.595 -0.9201 -0.1532 -0.0155
   9323SM   H3G12563   6.269   4.590   2.629  0.9882 -3.9919  0.5189
   9323SM   C4F12564   6.084   4.502   2.695  0.7240  0.3088 -0.2206
   9323SM   H4F12565   6.089   4.397   2.660 -2.5401  0.2689 -0.8486
   9323SM   H4G12566   5.978   4.533   2.701  0.2436 -1.5119  1.4198
   9323SM   C5F12567   6.156   4.493   2.824 -0.1381  0.1374  0.2125
   9323SM   H5F12568   6.193   4.591   2.862  0.5070  0.5594 -1.4378
   9323SM   H5G12569   6.248   4.435   2.799  0.7203  1.9549 -1.0721
   9323SM   C6F12570   6.085   4.405   2.935  0.4850  0.0802  0.4455
   9323SM   H6F12571   6.049   4.306   2.900 -0.5649  1.2175 -1.9666
   9323SM   H6G12572   5.997   4.466   2.964  0.7033 -0.2216  1.7784
   9323SM   C7F12573   6.168   4.390   3.065  0.5268  0.0679  0.4477
   9323SM   H7F12574   6.246   4.312   3.056  2.2804  1.7201  0.8409
   9323SM   H7G12575   6.104   4.340   3.141 -1.6872  1.1716 -0.5750
   9323SM   C8F12576   6.221   4.525   3.123  0.0451 -0.2409 -0.3892
   9323SM   H8F12577   6.142   4.601   3.137  2.8801  2.7962  0.4835
   9323SM   H8G12578   6.288   4.576   3.050 -1.2329  0.1760 -1.3074
   9323SM   C9F12579   6.290   4.510   3.261 -0.0709  0.0000  0.0685
   9323SM   H9F12580   6.394   4.470   3.253 -0.7584 -2.1455  1.2237
   9323SM   H9G12581   6.232   4.437   3.320 -0.2069  1.2288  1.5317
   9323SM  C10F12582   6.288   4.641   3.341  0.2256 -0.2011 -0.7277
   9323SM  H10F12583   6.184   4.668   3.369 -0.3711 -0.7124 -2.3597
   9323SM  H10G12584   6.318   4.726   3.275 -1.7388 -0.9989 -2.7322
   9323SM  C11F12585   6.356   4.627   3.480  0.0372  0.2880  0.7714
   9323SM  H11F12586   6.313   4.538   3.530 -0.5666  1.0696  1.6787
   9323SM  H11G12587   6.331   4.710   3.550  1.2348  0.3981  1.0947
   9323SM  C12F12588   6.514   4.630   3.475  0.0116  0.1064 -0.0323
   9323SM  H12F12589   6.543   4.724   3.424  0.0968  0.7416  1.1284
   9323SM  H12G12590   6.544   4.544   3.412 -1.0985  0.3267 -0.8817
   9323SM  C13F12591   6.571   4.632   3.615 -0.4689 -0.2578 -0.3371
   9323SM  H13F12592   6.523   4.549   3.670  0.8353 -0.5103  0.4747
   9323SM  H13G12593   6.552   4.725   3.673  2.1144 -0.7452  1.4749
   9323SM  C14F12594   6.717   4.610   3.616  0.6685  0.1789  0.9227
   9323SM  H14F12595   6.764   4.700   3.571  2.5512 -0.9748  0.4728
   9323SM  H14G12596   6.741   4.524   3.551 -0.2174 -0.7211  1.7497
   9323SM  C15F12597   6.778   4.562   3.756  0.0113 -0.8075 -0.7031
   9323SM  H15F12598   6.888   4.552   3.750  0.0836  0.7476 -3.7737
   9323SM  H15G12599   6.732   4.466   3.789  0.2021 -1.2041 -1.5613
   9323SM  C16F12600   6.745   4.672   3.859  0.5096 -0.4005 -0.3854
   9323SM  H16F12601   6.635   4.684   3.871  0.7102 -0.5640  2.1442
   9323SM  H16G12602   6.794   4.764   3.820  0.3227 -1.2815 -2.8015
   9323SM  C17F12603   6.798   4.639   4.000  0.0771  0.4967  0.2475
   9323SM  H17F12604   6.906   4.627   3.979 -0.1502 -0.7529 -0.3174
   9323SM  H17G12605   6.755   4.541   4.031  1.5022  0.3729  2.0002
   9323SM  C18F12606   6.772   4.750   4.102  0.1775  0.2696 -0.1242
   9323SM  H18F12607   6.811   4.720   4.202 -0.8682 -0.1338  0.1768
   9323SM  H18G12608   6.664   4.763   4.123  0.4663  1.0385  1.0102
   9323SM  C19F12609   6.830   4.886   4.058 -0.3778  0.4198 -0.2649
   9323SM  H19F12610   6.776   4.918   3.966  0.8742  0.8582 -0.8725
   9323SM  H19G12611   6.933   4.870   4.019 -1.1712 -1.2385 -1.8191
   9323SM  C20F12612   6.820   4.997   4.160 -0.5712  0.2135 -0.2243
   9323SM  H20F12613   6.859   4.956   4.256 -3.1724  0.9171  1.2212
   9323SM  H20G12614   6.714   5.019   4.184 -0.7297  1.2319 -1.7414
   9323SM  C21F12615   6.895   5.129   4.127 -0.0598 -0.4827  0.5308
   9323SM  H21F12616   6.993   5.101   4.083 -0.0923 -0.9351  0.7425
   9323SM  H21G12617   6.925   5.193   4.214 -1.3723  0.7953  0.0811
   9323SM  C22F12618   6.818   5.220   4.026  0.5152 -0.1313  0.7633
   9323SM  H22F12619   6.735   5.276   4.075  0.1744 -0.1468  0.2193
   9323SM  H22G12620   6.774   5.155   3.947 -0.1698 -0.1719  1.1714
   9323SM  C23F12621   6.911   5.315   3.949 -0.6023 -0.3968  0.1924
   9323SM  H23F12622   6.923   5.399   4.021 -0.0014 -1.2084  1.0646
   9323SM  H23G12623   6.865   5.343   3.852 -1.0983 -1.8973 -0.0310
   9323SM  H23H12624   7.008   5.265   3.929 -0.5012 -0.5075  0.9231
   9423SM     N12625   6.324   0.524   1.796 -0.0583  0.4861 -0.0489
   9423SM   C1512626   6.463   0.517   1.731 -0.0017 -0.5350 -0.3778
   9423SM  H15A12627   6.516   0.429   1.765  0.1406 -1.6176 -3.1392
   9423SM  H15B12628   6.523   0.606   1.737  1.6132 -1.6817  1.8031
   9423SM  H15C12629   6.449   0.499   1.625 -0.0567 -3.5864  0.0495
   9423SM   C1412630   6.344   0.560   1.941 -0.2356  0.1532 -0.3127
   9423SM  H14A12631   6.254   0.586   1.993 -0.4713  0.7691 -1.0106
   9423SM  H14B12632   6.409   0.646   1.952 -0.2697  0.2190 -0.6189
   9423SM  H14C12633   6.382   0.473   1.993  0.7667 -1.0690 -2.8797
   9423SM   C1312634   6.250   0.638   1.735 -0.0241 -0.3800 -0.3523
   9423SM  H13A12635   6.233   0.633   1.628  1.7684  0.6757 -0.7343
   9423SM  H13B12636   6.313   0.725   1.748 -0.2229 -0.2068 -0.5192
   9423SM  H13C12637   6.155   0.645   1.787  0.4189 -0.0748  0.4327
   9423SM   C1212638   6.255   0.395   1.778  0.1193  0.0830 -0.3017
   9423SM  H12A12639   6.242   0.381   1.672  0.3474  1.9487 -0.6214
   9423SM  H12B12640   6.155   0.401   1.818 -0.6128 -0.7339 -1.9046
   9423SM   C1112641   6.327   0.269   1.829  0.1882 -0.0820  0.7685
   9423SM  H11A12642   6.254   0.186   1.812  0.1543  0.2257 -0.7630
   9423SM  H11B12643   6.354   0.273   1.936  1.7696 -1.2521  0.4474
   9423SM     P12644   6.524   0.106   1.791  0.4347  0.0804  0.0757
   9423SM   O1312645   6.434  -0.003   1.749 -0.7579  0.6346  0.3371
   9423SM   O1412646   6.655   0.114   1.720  0.2924 -0.1226 -0.2025
   9423SM   O1112647   6.547   0.097   1.947  0.6802  0.3830  0.8286
   9423SM   O1212648   6.447   0.240   1.761  0.8605 -0.2881 -0.1168
   9423SM   C1S12649   6.604   0.198   2.026  0.3178  0.4660 -0.1863
   9423SM   H1S12650   6.560   0.297   2.002 -0.8163 -0.0567 -0.3028
   9423SM   H1T12651   6.713   0.205   2.005  0.7040 -1.1210  1.0961
   9423SM    NF12652   6.618   0.314   2.234 -0.2979 -0.5245 -0.2685
   9423SM   HNF12653   6.700   0.331   2.288 -0.1876  1.8700 -1.0586
   9423SM   C2S12654   6.584   0.178   2.183  0.0797 -0.4579 -0.2429
   9423SM   H2S12655   6.478   0.148   2.203  0.2412 -1.4098 -0.7576
   9423SM   C3S12656   6.681   0.068   2.233  0.0194  0.6868  0.2209
   9423SM   H3S12657   6.784   0.105   2.212  1.1634 -0.7186  2.8998
   9423SM    O312658   6.661  -0.055   2.161  0.0700  0.2961 -0.6238
   9423SM   HO312659   6.630  -0.015   2.079 -1.5401 -0.6767 -0.5360
   9423SM   C4S12660   6.664   0.043   2.379  0.5675 -0.2679  0.8202
   9423SM   H4S12661   6.561   0.012   2.401  1.1379 -2.5361  0.5470
   9423SM   C5S12662   6.748   0.058   2.483 -0.3324 -0.5553  0.0370
   9423SM   H5S12663   6.851   0.093   2.467 -0.0714 -0.6221  1.4576
   9423SM   C6S12664   6.705   0.032   2.627 -0.3110  0.2046  0.5649
   9423SM   H6S12665   6.615  -0.033   2.625  0.7979 -1.3591 -1.1387
   9423SM   H6T12666   6.661   0.122   2.675 -0.2353  1.4262 -1.5488
   9423SM   C7S12667   6.806  -0.029   2.725 -0.5625 -0.6790  0.0060
   9423SM   H7S12668   6.894   0.037   2.736 -1.4207  0.4296  0.3777
   9423SM   H7T12669   6.853  -0.122   2.687  0.9874  0.6909 -1.6094
   9423SM   C8S12670   6.743  -0.063   2.859 -0.3377  0.3832 -0.5900
   9423SM   H8S12671   6.677  -0.150   2.839 -0.2533  0.5192 -1.5206
   9423SM   H8T12672   6.677   0.018   2.899 -2.1811 -1.1265 -0.4146
   9423SM   C9S12673   6.850  -0.094   2.963 -0.2943  0.3544 -0.4431
   9423SM   H9S12674   6.919  -0.006   2.962  0.0563  0.0720 -1.0359
   9423SM   H9T12675   6.902  -0.190   2.944  0.9614 -0.0143  3.7157
   9423SM  C10S12676   6.800  -0.107   3.102  0.1753  0.8412  0.7349
   9423SM  H10S12677   6.760  -0.012   3.142 -0.2616  1.2944 -0.6926
   9423SM  H10T12678   6.886  -0.148   3.160 -0.2777  0.5354  1.1946
   9423SM  C11S12679   6.688  -0.205   3.114  0.4242 -0.2695 -0.0764
   9423SM  H11S12680   6.696  -0.275   3.029  0.3394 -2.2555  1.4665
   9423SM  H11T12681   6.599  -0.140   3.099  1.7989  2.0581  1.2796
   9423SM  C12S12682   6.682  -0.273   3.255 -0.4736 -0.1156 -0.8132
   9423SM  H12S12683   6.780  -0.322   3.270 -0.5605  0.0527  0.3730
   9423SM  H12T12684   6.613  -0.360   3.261  0.3608 -0.6738  2.2767
   9423SM  C13S12685   6.646  -0.173   3.373  0.6736  0.1091  0.1007
   9423SM  H13S12686   6.542  -0.137   3.354  1.0997  1.0858 -0.4397
   9423SM  H13T12687   6.712  -0.086   3.355 -0.7315  0.9207 -1.4959
   9423SM  C14S12688   6.668  -0.215   3.520  0.0236  0.5885 -0.1339
   9423SM  H14S12689   6.777  -0.221   3.540 -0.4473 -3.0709  2.2881
   9423SM  H14T12690   6.623  -0.312   3.547 -1.7364  2.0778  2.8077
   9423SM  C15S12691   6.594  -0.115   3.616 -0.4312  0.0773 -0.4205
   9423SM  H15S12692   6.484  -0.109   3.601 -0.5909 -1.3755  0.0122
   9423SM  H15T12693   6.643  -0.016   3.606  0.7464 -0.4239  0.2273
   9423SM  C16S12694   6.608  -0.145   3.768 -0.0782 -0.3446 -0.0117
   9423SM  H16S12695   6.715  -0.145   3.798 -0.1715 -2.3671  0.4823
   9423SM  H16T12696   6.560  -0.243   3.788 -1.4692 -0.1847 -2.1992
   9423SM  C17S12697   6.543  -0.036   3.860  0.1210  0.2233  0.3482
   9423SM  H17S12698   6.602   0.058   3.849 -0.6362  0.4862 -2.3352
   9423SM  H17T12699   6.550  -0.067   3.966  2.4213  0.5434  0.3336
   9423SM  C18S12700   6.401   0.001   3.813 -0.2671  0.2774 -0.6355
   9423SM  H18S12701   6.355   0.076   3.881  0.8531 -0.3693  0.8924
   9423SM  H18T12702   6.334  -0.086   3.805 -1.1894  0.8329  0.7410
   9423SM  H18U12703   6.398   0.049   3.713 -0.7665 -0.1401 -0.8183
   9423SM   C1F12704   6.536   0.419   2.222  0.4917  0.0942 -0.2508
   9423SM    OF12705   6.425   0.404   2.171 -0.1091  0.2169 -0.6435
   9423SM   C2F12706   6.583   0.553   2.278  0.4594 -0.2636 -0.0961
   9423SM   H2F12707   6.571   0.616   2.187  0.3110 -1.9771 -1.3321
   9423SM   H2G12708   6.693   0.543   2.293  0.3481  0.4568  1.2566
   9423SM   C3F12709   6.488   0.601   2.388  0.2561  0.3112 -0.6792
   9423SM   H3F12710   6.384   0.583   2.354  0.7388 -1.8785 -1.1053
   9423SM   H3G12711   6.509   0.710   2.399 -0.0090  0.2764  0.3220
   9423SM   C4F12712   6.508   0.533   2.521  0.9933  0.0642 -1.3406
   9423SM   H4F12713   6.613   0.531   2.556 -0.0075 -0.5053  2.0115
   9423SM   H4G12714   6.479   0.426   2.508  2.1439 -0.2830 -1.1498
   9423SM   C5F12715   6.429   0.599   2.637 -0.4525 -0.5690 -0.5650
   9423SM   H5F12716   6.319   0.589   2.627 -0.9929  2.0237  1.6472
   9423SM   H5G12717   6.456   0.707   2.636 -0.1169 -0.6360  0.6210
   9423SM   C6F12718   6.469   0.545   2.776  0.0363  0.1745 -0.1525
   9423SM   H6F12719   6.566   0.590   2.805  0.2053  0.6399 -1.3788
   9423SM   H6G12720   6.482   0.435   2.762  1.8549  0.6159 -2.5695
   9423SM   C7F12721   6.366   0.580   2.885  0.1432  0.3322  0.3993
   9423SM   H7F12722   6.265   0.533   2.877  0.5739 -0.8986  1.7759
   9423SM   H7G12723   6.342   0.688   2.874  0.7540  0.2559 -2.3125
   9423SM   C8F12724   6.418   0.529   3.022 -0.4381 -0.3042 -0.7821
   9423SM   H8F12725   6.511   0.585   3.047 -0.1712 -1.5307  1.1309
   9423SM   H8G12726   6.439   0.420   3.023  2.1019  0.1025 -1.3725
   9423SM   C9F12727   6.324   0.579   3.133 -0.4107 -0.1893  0.0509
   9423SM   H9F12728   6.227   0.531   3.107 -1.1291  1.4721 -0.4089
   9423SM   H9G12729   6.295   0.686   3.138  0.0880 -0.0944  2.7854
   9423SM  C10F12730   6.375   0.535   3.269 -0.4337  0.3782 -0.3471
   9423SM  H10F12731   6.477   0.577   3.285 -0.7144  0.8005  0.4102
   9423SM  H10G12732   6.372   0.424   3.277 -0.5087  0.4220  0.3638
   9423SM  C11F12733   6.290   0.600   3.379 -0.7716 -0.4451  0.0899
   9423SM  H11F12734   6.183   0.594   3.347 -1.3184  2.2685  1.1063
   9423SM  H11G12735   6.307   0.710   3.386 -0.0829 -0.5523  0.1792
   9423SM  C12F12736   6.307   0.541   3.520 -0.0061  0.0912 -0.3241
   9423SM  H12F12737   6.402   0.576   3.565 -0.1865  0.8148 -0.4815
   9423SM  H12G12738   6.331   0.435   3.499  1.2229  0.5193 -1.2052
   9423SM  C13F12739   6.197   0.574   3.613 -0.2650 -0.2723  0.1993
   9423SM  H13F12740   6.128   0.652   3.575 -1.3912 -1.3293  0.0048
   9423SM  H13G12741   6.233   0.613   3.711  0.8751 -0.6555 -0.0437
   9423SM  C14F12742   6.113   0.451   3.650  0.0002  0.5118 -0.2580
   9423SM  H14F12743   6.076   0.411   3.553 -1.2165 -0.6129  0.6423
   9423SM  H14G12744   6.026   0.487   3.707  0.2734  0.8589 -0.0559
   9423SM  C15F12745   6.175   0.335   3.724  0.1657 -0.3581  0.3669
   9423SM  H15F12746   6.273   0.305   3.681 -0.9225 -1.5895 -1.3592
   9423SM  H15G12747   6.115   0.242   3.721 -0.4144 -0.0070  0.7144
   9423SM  C16F12748   6.215   0.378   3.867 -0.3375  0.4358  0.1997
   9423SM  H16F12749   6.255   0.482   3.863  1.2121 -0.1359  0.0320
   9423SM  H16G12750   6.294   0.316   3.916 -0.8758  0.2348  0.8283
   9423SM  C17F12751   6.101   0.376   3.965  0.8622 -0.4658 -0.1072
   9423SM  H17F12752   6.056   0.275   3.971 -0.0835 -0.2714 -2.8879
   9423SM  H17G12753   6.026   0.449   3.929 -0.8301  0.4152  4.4817
   9423SM  C18F12754   6.138   0.424   4.101 -0.4535 -0.0076 -0.0462
   9423SM  H18F12755   6.177   0.528   4.094  0.1244 -0.2717 -1.0322
   9423SM  H18G12756   6.209   0.346   4.138  1.8488  1.2746 -1.5217
   9423SM  C19F12757   6.022   0.432   4.200 -0.2130  0.6328 -0.1384
   9423SM  H19F12758   6.054   0.486   4.291 -0.3709  0.8435 -0.2063
   9423SM  H19G12759   5.977   0.333   4.220  1.1398 -0.0825 -0.5452
   9423SM  C20F12760   5.911   0.522   4.145 -0.3736  0.2238 -0.2444
   9423SM  H20F12761   5.871   0.481   4.050 -1.7092  1.0337 -0.0466
   9423SM  H20G12762   5.963   0.618   4.124  0.6852  0.4532  2.8536
   9423SM  C21F12763   5.790   0.550   4.239  0.3570  0.1529  0.1716
   9423SM  H21F12764   5.699   0.579   4.183  0.3781  0.7602  0.4495
   9423SM  H21G12765   5.821   0.626   4.314 -0.1800  1.5866 -1.0170
   9423SM  C22F12766   5.743   0.426   4.317  0.3815  0.7940  0.0149
   9423SM  H22F12767   5.655   0.446   4.382  0.9041 -0.1062  1.0106
   9423SM  H22G12768   5.825   0.398   4.386 -0.3846  0.9443  1.0139
   9423SM  C23F12769   5.696   0.302   4.245  0.3373  0.5093  0.1827
   9423SM  H23F12770   5.660   0.231   4.321  2.2062  0.8489  1.4561
   9423SM  H23G12771   5.776   0.254   4.184 -0.5927 -1.0090  0.0982
   9423SM  H23H12772   5.618   0.333   4.172  0.1922 -2.0702 -0.8618
   9523SM     N12773   1.830   1.833   2.775  0.3742 -0.1317  0.1623
   9523SM   C1512774   1.869   1.863   2.914 -0.3376  0.0947 -0.1368
   9523SM  H15A12775   1.935   1.948   2.918 -0.1083 -0.0177 -1.1686
   9523SM  H15B12776   1.917   1.775   2.955 -0.7215  0.1109  0.3526
   9523SM  H15C12777   1.781   1.875   2.975  0.5918  0.8527  1.0940
   9523SM   C1412778   1.944   1.787   2.686 -0.4113 -0.1545  0.3155
   9523SM  H14A12779   2.036   1.838   2.712 -0.9794  0.2635  1.5734
   9523SM  H14B12780   1.919   1.790   2.581 -1.8725 -0.3732  0.6358
   9523SM  H14C12781   1.960   1.682   2.706 -0.0009 -0.0777  0.3908
   9523SM   C1312782   1.736   1.713   2.775 -0.0454  0.1238 -0.0403
   9523SM  H13A12783   1.644   1.747   2.822 -0.4915 -1.3013  0.1779
   9523SM  H13B12784   1.765   1.624   2.830  0.3194  0.7261  0.7685
   9523SM  H13C12785   1.702   1.689   2.675  0.0088  0.4214 -0.1293
   9523SM   C1212786   1.770   1.961   2.716 -0.5474 -0.3083 -0.5314
   9523SM  H12A12787   1.719   1.929   2.626  0.0871  1.6589 -1.6611
   9523SM  H12B12788   1.848   2.029   2.686 -1.6923  1.8918  1.1859
   9523SM   C1112789   1.659   2.037   2.803  0.7888  0.1521 -0.2299
   9523SM  H11A12790   1.628   2.137   2.765  1.6697  0.5643  0.1094
   9523SM  H11B12791   1.713   2.066   2.896 -3.9644  0.5341  2.7845
   9523SM     P12792   1.420   1.918   2.774 -0.2993  0.1677 -0.0213
   9523SM   O1312793   1.450   1.918   2.631  0.3692 -0.1647 -0.2449
   9523SM   O1412794   1.349   1.799   2.828 -0.2486  0.3068  0.6274
   9523SM   O1112795   1.341   2.052   2.814  0.2299  0.0860 -0.3321
   9523SM   O1212796   1.555   1.952   2.854  0.2617 -0.7565 -0.7869
   9523SM   C1S12797   1.242   2.055   2.919 -0.1162 -0.3271 -0.2369
   9523SM   H1S12798   1.181   1.963   2.912  0.2477 -0.9145  2.7108
   9523SM   H1T12799   1.177   2.144   2.905 -0.7276 -0.5469  0.9961
   9523SM    NF12800   1.179   2.049   3.149  0.6805 -0.2809 -0.4310
   9523SM   HNF12801   1.154   2.140   3.179  1.3162 -0.7356  1.6083
   9523SM   C2S12802   1.290   2.057   3.063 -0.7591  0.5504  0.2575
   9523SM   H2S12803   1.351   1.966   3.085 -0.3729  0.6996 -0.1788
   9523SM   C3S12804   1.375   2.189   3.085  0.7664  0.1731  0.2106
   9523SM   H3S12805   1.306   2.276   3.079 -0.0756 -0.2354  2.8558
   9523SM    O312806   1.479   2.213   2.992 -0.0547  0.6343  0.9365
   9523SM   HO312807   1.464   2.159   2.914 -0.4982  2.7915 -0.5745
   9523SM   C4S12808   1.437   2.190   3.220 -0.0825 -0.7278 -0.6176
   9523SM   H4S12809   1.512   2.113   3.245  0.5962  0.7398  2.4014
   9523SM   C5S12810   1.393   2.274   3.325 -0.0481  0.5949 -0.3559
   9523SM   H5S12811   1.305   2.335   3.298 -1.1509 -1.0131 -0.5768
   9523SM   C6S12812   1.435   2.293   3.469 -0.1193  0.0661 -0.0993
   9523SM   H6S12813   1.374   2.225   3.533  1.7037 -0.8382  0.7394
   9523SM   H6T12814   1.433   2.398   3.506 -1.2195 -0.2954  0.9562
   9523SM   C7S12815   1.572   2.246   3.510 -0.5157  0.2142  0.2318
   9523SM   H7S12816   1.649   2.273   3.434  0.0843  0.2249  0.8402
   9523SM   H7T12817   1.564   2.137   3.524  0.0984  0.0593 -0.5321
   9523SM   C8S12818   1.614   2.313   3.643  0.1640 -0.0039  0.2389
   9523SM   H8S12819   1.589   2.421   3.630 -1.4957 -0.4223 -0.3696
   9523SM   H8T12820   1.723   2.301   3.659 -0.0441 -0.8719  1.0915
   9523SM   C9S12821   1.531   2.270   3.764  0.2138  0.9277  0.2823
   9523SM   H9S12822   1.533   2.159   3.766  1.9754  0.9327  0.4676
   9523SM   H9T12823   1.430   2.316   3.761  1.1200  3.0025 -0.1278
   9523SM  C10S12824   1.602   2.302   3.899  0.2640 -0.3079 -0.8837
   9523SM  H10S12825   1.632   2.408   3.887  0.4170 -0.0888  1.1016
   9523SM  H10T12826   1.694   2.241   3.887 -0.1490 -1.1195 -0.0224
   9523SM  C11S12827   1.519   2.278   4.028  0.8862 -0.4231  0.0007
   9523SM  H11S12828   1.495   2.170   4.019  0.3361 -0.2000 -1.5236
   9523SM  H11T12829   1.427   2.340   4.015  1.5030  0.1632 -1.8825
   9523SM  C12S12830   1.592   2.313   4.159  0.6045 -0.3412 -0.3128
   9523SM  H12S12831   1.635   2.415   4.158  0.6148 -0.2910  1.7406
   9523SM  H12T12832   1.671   2.236   4.164 -0.5205 -1.4635  1.5556
   9523SM  C13S12833   1.509   2.286   4.281 -0.4009 -0.0627  0.0189
   9523SM  H13S12834   1.448   2.196   4.259  1.4027 -1.4464  0.4052
   9523SM  H13T12835   1.450   2.378   4.301 -0.8285 -0.4047  0.3386
   9523SM  C14S12836   1.593   2.245   4.399  0.6226 -0.8216 -0.6995
   9523SM  H14S12837   1.639   2.149   4.366  0.5316 -0.4405 -1.9829
   9523SM  H14T12838   1.527   2.227   4.486  1.9749  0.6759  0.7024
   9523SM  C15S12839   1.692   2.346   4.447  0.6172 -0.3634 -0.3406
   9523SM  H15S12840   1.646   2.446   4.458  2.5774  0.6109 -0.5407
   9523SM  H15T12841   1.762   2.358   4.362 -1.6618  0.1660 -2.2668
   9523SM  C16S12842   1.764   2.310   4.571  0.1799 -1.0501  0.4170
   9523SM  H16S12843   1.698   2.271   4.651 -1.0866 -0.3088 -0.2311
   9523SM  H16T12844   1.818   2.400   4.607 -2.0454  1.0617 -1.1843
   9523SM  C17S12845   1.876   2.208   4.530 -0.1415  1.1187 -0.2867
   9523SM  H17S12846   1.951   2.257   4.464  0.9383  1.1868  0.9429
   9523SM  H17T12847   1.833   2.117   4.484 -1.2964  1.1447  0.6736
   9523SM  C18S12848   1.955   2.155   4.653  0.2231 -0.4162  0.2110
   9523SM  H18S12849   2.026   2.228   4.696 -2.2115  1.7261  0.8402
   9523SM  H18T12850   2.006   2.060   4.627 -2.9767 -2.6801  1.5371
   9523SM  H18U12851   1.875   2.142   4.729  0.2623 -0.7400  0.1971
   9523SM   C1F12852   1.093   1.943   3.163  0.2468 -1.0427  0.0367
   9523SM    OF12853   1.112   1.834   3.111 -0.0924  0.7882 -0.2710
   9523SM   C2F12854   0.966   1.971   3.236 -0.9364 -0.5934  0.5625
   9523SM   H2F12855   0.889   1.945   3.160  1.5235 -1.1999 -1.9221
   9523SM   H2G12856   0.951   2.081   3.245 -3.3162 -0.7193 -1.0035
   9523SM   C3F12857   0.951   1.886   3.373 -0.0763  0.1930  0.0391
   9523SM   H3F12858   0.951   1.777   3.352 -0.3631  0.2494 -0.2542
   9523SM   H3G12859   0.847   1.904   3.408 -0.3946  0.1325 -0.8606
   9523SM   C4F12860   1.060   1.904   3.487 -0.3003 -0.2363  0.1249
   9523SM   H4F12861   1.064   2.011   3.513  2.4123  0.3479 -2.2198
   9523SM   H4G12862   1.162   1.880   3.450 -0.7801 -0.3639 -1.1631
   9523SM   C5F12863   1.039   1.812   3.607 -0.2258 -0.2295 -0.2777
   9523SM   H5F12864   1.076   1.710   3.587  0.7900  0.2018 -0.6835
   9523SM   H5G12865   0.937   1.814   3.652  0.5637 -1.1213  1.6646
   9523SM   C6F12866   1.130   1.873   3.723 -0.1151 -0.0215 -0.3351
   9523SM   H6F12867   1.083   1.972   3.740 -1.7433 -0.4317 -2.0807
   9523SM   H6G12868   1.228   1.895   3.677  0.2799 -2.0538 -0.5431
   9523SM   C7F12869   1.131   1.784   3.852  0.0295 -0.3065 -0.6706
   9523SM   H7F12870   1.191   1.691   3.844 -1.4422 -1.5501  1.5855
   9523SM   H7G12871   1.027   1.750   3.874  0.3335  0.0861  1.5980
   9523SM   C8F12872   1.182   1.856   3.976 -0.1573 -0.2103  0.6538
   9523SM   H8F12873   1.133   1.955   3.988  1.0933  0.3404  1.4707
   9523SM   H8G12874   1.291   1.876   3.968 -0.3486  0.4590 -0.4602
   9523SM   C9F12875   1.159   1.773   4.101 -0.2785  0.2024 -0.0833
   9523SM   H9F12876   1.199   1.670   4.088  0.0672  0.0372  1.9556
   9523SM   H9G12877   1.048   1.769   4.112 -0.2317 -0.2005  0.2477
   9523SM  C10F12878   1.227   1.842   4.226 -0.2641 -0.2578  0.2208
   9523SM  H10F12879   1.204   1.950   4.212  0.9723 -0.0335 -0.1695
   9523SM  H10G12880   1.336   1.835   4.211 -0.3040 -1.9087  0.5107
   9523SM  C11F12881   1.187   1.789   4.360 -0.5717 -0.0836 -0.0839
   9523SM  H11F12882   1.225   1.685   4.369  1.0167  0.5041  0.3637
   9523SM  H11G12883   1.076   1.794   4.360 -0.5887 -0.3918  0.3360
   9523SM  C12F12884   1.232   1.868   4.485  0.5308  0.0195  0.3592
   9523SM  H12F12885   1.186   1.969   4.475 -1.8842 -1.0376 -0.1212
   9523SM  H12G12886   1.339   1.887   4.463 -0.0795  1.3298 -1.8067
   9523SM  C13F12887   1.215   1.805   4.613 -0.5049  0.1180  0.6255
   9523SM  H13F12888   1.281   1.715   4.612  1.5037  1.5121 -0.5697
   9523SM  H13G12889   1.108   1.785   4.637 -0.6560  0.5525  0.3321
   9523SM  C14F12890   1.266   1.900   4.718  0.7882  0.6009 -0.7112
   9523SM  H14F12891   1.206   1.994   4.714  1.3050  1.0301  0.9620
   9523SM  H14G12892   1.370   1.926   4.690 -0.0136  1.4667 -3.1752
   9523SM  C15F12893   1.257   1.843   4.858  0.0096 -0.3784 -0.2360
   9523SM  H15F12894   1.320   1.752   4.859  0.2632 -0.2306  1.5522
   9523SM  H15G12895   1.153   1.808   4.874 -0.4141  0.4603 -1.0684
   9523SM  C16F12896   1.315   1.942   4.964 -0.1028 -0.1695 -0.4111
   9523SM  H16F12897   1.241   2.024   4.979 -1.4759 -1.3436 -0.5626
   9523SM  H16G12898   1.420   1.973   4.943 -0.2774  1.6024  1.0302
   9523SM  C17F12899   1.317   1.877   5.097 -0.8421 -0.1552 -0.8066
   9523SM  H17F12900   1.214   1.838   5.112  0.1868 -2.1814  1.6509
   9523SM  H17G12901   1.347   1.952   5.173  1.5376  1.8065 -3.4849
   9523SM  C18F12902   1.412   1.754   5.108 -0.3501 -1.2946  0.9383
   9523SM  H18F12903   1.515   1.794   5.098 -1.2176  1.5173  2.3165
   9523SM  H18G12904   1.393   1.679   5.027  1.2173 -0.7559  0.0173
   9523SM  C19F12905   1.384   1.683   5.241  0.4450 -1.0685 -0.0498
   9523SM  H19F12906   1.283   1.636   5.244  0.0089 -0.1225  1.7538
   9523SM  H19G12907   1.390   1.755   5.325  1.7580  1.0226 -1.8371
   9523SM  C20F12908   1.473   1.564   5.278  0.0626  0.2649  0.5108
   9523SM  H20F12909   1.568   1.609   5.314  1.6030 -3.7803  2.1203
   9523SM  H20G12910   1.481   1.504   5.185 -0.7816  0.3128  0.3984
   9523SM  C21F12911   1.411   1.469   5.377 -0.5442 -0.8487  0.5372
   9523SM  H21F12912   1.337   1.415   5.316 -1.8333  0.5175  0.8216
   9523SM  H21G12913   1.357   1.528   5.454 -0.4792  0.8243 -0.6481
   9523SM  C22F12914   1.509   1.373   5.436 -0.6378 -0.3146  0.1008
   9523SM  H22F12915   1.587   1.341   5.363 -0.6911 -3.2782  1.2048
   9523SM  H22G12916   1.472   1.270   5.452 -0.5565 -0.3114  0.3064
   9523SM  C23F12917   1.569   1.418   5.562 -0.1703  0.0469 -0.3540
   9523SM  H23F12918   1.604   1.522   5.542 -1.2579  0.2646 -1.2098
   9523SM  H23G12919   1.652   1.355   5.601  0.1928 -0.5916 -2.0577
   9523SM  H23H12920   1.494   1.427   5.643 -0.4517  1.8074 -0.7797
   9623SM     N12921   3.661   4.864   2.725 -0.0009 -0.0072 -0.9160
   9623SM   C1512922   3.701   4.983   2.644  0.3735  0.1894  0.2727
   9623SM  H15A12923   3.755   4.948   2.557  1.2447  0.9234  0.5125
   9623SM  H15B12924   3.766   5.054   2.692  0.5663  1.4015 -1.6738
   9623SM  H15C12925   3.612   5.035   2.609  0.1758 -0.9001 -0.9120
   9623SM   C1412926   3.618   4.908   2.860 -0.5175  0.7566  0.5521
   9623SM  H14A12927   3.561   4.998   2.850  0.4928  1.5457  1.5297
   9623SM  H14B12928   3.709   4.934   2.913  0.9516 -1.2692 -0.7920
   9623SM  H14C12929   3.565   4.830   2.913 -0.7842 -1.7374 -2.9941
   9623SM   C1312930   3.549   4.789   2.659  0.3851  0.4035 -0.6413
   9623SM  H13A12931   3.497   4.719   2.723  1.4350  0.2546  0.0904
   9623SM  H13B12932   3.595   4.738   2.576  2.2094 -1.5799  1.4430
   9623SM  H13C12933   3.474   4.852   2.614 -1.1265 -0.2853  0.7913
   9623SM   C1212934   3.787   4.778   2.740  0.4785  0.3234 -0.1940
   9623SM  H12A12935   3.759   4.691   2.798  0.7800 -0.5664 -1.3443
   9623SM  H12B12936   3.856   4.847   2.786 -0.6031  0.6516  0.9768
   9623SM   C1112937   3.849   4.721   2.604  0.0882  0.4296 -0.3854
   9623SM  H11A12938   3.786   4.647   2.552  0.2146  0.7456 -1.0034
   9623SM  H11B12939   3.935   4.663   2.643 -0.8221 -0.1243  0.8450
   9623SM     P12940   4.047   4.840   2.480 -0.0474 -0.1701 -0.3235
   9623SM   O1312941   4.104   4.727   2.406 -0.0057 -0.4524  0.2824
   9623SM   O1412942   4.060   4.972   2.411 -0.1405 -0.0288 -0.2170
   9623SM   O1112943   4.116   4.848   2.618  0.2094 -0.1073 -0.4347
   9623SM   O1212944   3.893   4.817   2.514 -0.2223 -0.2156  0.2616
   9623SM   C1S12945   4.086   4.956   2.712  0.3289 -0.4483 -0.0250
   9623SM   H1S12946   3.976   4.970   2.714  0.4426  0.6478 -0.7034
   9623SM   H1T12947   4.124   5.050   2.665 -0.2845 -0.5911 -0.8379
   9623SM    NF12948   4.089   5.045   2.942 -0.0247  0.2695 -0.1827
   9623SM   HNF12949   4.150   5.117   2.974  0.0315  1.2585 -2.3249
   9623SM   C2S12950   4.151   4.946   2.850  0.0104 -0.2183  0.6586
   9623SM   H2S12951   4.136   4.846   2.894  0.3937  0.0499  1.4050
   9623SM   C3S12952   4.299   4.966   2.831 -0.7842 -0.0086 -0.2036
   9623SM   H3S12953   4.319   5.073   2.807  0.1518 -0.7892 -3.3720
   9623SM    O312954   4.359   4.896   2.722 -0.0133 -0.9522  0.0065
   9623SM   HO312955   4.284   4.853   2.681 -0.2480  0.7456 -1.4683
   9623SM   C4S12956   4.366   4.936   2.966 -0.0202 -0.2311  0.0423
   9623SM   H4S12957   4.374   5.031   3.022  1.4930  0.7737 -1.7642
   9623SM   C5S12958   4.419   4.823   3.014  0.1535  0.2966  0.1219
   9623SM   H5S12959   4.422   4.740   2.942 -2.2453  0.9270 -0.8227
   9623SM   C6S12960   4.485   4.808   3.149  0.2708  0.4186 -0.0195
   9623SM   H6S12961   4.595   4.793   3.149  0.0288 -1.9065 -1.1579
   9623SM   H6T12962   4.448   4.709   3.185  0.6766  0.3613  0.2360
   9623SM   C7S12963   4.437   4.913   3.254 -0.9287  0.5778 -0.0209
   9623SM   H7S12964   4.328   4.913   3.272 -0.6390 -1.6479  2.4432
   9623SM   H7T12965   4.465   5.014   3.218  0.1002  0.6064  0.7873
   9623SM   C8S12966   4.499   4.905   3.397 -0.7779 -0.1264  0.1074
   9623SM   H8S12967   4.433   4.968   3.460 -1.6214  1.0067 -1.8372
   9623SM   H8T12968   4.605   4.937   3.397 -0.4795 -1.0715  0.1957
   9623SM   C9S12969   4.497   4.760   3.451  0.9342  0.7980 -0.1044
   9623SM   H9S12970   4.567   4.695   3.395 -1.1905  0.1070 -2.1106
   9623SM   H9T12971   4.393   4.721   3.461  0.7915  1.6415  2.6133
   9623SM  C10S12972   4.541   4.766   3.595 -0.2826 -0.0890 -0.7202
   9623SM  H10S12973   4.508   4.864   3.637 -0.6854 -0.9126  0.9758
   9623SM  H10T12974   4.651   4.772   3.583 -0.2223 -0.7445 -0.5105
   9623SM  C11S12975   4.510   4.652   3.689 -0.3310 -0.5446 -0.4050
   9623SM  H11S12976   4.566   4.566   3.646  0.7485  0.0733 -0.2792
   9623SM  H11T12977   4.399   4.642   3.691 -0.4224  0.4695  0.4377
   9623SM  C12S12978   4.552   4.694   3.829  0.1491  0.5783  0.3695
   9623SM  H12S12979   4.483   4.775   3.860 -0.5930  0.7005 -1.4898
   9623SM  H12T12980   4.655   4.734   3.815  0.3019 -0.2992 -1.2653
   9623SM  C13S12981   4.551   4.582   3.939  0.0517  0.0917  0.7715
   9623SM  H13S12982   4.608   4.495   3.899 -0.9314  0.1695 -0.8891
   9623SM  H13T12983   4.449   4.538   3.944  0.0795  0.1078  1.6410
   9623SM  C14S12984   4.583   4.620   4.083  0.3732  0.5614  0.0284
   9623SM  H14S12985   4.507   4.699   4.102  1.8894  1.4574  2.9235
   9623SM  H14T12986   4.688   4.653   4.098 -0.1339  1.7092  1.2165
   9623SM  C15S12987   4.553   4.492   4.168 -0.6345 -0.2306  0.1357
   9623SM  H15S12988   4.615   4.403   4.143  0.3411 -0.0208  1.6638
   9623SM  H15T12989   4.445   4.468   4.163 -0.7146  0.0850  0.3402
   9623SM  C16S12990   4.585   4.520   4.315  0.2225 -0.3049 -0.2673
   9623SM  H16S12991   4.532   4.614   4.343 -1.2670 -1.3426  0.5323
   9623SM  H16T12992   4.693   4.545   4.327  0.2412  0.0604 -1.1033
   9623SM  C17S12993   4.537   4.413   4.415  0.3782  0.3100 -0.1538
   9623SM  H17S12994   4.591   4.422   4.512  1.0391 -1.6520 -0.3017
   9623SM  H17T12995   4.563   4.314   4.373 -3.3630 -1.3441  0.9597
   9623SM  C18S12996   4.383   4.409   4.444 -0.4344 -0.0993  0.0527
   9623SM  H18S12997   4.361   4.493   4.513 -1.2899  1.5892 -2.1476
   9623SM  H18T12998   4.346   4.314   4.488 -0.8164  0.9906  2.2183
   9623SM  H18U12999   4.327   4.421   4.349  0.9427 -0.5178 -0.8353
   9623SM   C1F13000   3.960   5.041   2.977  0.1639 -0.6477 -0.0181
   9623SM    OF13001   3.890   4.940   2.966 -0.3451 -0.4427 -0.1553
   9623SM   C2F13002   3.896   5.166   3.032 -0.6072  0.1479  0.3258
   9623SM   H2F13003   3.798   5.187   2.984 -0.5275 -1.0016 -0.3657
   9623SM   H2G13004   3.954   5.256   3.003 -2.6721  1.4810  0.0920
   9623SM   C3F13005   3.897   5.173   3.185 -0.1226  0.5653  0.3812
   9623SM   H3F13006   3.867   5.273   3.224 -2.2957 -0.0880  0.5631
   9623SM   H3G13007   3.994   5.157   3.236  0.0015 -0.3623 -0.1422
   9623SM   C4F13008   3.799   5.072   3.252  0.6879 -0.2512  0.2898
   9623SM   H4F13009   3.822   4.966   3.225  1.9568 -0.1326  0.8378
   9623SM   H4G13010   3.696   5.099   3.220 -0.1781 -1.5003  1.8508
   9623SM   C5F13011   3.789   5.080   3.405  0.2817  0.1744 -0.6850
   9623SM   H5F13012   3.889   5.046   3.438  0.0872  0.6041  0.3741
   9623SM   H5G13013   3.722   4.995   3.429  1.6883 -0.6998  0.2611
   9623SM   C6F13014   3.738   5.208   3.471 -0.1358 -0.3578 -0.4806
   9623SM   H6F13015   3.643   5.230   3.418  0.5241  0.7413 -1.2182
   9623SM   H6G13016   3.817   5.282   3.446 -1.0047 -0.0269 -2.4197
   9623SM   C7F13017   3.703   5.186   3.616  0.1066 -0.7673 -0.7231
   9623SM   H7F13018   3.647   5.093   3.641  0.2376 -0.4311  0.9684
   9623SM   H7G13019   3.644   5.274   3.648 -0.2855 -0.9179 -1.0158
   9623SM   C8F13020   3.825   5.201   3.706  0.0290  0.9158  0.2911
   9623SM   H8F13021   3.867   5.300   3.680 -0.6100  1.1367  0.0765
   9623SM   H8G13022   3.899   5.120   3.693 -2.1903 -1.1502 -0.2783
   9623SM   C9F13023   3.793   5.186   3.861  0.3705 -0.0347  0.1127
   9623SM   H9F13024   3.716   5.261   3.889  0.6568  0.0538  0.6666
   9623SM   H9G13025   3.887   5.204   3.917 -0.5868  0.7288  1.5084
   9623SM  C10F13026   3.736   5.052   3.912 -0.3601 -0.5204 -0.1525
   9623SM  H10F13027   3.800   4.967   3.880  0.0459 -0.6749  1.0122
   9623SM  H10G13028   3.646   5.034   3.850 -0.7773 -1.3875  0.6725
   9623SM  C11F13029   3.696   5.049   4.060 -0.3926 -0.3022 -0.1622
   9623SM  H11F13030   3.629   5.132   4.090  2.6861  2.6541 -0.7783
   9623SM  H11G13031   3.791   5.063   4.116  0.1446 -0.7567 -0.9408
   9623SM  C12F13032   3.633   4.913   4.092  0.8231 -0.4268 -0.0758
   9623SM  H12F13033   3.704   4.835   4.057  2.6192  0.6049  1.0871
   9623SM  H12G13034   3.542   4.904   4.029  0.4235 -0.9292  0.5635
   9623SM  C13F13035   3.588   4.887   4.239 -0.2069 -0.1920 -1.0174
   9623SM  H13F13036   3.674   4.897   4.308 -0.5962  0.3061 -0.5906
   9623SM  H13G13037   3.562   4.779   4.244  0.8499 -0.4161  0.1517
   9623SM  C14F13038   3.463   4.962   4.294 -0.8288 -0.0797  0.3947
   9623SM  H14F13039   3.422   5.029   4.215  1.8618  0.5608 -0.5418
   9623SM  H14G13040   3.499   5.031   4.374 -2.1694  3.0417 -1.5104
   9623SM  C15F13041   3.353   4.882   4.352 -0.5073 -0.2319 -0.3131
   9623SM  H15F13042   3.392   4.823   4.438 -2.0307  0.2587  0.7604
   9623SM  H15G13043   3.317   4.813   4.272 -0.9589  1.4011 -1.5692
   9623SM  C16F13044   3.239   4.977   4.403 -0.2377  0.9929  0.1226
   9623SM  H16F13045   3.211   5.044   4.318 -3.8559 -0.1014  0.3005
   9623SM  H16G13046   3.266   5.045   4.487 -0.1512  2.2863 -0.9124
   9623SM  C17F13047   3.113   4.902   4.449 -0.2747  0.2946 -0.5393
   9623SM  H17F13048   3.054   4.858   4.366 -1.3758 -1.8390  1.2883
   9623SM  H17G13049   3.047   4.978   4.495 -0.6775 -0.1564 -0.3668
   9623SM  C18F13050   3.148   4.799   4.562 -0.4094  0.1146  0.3257
   9623SM  H18F13051   3.221   4.843   4.633  0.5577 -0.3864 -0.3392
   9623SM  H18G13052   3.204   4.714   4.518  2.3090  1.4345  1.0302
   9623SM  C19F13053   3.030   4.724   4.629  0.2511  0.1968 -0.1576
   9623SM  H19F13054   2.982   4.679   4.540 -0.3701  1.3554 -0.4224
   9623SM  H19G13055   2.964   4.795   4.683  0.2277 -0.1211  0.2340
   9623SM  C20F13056   3.079   4.615   4.733 -0.1003 -0.6401  0.2025
   9623SM  H20F13057   3.130   4.663   4.819  0.3865 -1.7271  0.5415
   9623SM  H20G13058   3.153   4.545   4.688 -0.1244  0.5636 -1.8258
   9623SM  C21F13059   2.957   4.535   4.786  0.4257 -0.1634 -0.2832
   9623SM  H21F13060   2.891   4.496   4.705 -0.5232  1.8604 -0.5534
   9623SM  H21G13061   2.888   4.603   4.839  1.7593  0.7062  0.3828
   9623SM  C22F13062   3.002   4.411   4.865  0.7028 -0.0247 -0.0603
   9623SM  H22F13063   3.090   4.359   4.821 -1.6045 -3.6101 -0.8108
   9623SM  H22G13064   2.922   4.335   4.874  0.2878  0.2610 -1.1440
   9623SM  C23F13065   3.047   4.458   5.003 -0.0351 -0.4500  0.3234
   9623SM  H23F13066   2.954   4.496   5.052 -1.7758 -1.8314 -1.7266
   9623SM  H23G13067   3.127   4.532   4.983  0.9011 -1.0099  1.8385
   9623SM  H23H13068   3.089   4.378   5.067  3.0187  0.0930 -0.8626
   9723SM     N13069   4.264   1.657   2.030 -0.8742 -0.0666  0.2141
   9723SM   C1513070   4.367   1.627   1.920  0.5499  0.4341  0.0488
   9723SM  H15A13071   4.335   1.552   1.850  0.2018 -0.0805  0.7438
   9723SM  H15B13072   4.453   1.595   1.976 -0.9526 -0.0949  2.1907
   9723SM  H15C13073   4.388   1.722   1.874  2.3441  1.1643  2.2057
   9723SM   C1413074   4.147   1.728   1.982 -0.7677 -0.1025 -0.1369
   9723SM  H14A13075   4.072   1.738   2.059 -0.4795 -1.9092  0.4161
   9723SM  H14B13076   4.092   1.675   1.905 -0.6599 -0.9969  0.3896
   9723SM  H14C13077   4.172   1.829   1.952 -0.7673  0.1887  0.8373
   9723SM   C1313078   4.225   1.524   2.090  0.8667 -0.4460 -0.1844
   9723SM  H13A13079   4.150   1.533   2.167  1.9731  0.1112  0.8595
   9723SM  H13B13080   4.307   1.470   2.136  1.1789  0.1173 -0.0652
   9723SM  H13C13081   4.186   1.465   2.008 -0.0287  3.5983 -3.0111
   9723SM   C1213082   4.337   1.729   2.144  0.1351 -0.4467 -0.4938
   9723SM  H12A13083   4.380   1.821   2.106  1.5726 -0.8260  0.1601
   9723SM  H12B13084   4.420   1.676   2.188  1.0069  1.8714  0.8574
   9723SM   C1113085   4.254   1.795   2.261 -0.3346  0.2475 -0.4000
   9723SM  H11A13086   4.331   1.842   2.326  0.0151  0.5998 -1.0548
   9723SM  H11B13087   4.203   1.718   2.322  1.0514 -0.9737 -0.7305
   9723SM     P13088   4.184   2.036   2.190 -0.0356  0.5418 -0.2286
   9723SM   O1313089   4.293   2.053   2.093 -0.0659 -0.0880 -0.2208
   9723SM   O1413090   4.059   2.108   2.163 -0.6510  0.0906  0.0952
   9723SM   O1113091   4.242   2.081   2.329  0.2710 -0.0546 -0.4660
   9723SM   O1213092   4.148   1.883   2.213  0.1311 -0.8351  0.2001
   9723SM   C1S13093   4.167   2.080   2.456 -0.2853 -0.0374 -0.6263
   9723SM   H1S13094   4.060   2.048   2.454 -0.3928  0.2694  0.1012
   9723SM   H1T13095   4.167   2.185   2.492  2.5565 -0.6844  1.5556
   9723SM    NF13096   4.145   1.991   2.692 -0.1438 -0.2744 -0.2191
   9723SM   HNF13097   4.163   2.054   2.767  0.0418 -2.0991  1.3416
   9723SM   C2S13098   4.233   2.004   2.569  0.3688  0.4196  0.5224
   9723SM   H2S13099   4.265   1.902   2.540  0.0355  0.4938 -0.1187
   9723SM   C3S13100   4.360   2.086   2.599 -0.2920  0.1869 -0.0850
   9723SM   H3S13101   4.330   2.192   2.612  0.1743  0.0796  2.5084
   9723SM    O313102   4.460   2.084   2.494  0.1357  0.1561  0.4854
   9723SM   HO313103   4.414   2.039   2.422 -0.8211  0.9405  0.5765
   9723SM   C4S13104   4.424   2.042   2.731 -0.7961  0.2563 -0.5683
   9723SM   H4S13105   4.394   2.107   2.815 -0.5807  0.6779 -0.8178
   9723SM   C5S13106   4.517   1.951   2.758  0.1683  0.9064 -0.1173
   9723SM   H5S13107   4.564   1.900   2.673  2.1780 -1.7078  2.3413
   9723SM   C6S13108   4.574   1.922   2.894 -0.5249 -0.2767  0.0931
   9723SM   H6S13109   4.683   1.945   2.884 -0.6595 -0.1111 -1.2245
   9723SM   H6T13110   4.562   1.815   2.922 -1.3934 -0.1842  0.0838
   9723SM   C7S13111   4.529   1.999   3.015 -1.0900  0.2687  0.1514
   9723SM   H7S13112   4.419   1.986   3.021 -1.4342  1.4265 -2.5246
   9723SM   H7T13113   4.542   2.109   3.004 -1.0576  0.3639  1.0666
   9723SM   C8S13114   4.582   1.942   3.149 -0.5754  0.1941  0.6721
   9723SM   H8S13115   4.691   1.923   3.145 -1.0745 -3.0634 -0.4848
   9723SM   H8T13116   4.529   1.846   3.164  0.1063 -0.5125 -1.1017
   9723SM   C9S13117   4.545   2.037   3.264  0.0358  0.7280  0.1624
   9723SM   H9S13118   4.562   1.978   3.357  0.5362  0.1176 -0.3055
   9723SM   H9T13119   4.436   2.056   3.257 -0.2575 -0.9160 -0.0932
   9723SM  C10S13120   4.622   2.171   3.259  0.4669  0.1510  0.2885
   9723SM  H10S13121   4.587   2.240   3.339 -1.6764 -0.2728 -0.2259
   9723SM  H10T13122   4.577   2.217   3.169 -0.5336 -0.4970  0.4394
   9723SM  C11S13123   4.770   2.157   3.256 -0.0742 -0.6869 -0.0446
   9723SM  H11S13124   4.799   2.104   3.163 -1.0965 -0.0208 -0.7623
   9723SM  H11T13125   4.800   2.095   3.343  0.7987 -1.2627 -0.7332
   9723SM  C12S13126   4.844   2.293   3.259 -0.1797  0.0311 -0.2271
   9723SM  H12S13127   4.839   2.319   3.367 -0.6159 -0.3005 -0.1632
   9723SM  H12T13128   4.786   2.364   3.196  0.1121 -0.8962 -1.5820
   9723SM  C13S13129   4.994   2.286   3.219 -0.4611 -0.5863 -0.1969
   9723SM  H13S13130   5.010   2.230   3.124  0.4419  2.5897 -2.1057
   9723SM  H13T13131   5.058   2.246   3.301  0.7418  0.5355 -0.5437
   9723SM  C14S13132   5.049   2.430   3.214  0.4486  0.5715 -0.0455
   9723SM  H14S13133   5.035   2.473   3.315 -2.6018 -2.2112  0.8641
   9723SM  H14T13134   4.984   2.486   3.143 -2.8208 -0.6879  1.7530
   9723SM  C15S13135   5.196   2.450   3.172 -0.1887 -0.0671  0.6228
   9723SM  H15S13136   5.265   2.377   3.220 -0.2346  1.5227  3.3193
   9723SM  H15T13137   5.235   2.550   3.202  0.4598 -0.0350 -0.2958
   9723SM  C16S13138   5.223   2.438   3.017  0.4510 -0.0381  0.0755
   9723SM  H16S13139   5.155   2.504   2.959  2.4527  0.0069 -2.4134
   9723SM  H16T13140   5.196   2.336   2.980  1.0592 -1.0190  2.2093
   9723SM  C17S13141   5.370   2.490   2.982  0.2505  0.3650  0.6163
   9723SM  H17S13142   5.438   2.417   3.031 -0.1206  0.8173  1.8639
   9723SM  H17T13143   5.395   2.590   3.023  1.0515  0.0516  0.9020
   9723SM  C18S13144   5.390   2.496   2.829  0.3184  0.6842 -0.0930
   9723SM  H18S13145   5.386   2.391   2.794  1.0246  0.4665  0.4435
   9723SM  H18T13146   5.487   2.539   2.794  0.2612  1.3193  0.5037
   9723SM  H18U13147   5.313   2.555   2.775 -0.0382 -0.5807 -1.0136
   9723SM   C1F13148   4.041   1.920   2.699 -0.0722  0.6354  0.7511
   9723SM    OF13149   4.021   1.834   2.616  0.1530  0.5411 -0.4885
   9723SM   C2F13150   3.941   1.954   2.810 -0.3315  0.8965 -0.2754
   9723SM   H2F13151   3.868   2.029   2.772 -0.3064  0.5833 -0.9540
   9723SM   H2G13152   4.009   1.996   2.887  0.9769 -0.0563 -0.8698
   9723SM   C3F13153   3.852   1.835   2.863  0.1556 -0.2557 -0.1125
   9723SM   H3F13154   3.921   1.766   2.915  1.4160  1.3820  0.4699
   9723SM   H3G13155   3.804   1.784   2.777  0.7016  1.3223 -1.4179
   9723SM   C4F13156   3.756   1.889   2.973  0.0921 -0.3931  0.5896
   9723SM   H4F13157   3.669   1.820   2.971 -0.3654  0.2005 -0.5763
   9723SM   H4G13158   3.715   1.989   2.949  0.6949  0.0291  1.2538
   9723SM   C5F13159   3.809   1.872   3.113  0.2071 -0.4930 -0.4728
   9723SM   H5F13160   3.910   1.918   3.105 -0.0865  0.1971 -0.2226
   9723SM   H5G13161   3.806   1.765   3.142 -0.6243 -0.1202  0.8777
   9723SM   C6F13162   3.738   1.958   3.231 -0.0900  0.0221  0.0078
   9723SM   H6F13163   3.631   1.927   3.238 -0.7829  1.1983 -3.3146
   9723SM   H6G13164   3.746   2.066   3.206  1.8890 -0.0115  0.3913
   9723SM   C7F13165   3.816   1.944   3.360 -0.3074 -0.2401  0.5749
   9723SM   H7F13166   3.912   1.992   3.333 -0.4267 -1.0788 -1.4547
   9723SM   H7G13167   3.816   1.837   3.390 -1.1087 -0.5273 -0.3859
   9723SM   C8F13168   3.754   2.027   3.475 -0.0761  0.1270 -0.3727
   9723SM   H8F13169   3.647   2.002   3.490  0.5019 -1.7878  0.9514
   9723SM   H8G13170   3.753   2.137   3.458 -0.5749  0.1594 -0.1467
   9723SM   C9F13171   3.831   2.011   3.606 -0.1698 -0.1220  0.0589
   9723SM   H9F13172   3.931   2.060   3.597 -0.1067 -0.4922 -1.6017
   9723SM   H9G13173   3.849   1.902   3.616 -0.4450 -0.1795 -0.0792
   9723SM  C10F13174   3.757   2.066   3.726  0.1194  0.6310 -0.1717
   9723SM  H10F13175   3.674   2.003   3.765  0.9533  1.2009  2.7308
   9723SM  H10G13176   3.716   2.163   3.689  0.0859  0.8579  0.4516
   9723SM  C11F13177   3.837   2.074   3.850 -0.4289 -0.5414 -0.0039
   9723SM  H11F13178   3.926   2.130   3.813 -1.1277 -0.3778 -1.5036
   9723SM  H11G13179   3.870   1.969   3.868  2.3508 -0.3157 -2.8343
   9723SM  C12F13180   3.770   2.143   3.964  0.0922 -0.1908 -0.0601
   9723SM  H12F13181   3.686   2.081   4.003 -0.0839 -0.2633 -0.5505
   9723SM  H12G13182   3.722   2.236   3.927  0.3511  0.2045  0.5786
   9723SM  C13F13183   3.880   2.159   4.075  0.1132  0.6327 -0.3713
   9723SM  H13F13184   3.951   2.239   4.047 -0.5295  0.5903 -2.2574
   9723SM  H13G13185   3.930   2.060   4.085  0.3570  0.7595 -0.3371
   9723SM  C14F13186   3.806   2.173   4.213  0.1930 -0.9314 -0.2188
   9723SM  H14F13187   3.758   2.078   4.245 -1.5544  0.1489  0.4727
   9723SM  H14G13188   3.728   2.249   4.192  1.1793 -0.2553 -1.5431
   9723SM  C15F13189   3.896   2.227   4.334  0.0772 -0.0366  0.5663
   9723SM  H15F13190   3.926   2.330   4.305 -1.6606  0.7814  1.5657
   9723SM  H15G13191   3.989   2.168   4.351 -0.3580 -1.8074 -2.4999
   9723SM  C16F13192   3.815   2.230   4.463 -0.6563 -0.3756  0.6784
   9723SM  H16F13193   3.799   2.123   4.490 -0.9640 -0.2176  1.1401
   9723SM  H16G13194   3.714   2.274   4.451 -0.5538  0.3890  2.3409
   9723SM  C17F13195   3.880   2.309   4.579 -0.0216 -0.0881  0.0035
   9723SM  H17F13196   3.806   2.334   4.658 -1.0806 -0.6681 -0.7804
   9723SM  H17G13197   3.911   2.405   4.532  0.5782 -0.7051 -0.8911
   9723SM  C18F13198   4.001   2.231   4.637  0.6163  0.0762  0.0697
   9723SM  H18F13199   4.086   2.234   4.566 -0.1123  2.6033 -0.7937
   9723SM  H18G13200   3.980   2.122   4.646  2.3473 -0.1725  1.5879
   9723SM  C19F13201   4.043   2.290   4.781 -0.2681  0.1285 -0.5701
   9723SM  H19F13202   4.130   2.231   4.819  1.0702  1.3410 -1.6172
   9723SM  H19G13203   3.948   2.275   4.836 -1.6356  4.2686 -1.4538
   9723SM  C20F13204   4.074   2.439   4.780 -0.3484 -0.0864 -0.1980
   9723SM  H20F13205   4.101   2.464   4.885 -1.3594 -1.3804  0.4023
   9723SM  H20G13206   3.977   2.490   4.759 -1.8739 -1.8977  1.9516
   9723SM  C21F13207   4.189   2.479   4.694 -0.0148  0.6364  0.0963
   9723SM  H21F13208   4.178   2.432   4.594  1.5647 -1.1536  0.6923
   9723SM  H21G13209   4.277   2.430   4.742  0.7515  2.2611  0.4285
   9723SM  C22F13210   4.220   2.626   4.687  0.2798 -0.2991 -0.4378
   9723SM  H22F13211   4.231   2.671   4.788  1.9393  1.9894 -1.5415
   9723SM  H22G13212   4.133   2.685   4.653  1.7652  2.9147  0.8765
   9723SM  C23F13213   4.342   2.654   4.593 -0.4507  0.4176 -0.3594
   9723SM  H23F13214   4.311   2.633   4.489 -0.9389  1.0384 -0.3421
   9723SM  H23G13215   4.426   2.589   4.628 -0.5141  0.0055 -0.9714
   9723SM  H23H13216   4.378   2.758   4.605 -0.0750  0.2061  0.4497
   9823SM     N13217   7.031   7.359   1.974  0.3556  0.5443 -0.1687
   9823SM   C1513218   6.959   7.240   1.915 -0.2499 -0.3225  0.0760
   9823SM  H15A13219   6.852   7.252   1.903 -0.2431 -0.9334 -0.6955
   9823SM  H15B13220   6.982   7.142   1.953 -1.8970 -0.3942  0.9447
   9823SM  H15C13221   6.986   7.217   1.813  1.9878 -4.1196  1.3222
   9823SM   C1413222   7.178   7.328   1.942  0.1108 -0.4391 -0.4493
   9823SM  H14A13223   7.234   7.405   1.993 -0.6551  0.3031 -0.7190
   9823SM  H14B13224   7.201   7.330   1.836 -0.1968 -2.9276 -0.6265
   9823SM  H14C13225   7.198   7.230   1.983 -0.4832  0.1410  1.3229
   9823SM   C1313226   6.987   7.478   1.895 -0.1859  0.8835 -0.2038
   9823SM  H13A13227   7.045   7.566   1.918 -0.0725  0.9606 -0.7612
   9823SM  H13B13228   6.882   7.498   1.906 -0.3203 -0.4726  1.2332
   9823SM  H13C13229   6.996   7.468   1.788 -1.1086  0.9279 -0.2868
   9823SM   C1213230   6.996   7.374   2.119  0.2078 -0.2297  0.0653
   9823SM  H12A13231   7.033   7.292   2.179 -1.0613 -1.0840 -0.2737
   9823SM  H12B13232   6.889   7.387   2.129  0.0337  0.2496 -2.0274
   9823SM   C1113233   7.063   7.497   2.192  0.2886  0.1374  0.4259
   9823SM  H11A13234   7.037   7.501   2.300  1.4199  1.9285  0.6764
   9823SM  H11B13235   7.012   7.586   2.151  0.5290 -0.4473 -1.1944
   9823SM     P13236   7.280   7.633   2.221  0.2556 -0.2578 -0.0197
   9823SM   O1313237   7.422   7.592   2.222  0.0417  0.1210  0.4570
   9823SM   O1413238   7.261   7.748   2.127 -0.5745  0.8439 -0.4989
   9823SM   O1113239   7.233   7.667   2.372  0.5421  0.8645 -0.0466
   9823SM   O1213240   7.201   7.509   2.167 -0.1350 -0.2325  0.0970
   9823SM   C1S13241   7.334   7.716   2.453  0.1509  0.9583 -0.4194
   9823SM   H1S13242   7.348   7.817   2.410 -0.1298 -0.4728 -4.2705
   9823SM   H1T13243   7.423   7.650   2.445 -0.4664  0.2019 -1.2297
   9823SM    NF13244   7.411   7.769   2.678 -0.6372  0.1495 -0.3712
   9823SM   HNF13245   7.476   7.700   2.709 -0.7048  0.4562  0.4768
   9823SM   C2S13246   7.294   7.718   2.603 -1.0558  0.7665 -0.0687
   9823SM   H2S13247   7.215   7.794   2.617 -1.0110  0.6912  0.6561
   9823SM   C3S13248   7.246   7.577   2.645 -0.0712 -0.0565  0.3130
   9823SM   H3S13249   7.329   7.505   2.633  0.1236  0.2070  0.0431
   9823SM    O313250   7.129   7.534   2.574  0.6411 -0.2741  0.2384
   9823SM   HO313251   7.120   7.599   2.503 -2.6360 -0.0350  0.7444
   9823SM   C4S13252   7.221   7.591   2.790 -0.3511 -0.1269  0.3567
   9823SM   H4S13253   7.171   7.683   2.822 -1.4249 -0.7653  0.5646
   9823SM   C5S13254   7.254   7.498   2.875  0.0930 -0.3207  0.1357
   9823SM   H5S13255   7.317   7.411   2.851 -0.7728 -1.0950  0.5798
   9823SM   C6S13256   7.226   7.507   3.024  0.5135  0.2913  0.6309
   9823SM   H6S13257   7.314   7.475   3.084  0.7489 -1.6062 -0.6635
   9823SM   H6T13258   7.148   7.434   3.056  1.3592 -0.0348  2.0485
   9823SM   C7S13259   7.188   7.642   3.093  0.3978 -0.0915 -0.4708
   9823SM   H7S13260   7.089   7.671   3.052 -0.9334 -1.5696  1.5124
   9823SM   H7T13261   7.262   7.718   3.058 -0.6938  1.2330 -0.0040
   9823SM   C8S13262   7.179   7.623   3.243  0.0357  0.3313 -0.4194
   9823SM   H8S13263   7.197   7.725   3.284 -0.2792 -0.0625  0.7233
   9823SM   H8T13264   7.259   7.550   3.268 -0.7479 -1.6474 -3.2607
   9823SM   C9S13265   7.042   7.568   3.305 -0.2158 -0.0639  0.1739
   9823SM   H9S13266   7.001   7.497   3.230  1.4514  2.9240 -3.8941
   9823SM   H9T13267   6.966   7.649   3.309  1.1738  1.5524 -2.8879
   9823SM  C10S13268   7.061   7.484   3.428  0.5314 -0.8294 -0.1994
   9823SM  H10S13269   7.145   7.414   3.414  0.7545 -0.2582 -1.8835
   9823SM  H10T13270   6.980   7.408   3.433  0.4310 -0.6853  0.5218
   9823SM  C11S13271   7.092   7.565   3.563 -0.0829 -0.1308  0.7321
   9823SM  H11S13272   7.018   7.648   3.573 -0.2305 -0.2635  0.7358
   9823SM  H11T13273   7.198   7.600   3.554  0.0280 -0.4103  0.9683
   9823SM  C12S13274   7.078   7.480   3.688  0.0853  0.8739 -0.0032
   9823SM  H12S13275   7.162   7.407   3.689 -1.3240 -0.8619 -1.5182
   9823SM  H12T13276   6.981   7.425   3.685 -0.0762  0.9258  2.1481
   9823SM  C13S13277   7.072   7.565   3.821  0.3652  0.2212 -0.4408
   9823SM  H13S13278   7.034   7.666   3.795  0.2667  1.1541  2.8775
   9823SM  H13T13279   7.179   7.587   3.840  0.1320  0.9147  0.1234
   9823SM  C14S13280   7.003   7.496   3.933 -0.2020 -0.0449  0.3290
   9823SM  H14S13281   7.058   7.404   3.965  0.0875  0.2445  0.6762
   9823SM  H14T13282   6.900   7.471   3.900 -0.1037 -3.0761  1.9580
   9823SM  C15S13283   6.984   7.578   4.053 -0.9332 -0.1644 -0.1887
   9823SM  H15S13284   6.923   7.669   4.034 -0.2800  0.4263  0.4747
   9823SM  H15T13285   7.089   7.601   4.084 -1.1110 -0.4057  0.6074
   9823SM  C16S13286   6.915   7.504   4.170  0.0971 -0.6448 -0.4317
   9823SM  H16S13287   6.906   7.568   4.260 -1.2061 -3.1341  1.3193
   9823SM  H16T13288   6.976   7.414   4.194 -0.0199 -0.8767 -0.9904
   9823SM  C17S13289   6.779   7.448   4.140  0.8596 -0.2225  0.2581
   9823SM  H17S13290   6.802   7.377   4.058 -1.0672 -0.4699 -0.1199
   9823SM  H17T13291   6.705   7.526   4.114 -0.6672 -1.3511  1.0909
   9823SM  C18S13292   6.739   7.366   4.268 -0.0567  0.3909  0.5598
   9823SM  H18S13293   6.820   7.294   4.293  1.0836  1.8547  1.2429
   9823SM  H18T13294   6.651   7.302   4.246  0.9549 -1.0232  0.4438
   9823SM  H18U13295   6.724   7.439   4.350 -1.1460  0.3023  0.4509
   9823SM   C1F13296   7.442   7.898   2.687 -0.1648  0.3687 -0.1815
   9823SM    OF13297   7.366   7.982   2.640 -0.0879  0.0000  0.7444
   9823SM   C2F13298   7.572   7.943   2.753  0.3841  0.0445  0.4786
   9823SM   H2F13299   7.556   8.053   2.759  0.4687  0.1476 -0.8966
   9823SM   H2G13300   7.655   7.920   2.683 -1.2325 -1.3052 -1.1003
   9823SM   C3F13301   7.597   7.880   2.892  0.0943 -0.2215  0.1876
   9823SM   H3F13302   7.701   7.908   2.915  0.1848  0.4341 -0.9723
   9823SM   H3G13303   7.577   7.770   2.890 -1.7279  0.0288  1.6871
   9823SM   C4F13304   7.510   7.931   3.010  0.7755 -0.1793  0.2099
   9823SM   H4F13305   7.403   7.908   2.995  0.6847  0.1566  0.3424
   9823SM   H4G13306   7.512   8.042   3.012 -1.0140 -0.1214  0.7550
   9823SM   C5F13307   7.563   7.881   3.143  0.3250  0.5563  0.4403
   9823SM   H5F13308   7.667   7.918   3.153  0.2734  1.1582 -1.0453
   9823SM   H5G13309   7.564   7.770   3.155 -2.2578  0.2460 -1.3399
   9823SM   C6F13310   7.477   7.941   3.253 -0.4737 -0.6214  0.1323
   9823SM   H6F13311   7.374   7.902   3.238 -1.1176  0.1737  2.1654
   9823SM   H6G13312   7.489   8.049   3.229 -0.3275 -1.2763 -3.2849
   9823SM   C7F13313   7.516   7.893   3.393  0.0073 -0.5007 -0.1371
   9823SM   H7F13314   7.612   7.941   3.422  0.2960 -0.1092 -1.6690
   9823SM   H7G13315   7.524   7.783   3.395  1.9624 -0.4051  2.0945
   9823SM   C8F13316   7.407   7.928   3.503 -0.1531  0.0308  0.2369
   9823SM   H8F13317   7.313   7.878   3.471 -1.2700  2.3418 -0.2979
   9823SM   H8G13318   7.375   8.035   3.508 -3.2573 -0.8190  1.3447
   9823SM   C9F13319   7.456   7.886   3.640 -0.1336  0.1625  0.0820
   9823SM   H9F13320   7.552   7.938   3.661 -0.8835  1.3274  0.7577
   9823SM   H9G13321   7.468   7.777   3.626  0.8411  0.4507 -1.5415
   9823SM  C10F13322   7.360   7.927   3.753 -0.3130 -0.3571 -0.2555
   9823SM  H10F13323   7.269   7.866   3.735 -0.9788  0.7010 -0.5436
   9823SM  H10G13324   7.330   8.034   3.747 -0.4254 -0.3233  0.7019
   9823SM  C11F13325   7.410   7.899   3.894 -0.0143 -0.0014  0.4072
   9823SM  H11F13326   7.497   7.966   3.913 -1.4595  2.0024  0.2212
   9823SM  H11G13327   7.440   7.792   3.897  1.7487  0.4194 -0.5091
   9823SM  C12F13328   7.294   7.930   3.988 -0.1275  0.1108 -0.0674
   9823SM  H12F13329   7.219   7.851   3.966  0.8430 -0.5531 -1.1649
   9823SM  H12G13330   7.253   8.033   3.977 -1.2863 -0.2327  0.8590
   9823SM  C13F13331   7.337   7.910   4.142  0.5060  0.1098  0.1688
   9823SM  H13F13332   7.447   7.907   4.150  0.5684  0.1162 -0.6160
   9823SM  H13G13333   7.294   7.811   4.169  1.9158 -1.2935 -2.3652
   9823SM  C14F13334   7.276   8.026   4.228  0.3743 -0.2804 -0.4976
   9823SM  H14F13335   7.171   8.037   4.195  0.6325  2.2252 -0.6243
   9823SM  H14G13336   7.318   8.128   4.214 -0.4166 -0.1065 -1.7721
   9823SM  C15F13337   7.276   7.992   4.381  0.0134  0.9206  0.6974
   9823SM  H15F13338   7.382   8.003   4.413 -0.5756 -0.3969  3.3498
   9823SM  H15G13339   7.240   7.888   4.397 -1.1596  1.2373  0.2725
   9823SM  C16F13340   7.195   8.088   4.464 -0.6402  0.8118  0.2694
   9823SM  H16F13341   7.215   8.190   4.427  0.9741 -0.8377 -4.1381
   9823SM  H16G13342   7.247   8.076   4.561  1.7618 -3.7479 -1.2329
   9823SM  C17F13343   7.048   8.057   4.476 -0.1280 -0.5446 -0.5898
   9823SM  H17F13344   7.028   7.954   4.513 -2.2467 -0.8337 -2.3071
   9823SM  H17G13345   6.996   8.047   4.378  2.6843 -1.0292 -2.1497
   9823SM  C18F13346   6.966   8.162   4.550 -0.2239 -0.2403 -0.7833
   9823SM  H18F13347   6.981   8.254   4.490  0.3981 -0.5182 -1.0668
   9823SM  H18G13348   7.006   8.178   4.652  0.2433 -3.2982 -0.4072
   9823SM  C19F13349   6.808   8.132   4.556 -0.7375  0.8204 -1.1795
   9823SM  H19F13350   6.801   8.029   4.597 -0.8782  0.8058 -1.2404
   9823SM  H19G13351   6.768   8.133   4.453 -1.2171  0.6319 -0.9993
   9823SM  C20F13352   6.736   8.215   4.655  0.1510 -0.9453  0.4563
   9823SM  H20F13353   6.767   8.219   4.761 -0.5723 -0.8904  0.6756
   9823SM  H20G13354   6.634   8.171   4.660 -0.2044 -0.0517  4.3077
   9823SM  C21F13355   6.735   8.364   4.620  0.1976  0.0138  0.2682
   9823SM  H21F13356   6.670   8.386   4.532 -1.6317  0.1296  1.5931
   9823SM  H21G13357   6.837   8.407   4.607  0.2425  0.0269  0.6636
   9823SM  C22F13358   6.658   8.447   4.728 -0.1315  0.3368  0.6187
   9823SM  H22F13359   6.710   8.455   4.826  1.7828  2.0609 -0.4563
   9823SM  H22G13360   6.564   8.390   4.744  0.9070 -0.9794  2.3523
   9823SM  C23F13361   6.640   8.598   4.678 -0.4261  1.5593  0.3955
   9823SM  H23F13362   6.568   8.652   4.744 -1.8580  0.7242 -0.4198
   9823SM  H23G13363   6.600   8.601   4.574 -0.2359  2.3689  0.3422
   9823SM  H23H13364   6.744   8.636   4.687  1.2469 -2.2077 -0.7157
   9923SM     N13365   0.690   6.321   2.016  0.2668  0.2897  0.2199
   9923SM   C1513366   0.817   6.303   2.092 -0.2443 -0.0471  0.1676
   9923SM  H15A13367   0.868   6.212   2.065 -0.6811 -0.3693  0.4225
   9923SM  H15B13368   0.802   6.298   2.199 -0.0709 -1.8451  0.1381
   9923SM  H15C13369   0.880   6.387   2.067  2.4746 -1.1939  2.5721
   9923SM   C1413370   0.709   6.334   1.868  0.2303 -0.2935  0.0200
   9923SM  H14A13371   0.765   6.254   1.822  1.5101  0.1290  0.8099
   9923SM  H14B13372   0.752   6.428   1.838  0.8114 -0.6305 -0.2083
   9923SM  H14C13373   0.613   6.330   1.817  0.8219  0.9423 -1.2774
   9923SM   C1313374   0.609   6.204   2.042 -0.4071  0.6503  0.1415
   9923SM  H13A13375   0.660   6.113   2.012  0.0979  0.4077  1.6345
   9923SM  H13B13376   0.512   6.217   1.996  0.4291 -1.2875 -2.4584
   9923SM  H13C13377   0.590   6.198   2.148  3.0556  1.1637  0.9190
   9923SM   C1213378   0.603   6.433   2.066  0.5219  0.6008 -0.1229
   9923SM  H12A13379   0.505   6.425   2.022  0.3255 -2.2193  0.6315
   9923SM  H12B13380   0.644   6.525   2.026 -1.5243  0.9692 -1.5486
   9923SM   C1113381   0.580   6.449   2.218  0.6500 -0.1712  0.4162
   9923SM  H11A13382   0.542   6.358   2.270  0.2277 -0.8465 -0.9985
   9923SM  H11B13383   0.497   6.522   2.232 -1.0123 -1.9108  0.1802
   9923SM     P13384   0.736   6.637   2.292 -0.3069  0.1297  0.2257
   9923SM   O1313385   0.855   6.660   2.378  0.1513 -0.0977  0.1437
   9923SM   O1413386   0.755   6.700   2.159  0.2046  0.0226 -0.2279
   9923SM   O1113387   0.604   6.692   2.365  0.3946 -0.2628 -0.0955
   9923SM   O1213388   0.700   6.485   2.280  0.5538  0.1099 -0.2228
   9923SM   C1S13389   0.532   6.645   2.477 -0.2815  0.5309 -0.6199
   9923SM   H1S13390   0.505   6.538   2.468 -0.1615  0.3009  1.3217
   9923SM   H1T13391   0.440   6.705   2.493  0.9268  1.8512  2.1926
   9923SM    NF13392   0.522   6.601   2.708  0.4777 -0.2797 -0.1152
   9923SM   HNF13393   0.454   6.663   2.747  1.6755  0.6405  0.5818
   9923SM   C2S13394   0.615   6.658   2.612 -0.1708  0.2403 -0.2949
   9923SM   H2S13395   0.712   6.605   2.602  0.5778  1.8002 -1.8077
   9923SM   C3S13396   0.657   6.809   2.641  0.1811  0.1098  0.0177
   9923SM   H3S13397   0.568   6.869   2.610  0.9796 -0.2723 -3.3022
   9923SM    O313398   0.768   6.859   2.569 -0.2300 -0.4930  0.2161
   9923SM   HO313399   0.791   6.781   2.517 -3.0716 -1.2570 -0.0807
   9923SM   C4S13400   0.687   6.817   2.786 -0.7202  0.6071 -0.0463
   9923SM   H4S13401   0.759   6.738   2.812  1.7869  1.9556 -2.3137
   9923SM   C5S13402   0.626   6.890   2.880  0.3718 -0.1249 -0.8295
   9923SM   H5S13403   0.530   6.931   2.845 -0.9699  0.6924  3.2593
   9923SM   C6S13404   0.644   6.895   3.027 -0.2175 -0.7779  0.3459
   9923SM   H6S13405   0.553   6.875   3.088 -0.2918  1.4875  1.0694
   9923SM   H6T13406   0.677   6.996   3.059 -1.8771 -0.8953  2.5943
   9923SM   C7S13407   0.761   6.806   3.085  0.7877 -0.6042 -0.2048
   9923SM   H7S13408   0.859   6.850   3.055  1.7085 -1.9471  0.7038
   9923SM   H7T13409   0.756   6.701   3.051  1.5908 -1.1272  1.2206
   9923SM   C8S13410   0.759   6.807   3.239 -0.3326  0.0060  0.1985
   9923SM   H8S13411   0.846   6.750   3.280 -0.0041 -0.4737 -1.1263
   9923SM   H8T13412   0.664   6.759   3.271 -2.1585  1.4624 -2.6697
   9923SM   C9S13413   0.759   6.947   3.303  0.3330  0.5762  0.1387
   9923SM   H9S13414   0.687   7.012   3.250 -1.2348 -0.8736  0.4132
   9923SM   H9T13415   0.859   6.994   3.294  0.6998 -0.0891  0.5889
   9923SM  C10S13416   0.729   6.951   3.450 -0.8119  0.2073  0.5352
   9923SM  H10S13417   0.758   6.856   3.498  1.8898  0.3759 -0.5742
   9923SM  H10T13418   0.621   6.962   3.474 -0.6835 -1.3551  1.9290
   9923SM  C11S13419   0.805   7.060   3.520 -0.1203 -0.2137 -0.6502
   9923SM  H11S13420   0.786   7.157   3.468  0.1065  0.3101  0.2341
   9923SM  H11T13421   0.915   7.049   3.512 -0.0396  0.2631 -0.2321
   9923SM  C12S13422   0.755   7.076   3.660 -0.2289  0.7373  0.5366
   9923SM  H12S13423   0.779   6.983   3.716  1.5738 -0.0677 -1.4435
   9923SM  H12T13424   0.647   7.101   3.653  0.2125  2.2791 -2.1770
   9923SM  C13S13425   0.837   7.179   3.743  0.9316 -0.3415  0.0468
   9923SM  H13S13426   0.787   7.276   3.724 -1.7202 -1.8293 -1.2018
   9923SM  H13T13427   0.942   7.175   3.707  0.3284  1.2923 -2.0540
   9923SM  C14S13428   0.844   7.146   3.891 -0.5748  0.0243  0.1007
   9923SM  H14S13429   0.923   7.200   3.946 -0.8299 -0.1390  0.6317
   9923SM  H14T13430   0.870   7.038   3.904 -2.3928 -0.2452  1.9528
   9923SM  C15S13431   0.716   7.167   3.956  0.9670  0.1932 -0.0256
   9923SM  H15S13432   0.626   7.141   3.896 -1.1047 -1.0634  3.3309
   9923SM  H15T13433   0.700   7.274   3.983 -0.0191 -0.3374  1.6630
   9923SM  C16S13434   0.709   7.101   4.090 -0.3245 -0.1929  0.6472
   9923SM  H16S13435   0.802   7.101   4.152 -0.0714 -0.6323  0.2692
   9923SM  H16T13436   0.701   6.992   4.074 -0.2856  0.0085 -0.8890
   9923SM  C17S13437   0.592   7.145   4.178 -0.4331 -0.0388 -0.4522
   9923SM  H17S13438   0.573   7.078   4.264  1.1278 -1.0966 -0.8713
   9923SM  H17T13439   0.496   7.127   4.125 -0.0013  1.5979 -1.8911
   9923SM  C18S13440   0.609   7.288   4.231 -0.1412 -0.2307  0.3808
   9923SM  H18S13441   0.548   7.311   4.321 -0.9858  1.6854 -0.6222
   9923SM  H18T13442   0.589   7.365   4.154 -0.8821 -0.5457  0.2572
   9923SM  H18U13443   0.711   7.311   4.270 -0.1540  1.5970 -0.5588
   9923SM   C1F13444   0.522   6.469   2.719 -0.1410  0.0025 -0.3784
   9923SM    OF13445   0.578   6.398   2.636  0.3201  0.2379 -0.1878
   9923SM   C2F13446   0.441   6.401   2.828 -0.5490 -0.2297 -0.1362
   9923SM   H2F13447   0.488   6.305   2.861 -1.7438 -0.0241  2.4118
   9923SM   H2G13448   0.342   6.375   2.786  0.4370 -1.8069 -1.6402
   9923SM   C3F13449   0.431   6.498   2.951  0.2590 -0.3852  1.0080
   9923SM   H3F13450   0.362   6.582   2.930  1.0155  0.1317  0.5578
   9923SM   H3G13451   0.532   6.534   2.978 -0.2336  1.3185  0.6883
   9923SM   C4F13452   0.366   6.425   3.073 -0.1921 -0.3009 -0.4124
   9923SM   H4F13453   0.426   6.337   3.107  1.2512  0.8613  0.1592
   9923SM   H4G13454   0.281   6.371   3.027 -0.0789  1.9023 -3.4827
   9923SM   C5F13455   0.316   6.508   3.192 -0.4755  0.4691 -0.4675
   9923SM   H5F13456   0.223   6.564   3.168 -0.9143 -0.4288 -0.9269
   9923SM   H5G13457   0.395   6.575   3.232 -0.7115  0.5714 -0.1712
   9923SM   C6F13458   0.266   6.410   3.303  0.7886 -0.2544  0.1138
   9923SM   H6F13459   0.340   6.332   3.330  0.8019 -0.5148 -0.6387
   9923SM   H6G13460   0.170   6.373   3.260 -0.4113  1.0316  1.5607
   9923SM   C7F13461   0.219   6.479   3.431 -0.4503 -0.3132  0.2961
   9923SM   H7F13462   0.154   6.562   3.397 -0.2897 -0.9491 -1.6830
   9923SM   H7G13463   0.304   6.517   3.492 -0.2535  0.0006 -0.1710
   9923SM   C8F13464   0.125   6.396   3.516  0.2916  0.2455 -1.1680
   9923SM   H8F13465   0.158   6.291   3.533 -2.9897 -1.8099 -5.6662
   9923SM   H8G13466   0.024   6.389   3.469  0.1974 -0.9329 -0.8214
   9923SM   C9F13467   0.105   6.466   3.655  0.1203  0.2882  0.7736
   9923SM   H9F13468   0.060   6.564   3.630  0.0224  0.1690  0.4857
   9923SM   H9G13469   0.203   6.479   3.706 -0.3488 -2.1683  2.4945
   9923SM  C10F13470   0.014   6.380   3.742 -0.0826 -0.2910 -0.0498
   9923SM  H10F13471   0.066   6.282   3.754 -0.1832 -0.2633  0.7054
   9923SM  H10G13472  -0.076   6.355   3.681  0.5981 -1.6959 -0.5374
   9923SM  C11F13473  -0.024   6.446   3.880  0.1210 -0.6392  0.9264
   9923SM  H11F13474  -0.079   6.540   3.858  0.7205 -0.6286 -0.6278
   9923SM  H11G13475   0.072   6.480   3.922 -0.5782  0.0471  2.0194
   9923SM  C12F13476  -0.103   6.358   3.977 -0.1701 -0.2695 -0.6374
   9923SM  H12F13477  -0.074   6.252   3.964 -1.7433 -0.6032 -1.6975
   9923SM  H12G13478  -0.212   6.359   3.954 -0.6309 -0.2397  1.3893
   9923SM  C13F13479  -0.099   6.410   4.121 -0.4129  0.7080 -0.1866
   9923SM  H13F13480   0.009   6.417   4.145 -0.0875 -2.5037 -0.2390
   9923SM  H13G13481  -0.136   6.334   4.193  0.2502  0.2861 -0.2857
   9923SM  C14F13482  -0.184   6.535   4.148 -0.0248 -0.4405  0.0928
   9923SM  H14F13483  -0.284   6.516   4.103 -0.6253  0.4101  1.0232
   9923SM  H14G13484  -0.134   6.615   4.089  3.0836 -0.8503  1.9047
   9923SM  C15F13485  -0.201   6.567   4.297 -0.2504  0.1737 -0.1223
   9923SM  H15F13486  -0.276   6.495   4.337 -2.7637  3.7992  2.3919
   9923SM  H15G13487  -0.260   6.661   4.311 -2.3461 -1.1964  0.8058
   9923SM  C16F13488  -0.074   6.564   4.387  0.8936  0.0007  0.2691
   9923SM  H16F13489  -0.011   6.476   4.362  0.5837  0.0501 -0.7006
   9923SM  H16G13490  -0.101   6.551   4.494 -0.6192 -1.9222 -0.2871
   9923SM  C17F13491   0.009   6.691   4.394 -0.0200  0.0396  0.1688
   9923SM  H17F13492  -0.051   6.782   4.416  0.5328 -0.1433  2.6649
   9923SM  H17G13493   0.053   6.723   4.297 -0.9566  0.9237  0.0129
   9923SM  C18F13494   0.116   6.693   4.500 -0.4758 -0.4603 -0.4124
   9923SM  H18F13495   0.082   6.636   4.589 -0.8547  1.1819  0.5238
   9923SM  H18G13496   0.141   6.792   4.545 -2.6429 -0.8521  1.8869
   9923SM  C19F13497   0.246   6.641   4.445 -0.1673 -0.5935  0.1183
   9923SM  H19F13498   0.280   6.711   4.365 -1.7270 -0.8791 -0.8299
   9923SM  H19G13499   0.230   6.546   4.389  2.5339 -1.6353  0.9649
   9923SM  C20F13500   0.360   6.630   4.548  0.4376  0.1109 -0.6638
   9923SM  H20F13501   0.329   6.537   4.599  0.5848 -0.4012 -1.4827
   9923SM  H20G13502   0.357   6.721   4.612  1.4627 -1.0015  1.0261
   9923SM  C21F13503   0.496   6.638   4.477  0.1409 -0.4480 -0.3169
   9923SM  H21F13504   0.496   6.742   4.437 -3.7339  0.2234  0.9391
   9923SM  H21G13505   0.506   6.568   4.391 -1.2979 -0.1097 -0.8020
   9923SM  C22F13506   0.618   6.618   4.572  0.1433 -0.0448  0.2850
   9923SM  H22F13507   0.623   6.699   4.648 -1.4583  0.4171 -0.0767
   9923SM  H22G13508   0.712   6.634   4.515  0.7191  1.2116  1.5411
   9923SM  C23F13509   0.626   6.482   4.634 -0.8279 -0.1973 -0.0629
   9923SM  H23F13510   0.706   6.475   4.711  0.7757 -1.8861 -1.7710
   9923SM  H23G13511   0.648   6.401   4.561 -0.3722 -0.9761  0.9113
   9923SM  H23H13512   0.530   6.453   4.682 -0.9331  2.0690  1.2438
  10023SM     N13513   0.461   6.952   2.123 -0.0524 -0.6042  0.2898
  10023SM   C1513514   0.548   7.075   2.114  0.3520  0.6735 -0.2628
  10023SM  H15A13515   0.499   7.147   2.178 -0.2765 -1.3997  1.6901
  10023SM  H15B13516   0.557   7.110   2.012  0.8433  0.7259 -0.1996
  10023SM  H15C13517   0.641   7.042   2.157 -0.6268 -3.1945 -0.7052
  10023SM   C1413518   0.324   6.965   2.062  0.2398  0.2227 -0.2774
  10023SM  H14A13519   0.317   6.985   1.956  0.1742  1.9488  0.0245
  10023SM  H14B13520   0.272   7.052   2.098 -0.3824 -0.3591  0.2652
  10023SM  H14C13521   0.277   6.872   2.092  0.1453  0.4356  0.2489
  10023SM   C1313522   0.534   6.849   2.051 -0.2689  0.0183  0.9816
  10023SM  H13A13523   0.548   6.874   1.947 -1.8969  1.3958  1.0479
  10023SM  H13B13524   0.496   6.749   2.066  0.6461 -0.8473 -1.8743
  10023SM  H13C13525   0.635   6.844   2.091  0.4321 -0.0788 -0.6996
  10023SM   C1213526   0.454   6.911   2.273 -0.2861 -0.0672 -0.4085
  10023SM  H12A13527   0.555   6.907   2.311 -0.7586  1.1748  1.0843
  10023SM  H12B13528   0.432   6.805   2.276 -1.9525  0.2550 -0.0980
  10023SM   C1113529   0.358   6.989   2.361  0.0837 -0.3152 -0.8469
  10023SM  H11A13530   0.373   7.099   2.350  0.2389 -0.3086 -0.5827
  10023SM  H11B13531   0.378   6.969   2.469 -0.8007  0.0288 -0.6065
  10023SM     P13532   0.172   6.811   2.362  0.4295 -0.3953  0.4703
  10023SM   O1313533   0.031   6.801   2.321 -0.9037 -0.4199 -0.2286
  10023SM   O1413534   0.255   6.707   2.296  0.0393  0.6937 -0.1164
  10023SM   O1113535   0.178   6.807   2.523  0.2674  0.1530  0.0014
  10023SM   O1213536   0.227   6.956   2.331 -0.4886  1.2359 -0.0419
  10023SM   C1S13537   0.095   6.903   2.592  0.0638 -0.1174 -0.5869
  10023SM   H1S13538  -0.002   6.922   2.539  0.6922  1.9076 -1.0881
  10023SM   H1T13539   0.152   6.997   2.576  0.8427 -0.7915 -2.0117
  10023SM    NF13540  -0.035   6.956   2.790  0.1398 -0.3464 -0.2702
  10023SM   HNF13541  -0.002   7.038   2.837  0.1027 -0.7387  0.4502
  10023SM   C2S13542   0.070   6.873   2.740  0.2011 -0.1557  0.2741
  10023SM   H2S13543   0.036   6.767   2.741 -1.5412  0.3764  1.1424
  10023SM   C3S13544   0.200   6.887   2.818  0.5748 -0.4195  0.3021
  10023SM   H3S13545   0.246   6.988   2.808 -2.1289  0.8608 -0.0126
  10023SM    O313546   0.298   6.793   2.766  0.0408  0.2507  0.1551
  10023SM   HO313547   0.280   6.795   2.672 -0.8730 -1.1695  0.2657
  10023SM   C4S13548   0.177   6.850   2.957 -0.0150  0.4832 -0.4190
  10023SM   H4S13549   0.175   6.741   2.970  0.0792  0.6190  0.7805
  10023SM   C5S13550   0.145   6.934   3.059 -0.0648  0.3390  0.3408
  10023SM   H5S13551   0.122   7.037   3.029 -0.3415  0.9207  2.3555
  10023SM   C6S13552   0.125   6.896   3.200 -0.6160  0.3960  0.6841
  10023SM   H6S13553   0.066   6.802   3.206 -0.0825 -0.2642 -2.6316
  10023SM   H6T13554   0.077   6.987   3.242 -2.0864  0.5623 -1.2065
  10023SM   C7S13555   0.264   6.870   3.275 -0.1377 -0.7362  0.1933
  10023SM   H7S13556   0.340   6.946   3.245  0.8733 -2.2712 -1.3196
  10023SM   H7T13557   0.309   6.772   3.251 -0.9064 -1.2271  0.7122
  10023SM   C8S13558   0.234   6.870   3.428 -0.2244 -0.2591 -0.2519
  10023SM   H8S13559   0.152   6.799   3.453 -0.0360 -0.5728 -0.5092
  10023SM   H8T13560   0.212   6.976   3.450  2.1483  0.2383  0.0265
  10023SM   C9S13561   0.359   6.824   3.505  0.6818 -0.1963  0.0693
  10023SM   H9S13562   0.437   6.890   3.462  0.4530 -1.0174 -1.7040
  10023SM   H9T13563   0.397   6.724   3.474 -1.9086 -1.3745  0.3900
  10023SM  C10S13564   0.334   6.826   3.652  0.6608 -0.1436 -0.1557
  10023SM  H10S13565   0.251   6.762   3.690  0.8666  0.1099  0.7565
  10023SM  H10T13566   0.311   6.931   3.678 -0.5984 -1.1137  3.2514
  10023SM  C11S13567   0.462   6.782   3.723 -0.7502  0.0281 -0.0596
  10023SM  H11S13568   0.546   6.850   3.696 -0.1846  1.1355  3.8371
  10023SM  H11T13569   0.484   6.675   3.708  1.3171 -0.1428  3.2305
  10023SM  C12S13570   0.457   6.786   3.874 -0.8831 -0.0670  0.3830
  10023SM  H12S13571   0.381   6.712   3.908 -0.3727 -0.9957 -0.4264
  10023SM  H12T13572   0.424   6.884   3.915 -0.3719  0.1902  0.1847
  10023SM  C13S13573   0.598   6.738   3.936  0.1268 -0.2588 -0.1842
  10023SM  H13S13574   0.659   6.831   3.932  1.1449 -0.9607 -2.0636
  10023SM  H13T13575   0.635   6.656   3.872  1.2647 -0.3223  0.5314
  10023SM  C14S13576   0.596   6.688   4.083  0.0440  0.4083  0.3804
  10023SM  H14S13577   0.497   6.639   4.096  0.6297 -0.5615  1.3993
  10023SM  H14T13578   0.609   6.769   4.157  0.5075  2.2027 -1.5919
  10023SM  C15S13579   0.692   6.579   4.117 -0.4277 -0.3955 -0.4748
  10023SM  H15S13580   0.700   6.510   4.030  0.4209  0.2100 -0.8926
  10023SM  H15T13581   0.659   6.519   4.205 -1.7468 -0.4423 -0.9788
  10023SM  C16S13582   0.836   6.623   4.131  0.3021  0.5875  0.2610
  10023SM  H16S13583   0.848   6.695   4.215 -0.2187 -0.2119  1.0310
  10023SM  H16T13584   0.870   6.681   4.042 -0.1165  0.9279  0.3204
  10023SM  C17S13585   0.934   6.510   4.153 -0.3339 -0.1669  0.3008
  10023SM  H17S13586   0.910   6.445   4.240  1.0030 -3.1341 -1.3575
  10023SM  H17T13587   1.030   6.550   4.192  0.7012 -2.0116 -0.1989
  10023SM  C18S13588   0.961   6.428   4.025  0.4171  0.9071  0.7830
  10023SM  H18S13589   1.032   6.344   4.044 -0.0730  0.9347  3.0468
  10023SM  H18T13590   0.991   6.497   3.944 -2.4893  1.0331 -0.2915
  10023SM  H18U13591   0.873   6.374   3.985  0.0606  1.7015  0.4887
  10023SM   C1F13592  -0.162   6.926   2.760  0.1891  0.5096  0.3825
  10023SM    OF13593  -0.189   6.816   2.719 -0.1972  0.1799  0.2924
  10023SM   C2F13594  -0.263   7.037   2.777 -0.9287 -1.3106  0.6294
  10023SM   H2F13595  -0.327   7.044   2.686  0.0795 -0.6062 -0.0462
  10023SM   H2G13596  -0.213   7.136   2.788 -1.9462 -0.4937 -1.5547
  10023SM   C3F13597  -0.356   7.033   2.905 -0.1551  0.2904  0.5934
  10023SM   H3F13598  -0.409   6.935   2.909  0.5168 -0.3053 -2.5102
  10023SM   H3G13599  -0.438   7.107   2.894 -0.3296 -0.2084 -2.3761
  10023SM   C4F13600  -0.279   7.046   3.028 -0.0226  0.0751  0.3324
  10023SM   H4F13601  -0.224   7.143   3.029  1.0401 -0.4783 -0.8690
  10023SM   H4G13602  -0.208   6.960   3.031 -2.1005 -1.6930  0.7784
  10023SM   C5F13603  -0.371   7.044   3.158  0.7090 -0.6610  0.8665
  10023SM   H5F13604  -0.413   6.941   3.167  0.1351 -0.6187 -1.0116
  10023SM   H5G13605  -0.459   7.110   3.143 -1.4539 -3.6992 -0.8329
  10023SM   C6F13606  -0.302   7.081   3.286 -0.0468 -0.4392  0.3639
  10023SM   H6F13607  -0.260   7.183   3.295  1.8825 -1.1883  0.3798
  10023SM   H6G13608  -0.212   7.016   3.290  0.5945  0.4135  0.2036
  10023SM   C7F13609  -0.396   7.071   3.407 -0.3776  0.6566  0.1758
  10023SM   H7F13610  -0.425   6.964   3.409  1.5989  0.0894  1.9775
  10023SM   H7G13611  -0.495   7.113   3.379 -0.4048  1.5629  1.5421
  10023SM   C8F13612  -0.332   7.092   3.539 -0.3884 -0.0540  0.0918
  10023SM   H8F13613  -0.397   7.045   3.616  0.0216 -0.2333  0.3265
  10023SM   H8G13614  -0.300   7.198   3.547  0.7261 -0.2589 -1.3167
  10023SM   C9F13615  -0.206   7.002   3.557 -0.1628  0.2920 -0.1640
  10023SM   H9F13616  -0.121   7.040   3.496 -1.1927 -0.2190 -2.0056
  10023SM   H9G13617  -0.232   6.900   3.521 -0.4599  0.6901 -1.1235
  10023SM  C10F13618  -0.175   6.998   3.703  0.1771  0.0927 -0.0216
  10023SM  H10F13619  -0.261   6.946   3.750  0.6762 -0.4884  0.2583
  10023SM  H10G13620  -0.177   7.098   3.752 -0.4424  1.3092 -2.3625
  10023SM  C11F13621  -0.047   6.921   3.735  0.2050  0.1548  0.7940
  10023SM  H11F13622   0.041   6.978   3.697 -1.7641  2.4820 -0.5936
  10023SM  H11G13623  -0.040   6.823   3.682  1.5991  0.6300  0.0289
  10023SM  C12F13624  -0.033   6.914   3.886 -0.2514  0.0321  0.4466
  10023SM  H12F13625  -0.109   6.844   3.927 -0.0576 -0.3691  0.1260
  10023SM  H12G13626  -0.061   7.012   3.930  0.1130  0.0863  0.5573
  10023SM  C13F13627   0.094   6.864   3.934 -1.0596  0.1639 -0.1119
  10023SM  H13F13628   0.175   6.919   3.881 -1.1549  0.5609  0.1558
  10023SM  H13G13629   0.111   6.759   3.902 -2.0527  0.1564 -0.6259
  10023SM  C14F13630   0.102   6.897   4.083 -0.2054  0.1787 -0.5043
  10023SM  H14F13631   0.178   6.824   4.118  2.1856  2.2451 -1.1172
  10023SM  H14G13632   0.007   6.863   4.130 -1.2624 -0.5416 -3.0321
  10023SM  C15F13633   0.134   7.045   4.129  0.1226  0.5964  1.3650
  10023SM  H15F13634   0.054   7.104   4.078 -0.0783 -1.6963 -1.2438
  10023SM  H15G13635   0.228   7.092   4.094 -1.1355  1.4985 -1.0430
  10023SM  C16F13636   0.122   7.069   4.277 -0.3749  0.3558 -0.0852
  10023SM  H16F13637   0.042   7.005   4.321  0.4397  0.3593  1.4606
  10023SM  H16G13638   0.090   7.174   4.291  2.8914  1.5180 -0.6899
  10023SM  C17F13639   0.259   7.059   4.354  0.1055 -0.1306 -0.7462
  10023SM  H17F13640   0.328   7.129   4.301 -1.1359  1.3309 -0.5186
  10023SM  H17G13641   0.300   6.956   4.347  2.8989  0.6791  1.5826
  10023SM  C18F13642   0.248   7.105   4.508 -0.5432  0.2069 -0.6820
  10023SM  H18F13643   0.352   7.105   4.547 -0.8045  0.7604  0.0338
  10023SM  H18G13644   0.181   7.031   4.558  0.6225 -2.5082 -2.8632
  10023SM  C19F13645   0.183   7.242   4.536  0.1813  0.2514  0.6616
  10023SM  H19F13646   0.076   7.215   4.522  0.4896 -0.0927 -1.3277
  10023SM  H19G13647   0.222   7.324   4.473 -1.2045  1.5225  1.3971
  10023SM  C20F13648   0.200   7.282   4.680 -0.3475 -0.3961  0.2530
  10023SM  H20F13649   0.307   7.271   4.708  0.1420 -0.6891 -1.5863
  10023SM  H20G13650   0.156   7.205   4.746 -0.0303 -0.3767  0.4906
  10023SM  C21F13651   0.140   7.419   4.719 -0.8897  0.2532  0.0769
  10023SM  H21F13652   0.145   7.484   4.629 -1.9514  2.1408  1.3109
  10023SM  H21G13653   0.207   7.471   4.791  1.4778  0.7416 -2.3122
  10023SM  C22F13654  -0.000   7.431   4.779  0.5241  0.5919  0.4413
  10023SM  H22F13655  -0.072   7.398   4.700  0.9600 -0.7019  0.5720
  10023SM  H22G13656  -0.019   7.538   4.804 -0.9497  0.3374  0.5337
  10023SM  C23F13657  -0.016   7.350   4.908  0.0044  0.5035  0.2913
  10023SM  H23F13658   0.004   7.244   4.885 -2.2031  0.1178 -0.0936
  10023SM  H23G13659  -0.121   7.353   4.944  0.6873 -0.2445  2.5324
  10023SM  H23H13660   0.054   7.385   4.987  0.7000 -0.6244  0.1989
  101CHL1    C313661   4.363   5.315   6.683  0.3373  0.3604 -0.2205
  101CHL1    H313662   4.469   5.339   6.707  0.3905 -1.0731  1.1268
  101CHL1    O313663   4.318   5.224   6.781 -0.3330 -0.4871 -0.4344
  101CHL1   H3'13664   4.224   5.241   6.774  0.2143  3.5683 -0.4989
  101CHL1    C413665   4.286   5.444   6.688  0.4156 -0.3265 -0.0041
  101CHL1   H4A13666   4.179   5.414   6.680  0.8319 -1.3714 -2.6387
  101CHL1   H4B13667   4.297   5.498   6.785 -1.6208  1.2502 -0.5850
  101CHL1    C513668   4.309   5.539   6.568  0.3693  0.4448 -0.1833
  101CHL1    C613669   4.340   5.665   6.591 -0.4961  0.6963 -0.0644
  101CHL1    H613670   4.323   5.698   6.695 -1.0002  1.2925 -0.3299
  101CHL1    C713671   4.394   5.754   6.484 -0.3432  0.5879  0.7600
  101CHL1   H7A13672   4.355   5.857   6.499 -0.7875  0.3969  0.9213
  101CHL1   H7B13673   4.506   5.757   6.484 -0.3558  2.2597 -0.2534
  101CHL1    C813674   4.342   5.706   6.347  0.5682 -0.0679  0.0419
  101CHL1    H813675   4.233   5.716   6.335  0.8781  1.4707 -1.9555
  101CHL1   C1413676   4.408   5.797   6.242  0.3248  0.0439 -0.3533
  101CHL1   H1413677   4.518   5.790   6.254  0.4819  3.1220  0.8818
  101CHL1   C1513678   4.383   5.944   6.253 -0.0276  0.0661  0.0633
  101CHL1  H15A13679   4.272   5.955   6.258 -0.1383 -1.3953  1.7365
  101CHL1  H15B13680   4.436   5.990   6.339  1.9184  0.1959 -1.1454
  101CHL1   C1613681   4.435   5.999   6.120  0.4313  0.4491 -0.1898
  101CHL1  H16A13682   4.356   6.057   6.068 -0.4934 -0.8583 -0.3007
  101CHL1  H16B13683   4.525   6.065   6.126 -0.2182  1.3664 -0.3707
  101CHL1   C1713684   4.470   5.877   6.028  0.0242  0.0910  0.0170
  101CHL1   H1713685   4.581   5.864   6.032 -0.0718 -1.2803 -1.2116
  101CHL1   C1313686   4.392   5.764   6.091  0.3271  0.0562  0.6699
  101CHL1   C1813687   4.240   5.780   6.053  0.1191 -0.2141  0.2620
  101CHL1  H18A13688   4.208   5.760   5.948 -0.7959 -1.2455  0.7079
  101CHL1  H18B13689   4.180   5.710   6.115  1.4901 -1.2507  0.4517
  101CHL1  H18C13690   4.205   5.886   6.052 -1.5405 -0.7278  0.7973
  101CHL1   C1213691   4.433   5.622   6.063 -0.2101  0.2346  0.8614
  101CHL1  H12A13692   4.399   5.601   5.959  2.5626  2.7326 -0.6794
  101CHL1  H12B13693   4.544   5.615   6.058 -0.1345  1.3215  0.8402
  101CHL1   C1113694   4.373   5.520   6.172 -0.5545 -0.1416  0.2824
  101CHL1  H11A13695   4.267   5.499   6.147 -0.2610 -2.4215  0.7852
  101CHL1  H11B13696   4.433   5.428   6.159 -0.4214 -0.1190  0.7190
  101CHL1    C913697   4.384   5.559   6.316 -0.6094 -0.9230  0.3751
  101CHL1    H913698   4.494   5.557   6.333 -0.4503  0.5332 -0.3224
  101CHL1   C1013699   4.331   5.470   6.428  0.6946 -0.0513 -0.0676
  101CHL1   C1913700   4.185   5.440   6.388 -0.1862  0.2179 -0.2608
  101CHL1  H19A13701   4.126   5.528   6.355  0.4438  0.9762  0.5984
  101CHL1  H19B13702   4.180   5.361   6.310 -0.0814 -2.3973  2.1687
  101CHL1  H19C13703   4.143   5.385   6.476  0.2956 -2.5390 -1.6269
  101CHL1    C113704   4.417   5.341   6.439 -0.5780  0.0264 -0.4042
  101CHL1   H1A13705   4.427   5.296   6.338  2.2577  0.8279 -0.5836
  101CHL1   H1B13706   4.520   5.370   6.471 -0.2271 -3.1561  1.8133
  101CHL1    C213707   4.368   5.246   6.544  0.6532 -0.3669  0.2483
  101CHL1   H2A13708   4.437   5.160   6.553  0.2858 -0.8397 -1.1924
  101CHL1   H2B13709   4.272   5.202   6.511  1.0705 -0.3530 -1.0329
  101CHL1   C2013710   4.452   5.907   5.878 -0.1608 -0.3026  0.6316
  101CHL1   H2013711   4.344   5.918   5.852 -0.4633 -1.0524  1.4955
  101CHL1   C2113712   4.497   5.787   5.788 -0.3590 -0.6070  0.0336
  101CHL1  H21A13713   4.532   5.826   5.690 -0.0475 -0.7475  0.0868
  101CHL1  H21B13714   4.418   5.713   5.761 -1.3832  0.9253 -1.3901
  101CHL1  H21C13715   4.588   5.736   5.826  0.8422  0.9128 -0.6747
  101CHL1   C2213716   4.535   6.034   5.836  0.6768 -0.5296 -0.2129
  101CHL1  H22A13717   4.521   6.121   5.904  1.5904 -1.7840  1.6503
  101CHL1  H22B13718   4.638   5.993   5.835  0.7858 -0.3857 -2.7744
  101CHL1   C2313719   4.513   6.091   5.697  0.6834 -1.0529 -0.0879
  101CHL1  H23A13720   4.540   6.011   5.626 -0.1874 -3.5519  2.2254
  101CHL1  H23B13721   4.404   6.107   5.681  1.1578  1.9682 -1.0325
  101CHL1   C2413722   4.575   6.234   5.669  0.1218 -0.7305  0.4130
  101CHL1  H24A13723   4.525   6.310   5.732 -0.6634 -1.5200  0.7726
  101CHL1  H24B13724   4.681   6.218   5.696  0.0868 -1.1798  0.2985
  101CHL1   C2513725   4.566   6.268   5.516  0.5369 -0.2079 -0.7384
  101CHL1   H2513726   4.598   6.181   5.453 -1.4794  0.1721 -2.4016
  101CHL1   C2613727   4.430   6.305   5.464 -0.3222 -0.1293 -0.7526
  101CHL1  H26A13728   4.357   6.222   5.478  0.4897 -0.8748 -0.8292
  101CHL1  H26B13729   4.395   6.400   5.510  1.4691  0.7361 -1.0575
  101CHL1  H26C13730   4.434   6.320   5.354  3.7742  0.3220 -0.7109
  101CHL1   C2713731   4.657   6.384   5.482  0.0021 -0.4241 -0.1198
  101CHL1  H27A13732   4.642   6.418   5.377 -0.1501 -1.4361 -0.4375
  101CHL1  H27B13733   4.637   6.474   5.544  1.1873  0.8413 -1.4700
  101CHL1  H27C13734   4.762   6.362   5.509  0.0473  1.5635  1.6404
  102CHL1    C313735   1.560   3.371   6.174 -0.4179  0.1167 -0.3453
  102CHL1    H313736   1.451   3.347   6.171 -0.8528  2.0258 -2.8049
  102CHL1    O313737   1.588   3.403   6.306  0.1120 -0.0908 -0.1616
  102CHL1   H3'13738   1.530   3.345   6.357  2.7332  0.8694  4.5177
  102CHL1    C413739   1.644   3.249   6.129 -0.6798  0.7569  0.6159
  102CHL1   H4A13740   1.750   3.275   6.151 -0.2533 -1.7038  1.7676
  102CHL1   H4B13741   1.636   3.173   6.210  0.7476  0.4686  0.5048
  102CHL1    C513742   1.624   3.208   5.985  0.9687 -1.0570 -0.2146
  102CHL1    C613743   1.577   3.088   5.951  0.2027 -0.2807  0.0149
  102CHL1    H613744   1.578   3.016   6.034 -2.5152 -0.3930  0.0454
  102CHL1    C713745   1.546   3.036   5.817  0.4363 -0.4799 -0.1141
  102CHL1   H7A13746   1.569   2.927   5.805 -1.0151 -0.9517  1.0878
  102CHL1   H7B13747   1.438   3.046   5.794 -0.2610  1.1452  3.2240
  102CHL1    C813748   1.628   3.131   5.714  0.3132 -1.0772  0.3767
  102CHL1    H813749   1.736   3.108   5.722  0.2986 -1.2278  0.1394
  102CHL1   C1413750   1.576   3.097   5.573 -0.2960 -0.0006  0.5398
  102CHL1   H1413751   1.468   3.121   5.583 -1.2678 -2.6906 -2.0148
  102CHL1   C1513752   1.577   2.946   5.526  0.1044 -0.5209 -0.3935
  102CHL1  H15A13753   1.676   2.904   5.553  0.5088  0.3615 -0.4844
  102CHL1  H15B13754   1.496   2.890   5.578  0.4108  0.2500  0.9732
  102CHL1   C1613755   1.574   2.960   5.373  0.8595 -0.1636  0.7612
  102CHL1  H16A13756   1.665   2.923   5.321 -0.0294 -1.5869  0.1636
  102CHL1  H16B13757   1.488   2.908   5.325 -0.2074 -0.1099  2.5101
  102CHL1   C1713758   1.547   3.109   5.342  0.8562 -0.1845  0.7216
  102CHL1   H1713759   1.440   3.136   5.342  0.6083 -1.0897 -0.5042
  102CHL1   C1313760   1.623   3.182   5.455 -0.2477  0.4252 -0.4920
  102CHL1   C1813761   1.776   3.175   5.433 -0.6942 -0.6694  0.4460
  102CHL1  H18A13762   1.806   3.229   5.341 -0.4463 -0.0687  0.8711
  102CHL1  H18B13763   1.825   3.229   5.517  0.4513  0.5734 -0.9751
  102CHL1  H18C13764   1.794   3.065   5.424  1.2939 -0.3381 -0.2641
  102CHL1   C1213765   1.590   3.329   5.482 -0.1074  0.2339 -0.8316
  102CHL1  H12A13766   1.638   3.400   5.411 -0.2570  0.7092 -0.4709
  102CHL1  H12B13767   1.482   3.354   5.476  0.1100  0.9346 -2.1131
  102CHL1   C1113768   1.639   3.373   5.622  0.3056 -0.0439  0.5064
  102CHL1  H11A13769   1.749   3.388   5.621  0.0165  2.4421 -0.4856
  102CHL1  H11B13770   1.607   3.477   5.645 -0.3808 -0.3458  0.9304
  102CHL1    C913771   1.597   3.286   5.737  0.4263  0.4056 -0.6477
  102CHL1    H913772   1.486   3.292   5.734  0.1559  0.0497  3.3137
  102CHL1   C1013773   1.640   3.322   5.881 -0.2246 -0.4800  0.1680
  102CHL1   C1913774   1.789   3.352   5.874 -0.5651 -0.4422 -0.1265
  102CHL1  H19A13775   1.814   3.438   5.809  0.6377 -3.0487 -3.4047
  102CHL1  H19B13776   1.837   3.372   5.972 -1.8164  2.7636 -0.0368
  102CHL1  H19C13777   1.837   3.271   5.815 -1.5619  0.5053 -2.3575
  102CHL1    C113778   1.567   3.445   5.931 -0.4788 -0.3018  0.2898
  102CHL1   H1A13779   1.596   3.525   5.859  0.0706  1.0044  1.9021
  102CHL1   H1B13780   1.461   3.422   5.909 -0.2408 -3.0330  1.5378
  102CHL1    C213781   1.588   3.491   6.076 -0.2139 -0.2370  0.3119
  102CHL1   H2A13782   1.514   3.565   6.113 -0.1684 -0.2013  0.3321
  102CHL1   H2B13783   1.694   3.517   6.100 -0.0032 -0.3749 -0.4402
  102CHL1   C2013784   1.593   3.136   5.197  0.3248  0.1840 -0.1250
  102CHL1   H2013785   1.702   3.118   5.185  0.3801 -0.1297  0.7692
  102CHL1   C2113786   1.563   3.279   5.153 -0.1715 -0.2102  0.2845
  102CHL1  H21A13787   1.572   3.297   5.044  2.0574 -0.0571  0.4496
  102CHL1  H21B13788   1.637   3.353   5.190 -0.4696  1.4142 -2.1264
  102CHL1  H21C13789   1.463   3.318   5.180  0.5805  0.9104  1.5540
  102CHL1   C2213790   1.521   3.041   5.102 -0.5443 -0.8177  0.8897
  102CHL1  H22A13791   1.550   3.072   5.000  0.3244 -0.3457  1.2771
  102CHL1  H22B13792   1.554   2.936   5.117  0.6759 -0.7148 -0.8017
  102CHL1   C2313793   1.368   3.044   5.092  0.1802  0.2150  0.2908
  102CHL1  H23A13794   1.328   2.991   5.181  1.0532 -1.4053 -0.2394
  102CHL1  H23B13795   1.341   3.152   5.098 -0.0292  0.2434 -0.9008
  102CHL1   C2413796   1.315   2.983   4.961 -1.2107  1.0929  0.1866
  102CHL1  H24A13797   1.335   3.050   4.875  0.7320 -1.0441 -1.1609
  102CHL1  H24B13798   1.367   2.887   4.940  0.3711  1.7446  0.9759
  102CHL1   C2513799   1.162   2.959   4.957 -0.0382  0.4071  0.2587
  102CHL1   H2513800   1.143   2.883   5.036  1.7828 -1.7126 -1.2123
  102CHL1   C2613801   1.074   3.083   4.977 -0.2659  0.0706 -0.1990
  102CHL1  H26A13802   0.970   3.048   4.961  0.4273 -0.9029 -3.2813
  102CHL1  H26B13803   1.094   3.116   5.081  1.4974 -0.7278 -0.2503
  102CHL1  H26C13804   1.089   3.174   4.914 -1.6369  1.4996  1.4277
  102CHL1   C2713805   1.116   2.886   4.827 -0.1557  0.1252  0.2553
  102CHL1  H27A13806   1.008   2.861   4.827  0.4572 -3.6301 -3.9821
  102CHL1  H27B13807   1.139   2.944   4.735 -0.3315  0.1988  0.2569
  102CHL1  H27C13808   1.189   2.804   4.815 -0.2602 -0.0455  0.7713
  103CHL1    C313809   1.154   3.972   6.198 -0.1094 -0.3650  0.0289
  103CHL1    H313810   1.052   3.932   6.175 -0.6523 -0.0492  1.7327
  103CHL1    O313811   1.169   4.017   6.331 -0.2890  0.1612  0.1431
  103CHL1   H3'13812   1.258   4.053   6.331  0.9751 -2.7242  0.9827
  103CHL1    C413813   1.249   3.855   6.171 -0.0682  0.7805 -0.6246
  103CHL1   H4A13814   1.352   3.890   6.189 -0.3098 -0.0303  3.0331
  103CHL1   H4B13815   1.246   3.787   6.259 -0.6854  1.3408 -0.2042
  103CHL1    C513816   1.241   3.794   6.033 -0.1710 -0.4015 -0.5003
  103CHL1    C613817   1.227   3.665   6.011 -0.3431 -0.3502 -0.2748
  103CHL1    H613818   1.233   3.595   6.096 -0.5857 -2.3368 -1.8002
  103CHL1    C713819   1.218   3.603   5.879  0.1105  0.3245  0.7363
  103CHL1   H7A13820   1.274   3.509   5.862 -0.4592  0.0978  0.0934
  103CHL1   H7B13821   1.115   3.563   5.870 -0.2328  1.0924  1.1422
  103CHL1    C813822   1.251   3.705   5.771 -0.4963  0.0692  0.3855
  103CHL1    H813823   1.361   3.721   5.764 -0.6349  1.9002  1.5814
  103CHL1   C1413824   1.200   3.658   5.631  0.1103  0.3298 -0.0320
  103CHL1   H1413825   1.090   3.669   5.640 -0.0246 -1.7799  1.5150
  103CHL1   C1513826   1.226   3.515   5.585 -0.1547 -0.8152  0.3547
  103CHL1  H15A13827   1.320   3.470   5.624 -0.1965 -0.1138  1.3271
  103CHL1  H15B13828   1.143   3.455   5.627  0.4959 -0.5788  2.0665
  103CHL1   C1613829   1.224   3.527   5.430  0.3660  0.5902 -0.0351
  103CHL1  H16A13830   1.325   3.496   5.396  0.1990 -0.2634  0.2070
  103CHL1  H16B13831   1.139   3.464   5.396 -1.8919  2.2116  2.2147
  103CHL1   C1713832   1.187   3.668   5.396 -0.6297 -0.0855  0.0930
  103CHL1   H1713833   1.076   3.667   5.406 -0.5944 -0.2625  0.4904
  103CHL1   C1313834   1.241   3.748   5.512  0.1751  0.1953 -0.2391
  103CHL1   C1813835   1.395   3.768   5.489  0.7003  0.4307 -0.0835
  103CHL1  H18A13836   1.450   3.755   5.585  1.9035 -4.0533 -1.1290
  103CHL1  H18B13837   1.439   3.688   5.425  0.6296 -1.4659  2.0653
  103CHL1  H18C13838   1.430   3.862   5.441 -0.2223 -0.8581 -3.5696
  103CHL1   C1213839   1.180   3.887   5.539  0.1305  0.1278  0.7569
  103CHL1  H12A13840   1.220   3.957   5.462 -2.2203  0.4735 -0.2410
  103CHL1  H12B13841   1.069   3.875   5.540  0.2264 -1.0483 -0.6206
  103CHL1   C1113842   1.218   3.942   5.681  0.4272  0.2709  0.5345
  103CHL1  H11A13843   1.327   3.961   5.677  0.8242 -1.7028  1.1621
  103CHL1  H11B13844   1.163   4.037   5.703  0.9146  0.1897  2.1986
  103CHL1    C913845   1.193   3.850   5.798  0.0488  0.3180  0.6163
  103CHL1    H913846   1.083   3.839   5.803  0.0007 -0.5314 -1.3886
  103CHL1   C1013847   1.252   3.907   5.927 -0.2211 -0.1431 -0.4819
  103CHL1   C1913848   1.403   3.939   5.919  0.4974 -0.4145 -0.1167
  103CHL1  H19A13849   1.466   3.855   5.884  1.2601  0.4646 -0.8988
  103CHL1  H19B13850   1.424   4.017   5.843 -1.0845  0.6702  0.4901
  103CHL1  H19C13851   1.435   3.980   6.017 -3.0557  2.3575  0.0948
  103CHL1    C113852   1.176   4.038   5.951 -0.1198  0.7066 -0.2551
  103CHL1   H1A13853   1.219   4.117   5.886  1.4541  0.9935  1.0824
  103CHL1   H1B13854   1.068   4.024   5.928 -0.2553  2.5975 -0.9357
  103CHL1    C213855   1.188   4.084   6.102  0.3552  0.1701  0.0689
  103CHL1   H2A13856   1.103   4.152   6.120 -1.3682 -1.9991  0.5212
  103CHL1   H2B13857   1.292   4.122   6.118  0.2738  0.6605 -0.5480
  103CHL1   C2013858   1.217   3.715   5.249 -0.0020 -0.3182 -0.2600
  103CHL1   H2013859   1.309   3.776   5.247 -0.3500  0.2258  0.2034
  103CHL1   C2113860   1.101   3.811   5.212  0.1491 -0.1205 -0.0544
  103CHL1  H21A13861   1.074   3.898   5.276 -0.0949 -0.1130 -0.1695
  103CHL1  H21B13862   1.011   3.762   5.170 -1.0548  0.8261  1.3547
  103CHL1  H21C13863   1.139   3.886   5.139  0.3597 -0.8744 -0.7356
  103CHL1   C2213864   1.233   3.598   5.145  0.1413  0.0770  0.1920
  103CHL1  H22A13865   1.319   3.539   5.182 -1.1770 -1.9097  0.2618
  103CHL1  H22B13866   1.145   3.530   5.143 -0.8135  1.1970  1.7985
  103CHL1   C2313867   1.249   3.661   5.006 -0.4346  0.2670 -0.6920
  103CHL1  H23A13868   1.157   3.712   4.970 -0.8863 -0.6151 -0.8212
  103CHL1  H23B13869   1.321   3.746   5.015 -0.9821  0.6320  0.4966
  103CHL1   C2413870   1.293   3.563   4.901 -0.1557 -0.3795  0.0119
  103CHL1  H24A13871   1.329   3.626   4.816 -1.8256 -0.3229 -0.6952
  103CHL1  H24B13872   1.386   3.511   4.929  0.0251 -0.7530 -1.2050
  103CHL1   C2513873   1.193   3.459   4.838 -0.1354  0.3778 -0.7702
  103CHL1   H2513874   1.138   3.416   4.925 -0.9454 -1.2552 -2.0336
  103CHL1   C2613875   1.087   3.525   4.749  0.0649  0.5950  0.0733
  103CHL1  H26A13876   1.003   3.459   4.718  0.8008  1.1228 -3.3501
  103CHL1  H26B13877   1.051   3.622   4.791 -0.7272 -0.3277  1.6493
  103CHL1  H26C13878   1.134   3.558   4.655  0.1931 -0.3812 -0.2178
  103CHL1   C2713879   1.273   3.348   4.777 -0.3878  0.6488 -0.1575
  103CHL1  H27A13880   1.343   3.394   4.704 -1.5097  0.3953 -1.4269
  103CHL1  H27B13881   1.324   3.290   4.858  2.0104  3.4628  0.5060
  103CHL1  H27C13882   1.198   3.282   4.729  1.0761 -2.0579  0.9901
  104CHL1    C313883   6.338   3.673   7.186  0.7186  0.0847  0.3741
  104CHL1    H313884   6.373   3.582   7.133  1.1180  0.7411 -0.5274
  104CHL1    O313885   6.374   3.676   7.322 -0.0728 -0.0889 -0.2199
  104CHL1   H3'13886   6.344   3.759   7.359  2.9122  0.9717  0.0243
  104CHL1    C413887   6.374   3.798   7.106 -0.9073 -0.3770 -0.2091
  104CHL1   H4A13888   6.355   3.890   7.164 -1.1525 -0.3233 -0.3747
  104CHL1   H4B13889   6.484   3.805   7.092 -0.9448  0.8983  0.0312
  104CHL1    C513890   6.294   3.806   6.980  0.5475  0.1683  0.4838
  104CHL1    C613891   6.352   3.823   6.859 -0.6345 -0.4724  0.0507
  104CHL1    H613892   6.460   3.839   6.848 -0.9554  1.3701 -0.7501
  104CHL1    C713893   6.288   3.851   6.728 -0.5527  0.0303 -0.1874
  104CHL1   H7A13894   6.339   3.937   6.681  0.4747 -0.1264  0.6109
  104CHL1   H7B13895   6.293   3.763   6.659 -1.4481  0.4430 -0.7962
  104CHL1    C813896   6.138   3.879   6.751 -0.5780  0.5242 -0.0562
  104CHL1    H813897   6.130   3.978   6.800 -2.4772 -0.2784  1.3963
  104CHL1   C1413898   6.063   3.871   6.620  0.1911  0.2922  0.4047
  104CHL1   H1413899   6.077   3.764   6.592 -3.5494 -0.2165  0.0406
  104CHL1   C1513900   6.122   3.949   6.496  0.3805  0.2976  0.3696
  104CHL1  H15A13901   6.135   4.050   6.541  0.3284 -0.6528  2.6829
  104CHL1  H15B13902   6.212   3.908   6.445 -1.1217  0.6276 -2.7919
  104CHL1   C1613903   6.003   3.948   6.397 -0.2528 -0.3334 -0.5623
  104CHL1  H16A13904   5.988   4.057   6.379 -0.3262 -0.7823 -3.7504
  104CHL1  H16B13905   6.026   3.895   6.302 -1.3521 -0.4016 -0.8006
  104CHL1   C1713906   5.883   3.884   6.475  0.2947  0.0277 -0.6623
  104CHL1   H1713907   5.868   3.778   6.448 -0.5185  0.1675 -0.8053
  104CHL1   C1313908   5.910   3.890   6.624 -0.1618  0.4387 -0.0219
  104CHL1   C1813909   5.871   4.024   6.685 -0.3295 -0.3720 -0.1170
  104CHL1  H18A13910   5.922   4.039   6.782 -0.0218 -0.3684 -0.2767
  104CHL1  H18B13911   5.899   4.106   6.616  0.9975 -0.9411 -0.2840
  104CHL1  H18C13912   5.761   4.026   6.700 -0.2426  0.8486  0.4836
  104CHL1   C1213913   5.857   3.771   6.706  0.0563 -0.3347 -0.8104
  104CHL1  H12A13914   5.746   3.769   6.715 -0.2086  2.5052 -2.4024
  104CHL1  H12B13915   5.883   3.675   6.655 -1.7268 -2.1817  1.5405
  104CHL1   C1113916   5.919   3.774   6.847  0.4369  0.1892 -0.5616
  104CHL1  H11A13917   5.892   3.872   6.890  0.9116 -0.1231  0.4890
  104CHL1  H11B13918   5.877   3.704   6.923 -0.4460  1.1832 -0.1079
  104CHL1    C913919   6.078   3.768   6.846 -0.6352 -0.1923 -0.4606
  104CHL1    H913920   6.102   3.666   6.809 -0.2201 -0.8716  1.5712
  104CHL1   C1013921   6.142   3.787   6.984 -0.9375  0.2006 -1.1211
  104CHL1   C1913922   6.077   3.909   7.063  0.1319  0.2834  0.6160
  104CHL1  H19A13923   6.095   4.004   7.007  0.0041 -0.9363 -1.6259
  104CHL1  H19B13924   5.968   3.891   7.075 -0.0774  1.2672  0.3093
  104CHL1  H19C13925   6.118   3.919   7.166  0.9306  0.5863  0.2747
  104CHL1    C113926   6.115   3.655   7.066 -0.1117  0.6910 -0.2819
  104CHL1   H1A13927   6.004   3.648   7.078 -0.2734  1.4573 -1.2336
  104CHL1   H1B13928   6.144   3.565   7.008 -0.4953  1.9373 -2.5210
  104CHL1    C213929   6.186   3.651   7.201 -0.1505 -0.1198  0.1310
  104CHL1   H2A13930   6.164   3.550   7.241 -2.3667  0.2355 -0.0469
  104CHL1   H2B13931   6.149   3.715   7.284 -0.6509 -0.9915  0.5960
  104CHL1   C2013932   5.752   3.966   6.443 -0.8637  1.0341 -0.1263
  104CHL1   H2013933   5.762   4.070   6.481  0.5666 -0.0829  2.7611
  104CHL1   C2113934   5.626   3.890   6.491 -0.0590 -0.1621  0.3646
  104CHL1  H21A13935   5.624   3.891   6.602 -0.9178 -0.9265  0.3645
  104CHL1  H21B13936   5.623   3.788   6.449  1.7727 -0.7621  1.5294
  104CHL1  H21C13937   5.541   3.955   6.461  0.6317  0.9599  0.7588
  104CHL1   C2213938   5.737   3.990   6.288 -0.5143  0.8181  0.2971
  104CHL1  H22A13939   5.636   4.035   6.289  0.6284  3.6848 -1.1851
  104CHL1  H22B13940   5.810   4.069   6.261  0.5805 -0.5442 -0.9270
  104CHL1   C2313941   5.744   3.865   6.189 -0.0324  0.2814  0.5936
  104CHL1  H23A13942   5.811   3.781   6.218 -0.7002 -0.7908 -0.8370
  104CHL1  H23B13943   5.640   3.826   6.199 -0.2955  0.6244 -0.6238
  104CHL1   C2413944   5.780   3.921   6.049  0.4581 -0.1228 -0.3572
  104CHL1  H24A13945   5.723   4.014   6.027 -0.2610 -0.6551 -0.7707
  104CHL1  H24B13946   5.889   3.946   6.044  0.6097 -0.3953  1.1567
  104CHL1   C2513947   5.757   3.814   5.942  0.3986 -0.5605  0.2106
  104CHL1   H2513948   5.810   3.721   5.972 -0.1315  0.0269  3.3006
  104CHL1   C2613949   5.610   3.780   5.931 -0.1154  0.1541 -0.1940
  104CHL1  H26A13950   5.569   3.731   6.022 -0.6425 -1.6314 -1.3419
  104CHL1  H26B13951   5.553   3.872   5.906  2.3743  2.5546  2.2941
  104CHL1  H26C13952   5.588   3.713   5.845 -0.4759 -0.2741  0.2293
  104CHL1   C2713953   5.816   3.858   5.806 -0.7396  0.0107 -0.0776
  104CHL1  H27A13954   5.765   3.950   5.771  2.3753  1.6260 -0.7794
  104CHL1  H27B13955   5.921   3.886   5.832 -1.0820  1.3000  0.0007
  104CHL1  H27C13956   5.817   3.775   5.732 -2.5960  1.2285 -1.5576
  105CHL1    C313957   0.033   2.740   7.080  0.8354  0.5525  0.4626
  105CHL1    H313958   0.133   2.762   7.036  0.1414 -0.2478 -1.6681
  105CHL1    O313959   0.054   2.711   7.224  0.1123 -0.1651 -0.1355
  105CHL1   H3'13960   0.106   2.630   7.218  1.1443  0.5822 -2.3133
  105CHL1    C413961  -0.061   2.861   7.057 -0.4887 -0.5074  0.4956
  105CHL1   H4A13962  -0.154   2.852   7.118 -1.1079  2.1201  0.0414
  105CHL1   H4B13963  -0.011   2.942   7.115 -0.6872  0.1691 -0.2677
  105CHL1    C513964  -0.091   2.891   6.911  0.8134 -0.3307 -0.1996
  105CHL1    C613965  -0.064   3.014   6.861 -0.1270 -0.2700 -0.2436
  105CHL1    H613966  -0.032   3.093   6.930  1.0361 -1.3604  0.4998
  105CHL1    C713967  -0.096   3.051   6.717  0.6177  0.1619  0.8466
  105CHL1   H7A13968  -0.155   3.145   6.716  0.4173  0.0353  0.4990
  105CHL1   H7B13969  -0.007   3.072   6.653 -1.2568  0.6024 -1.8055
  105CHL1    C813970  -0.171   2.942   6.633  0.1083  0.1733  0.2826
  105CHL1    H813971  -0.277   2.962   6.661 -0.0103 -0.1515  0.0694
  105CHL1   C1413972  -0.154   2.965   6.478  0.4934  0.0325 -0.8708
  105CHL1   H1413973  -0.045   2.969   6.454  0.8718 -0.3280  0.6504
  105CHL1   C1513974  -0.220   3.091   6.427  0.1087 -0.0760 -0.2514
  105CHL1  H15A13975  -0.308   3.117   6.489  0.3811  0.3451 -0.0338
  105CHL1  H15B13976  -0.145   3.173   6.434  1.1817 -1.0877  0.5108
  105CHL1   C1613977  -0.258   3.055   6.283 -0.6924 -0.4393  0.2286
  105CHL1  H16A13978  -0.366   3.080   6.276 -0.8997 -0.5177  2.5240
  105CHL1  H16B13979  -0.192   3.119   6.220  0.3312 -1.1868  0.5244
  105CHL1   C1713980  -0.215   2.914   6.254  0.8142 -0.1994 -0.4471
  105CHL1   H1713981  -0.107   2.918   6.232  1.2069 -0.3752  1.3105
  105CHL1   C1313982  -0.220   2.855   6.394 -0.8171 -0.4183  0.6222
  105CHL1   C1813983  -0.368   2.827   6.434  0.3963 -0.7170  0.0770
  105CHL1  H18A13984  -0.380   2.815   6.544 -0.5913 -0.0322  0.0613
  105CHL1  H18B13985  -0.436   2.908   6.399  0.8619  0.2587  1.3279
  105CHL1  H18C13986  -0.406   2.736   6.383  0.1092 -0.3299 -0.4183
  105CHL1   C1213987  -0.135   2.730   6.426 -0.1507 -0.0901 -0.5955
  105CHL1  H12A13988  -0.183   2.642   6.377 -0.0611  0.1122 -1.0509
  105CHL1  H12B13989  -0.034   2.754   6.387 -0.9256  2.1533 -1.3395
  105CHL1   C1113990  -0.140   2.685   6.580 -0.1439 -0.2321 -0.1438
  105CHL1  H11A13991  -0.226   2.618   6.600 -1.5080  1.3176 -0.6092
  105CHL1  H11B13992  -0.051   2.619   6.590 -0.2317 -0.0185  2.5557
  105CHL1    C913993  -0.113   2.802   6.677  0.5102  0.7618  0.7206
  105CHL1    H913994  -0.003   2.819   6.674  0.0692  4.4821  0.8484
  105CHL1   C1013995  -0.130   2.773   6.824  0.5308  0.1545 -0.7101
  105CHL1   C1913996  -0.280   2.746   6.852 -0.2090  0.7685 -0.0481
  105CHL1  H19A13997  -0.356   2.818   6.815 -2.9373 -3.2622 -3.2192
  105CHL1  H19B13998  -0.290   2.646   6.805  1.3441  0.5190  0.0995
  105CHL1  H19C13999  -0.296   2.732   6.961  1.1667 -1.0184 -0.0295
  105CHL1    C114000  -0.042   2.648   6.855  0.2616  0.0518 -0.1975
  105CHL1   H1A14001  -0.085   2.558   6.805  1.2062 -0.7041  0.3098
  105CHL1   H1B14002   0.062   2.657   6.815  0.1652 -1.4816 -0.8804
  105CHL1    C214003  -0.031   2.616   7.005  0.1431  0.9332  0.9170
  105CHL1   H2A14004   0.034   2.529   7.031  2.5626  1.6633 -2.0445
  105CHL1   H2B14005  -0.135   2.591   7.034  1.0016 -2.0246  1.8705
  105CHL1   C2014006  -0.293   2.851   6.135 -0.2304  0.6663 -0.3479
  105CHL1   H2014007  -0.384   2.799   6.173  0.9500 -0.7871  0.6111
  105CHL1   C2114008  -0.202   2.736   6.077  0.5621 -0.3801  0.7727
  105CHL1  H21A14009  -0.105   2.771   6.036 -0.6113  2.2645  0.0594
  105CHL1  H21B14010  -0.257   2.686   5.995  0.8570  2.9083 -1.6109
  105CHL1  H21C14011  -0.195   2.659   6.157  0.5227 -0.4759  0.6837
  105CHL1   C2214012  -0.335   2.955   6.023 -0.1873  0.0867  0.3796
  105CHL1  H22A14013  -0.399   3.037   6.064  2.4227  3.2062 -1.2672
  105CHL1  H22B14014  -0.241   3.005   5.990 -1.0442  0.6917 -1.2150
  105CHL1   C2314015  -0.400   2.880   5.907  0.4880 -0.1288 -0.1570
  105CHL1  H23A14016  -0.321   2.817   5.859  1.7615  1.4691 -0.2496
  105CHL1  H23B14017  -0.481   2.818   5.951  0.9777 -0.5218  0.2025
  105CHL1   C2414018  -0.475   2.963   5.801  0.2970  0.2602  0.1866
  105CHL1  H24A14019  -0.562   3.015   5.847 -0.1281  1.0981 -1.4880
  105CHL1  H24B14020  -0.396   3.033   5.765  1.9169 -0.0793  2.7844
  105CHL1   C2514021  -0.527   2.890   5.673  0.1406  0.2482  0.1489
  105CHL1   H2514022  -0.593   2.808   5.707 -0.2421  0.4323 -0.1453
  105CHL1   C2614023  -0.596   2.989   5.578  0.8299 -0.5228 -0.9528
  105CHL1  H26A14024  -0.646   3.064   5.643  3.4230 -0.5171  1.2313
  105CHL1  H26B14025  -0.521   3.057   5.533 -0.6251  1.8547  0.0090
  105CHL1  H26C14026  -0.661   2.947   5.499  0.9101 -0.6725 -0.9392
  105CHL1   C2714027  -0.415   2.815   5.598  0.3546  0.1132 -0.3978
  105CHL1  H27A14028  -0.353   2.757   5.671 -0.0494 -0.4844 -0.5198
  105CHL1  H27B14029  -0.460   2.746   5.524 -0.3060 -0.9311  0.9215
  105CHL1  H27C14030  -0.347   2.875   5.534 -0.4160 -1.3973 -2.7763
  106CHL1    C314031   1.027   1.494   6.556 -0.3854 -0.7682  0.8448
  106CHL1    H314032   1.070   1.394   6.535 -0.1796 -0.0183 -2.9110
  106CHL1    O314033   1.037   1.513   6.695 -0.1030  0.4938 -0.2253
  106CHL1   H3'14034   1.032   1.608   6.711  1.2618  0.3258  1.5687
  106CHL1    C414035   1.107   1.597   6.490 -0.1285 -0.1837  0.8676
  106CHL1   H4A14036   1.065   1.695   6.520  0.1841 -0.2403  1.5141
  106CHL1   H4B14037   1.210   1.592   6.530 -0.1580  1.0109  1.1099
  106CHL1    C514038   1.097   1.601   6.340  0.0448 -0.0936 -0.1260
  106CHL1    C614039   1.212   1.607   6.274  0.3754 -0.1296 -0.6937
  106CHL1    H614040   1.304   1.610   6.334  0.6720  2.1219 -1.1788
  106CHL1    C714041   1.227   1.612   6.123 -0.5506  0.4167 -0.2494
  106CHL1   H7A14042   1.309   1.681   6.093 -1.8841  3.7930  3.0815
  106CHL1   H7B14043   1.253   1.506   6.103 -2.2648 -0.5491  2.1703
  106CHL1    C814044   1.095   1.655   6.057 -0.5813 -0.0882 -0.6565
  106CHL1    H814045   1.086   1.765   6.065  1.9571  0.0848  0.8646
  106CHL1   C1414046   1.091   1.612   5.908 -1.2328  0.2559  0.1358
  106CHL1   H1414047   1.093   1.501   5.919 -2.1775  0.3488  1.5466
  106CHL1   C1514048   1.216   1.636   5.824 -0.6866 -0.6405 -0.2463
  106CHL1  H15A14049   1.270   1.729   5.855 -1.6938 -0.5135  1.2556
  106CHL1  H15B14050   1.285   1.549   5.833  0.7720  0.5984  1.4906
  106CHL1   C1614051   1.162   1.645   5.679  0.1275 -0.2308  0.1711
  106CHL1  H16A14052   1.187   1.742   5.631  2.0121 -1.0433 -0.5792
  106CHL1  H16B14053   1.224   1.572   5.623  0.0507  0.3528 -0.6939
  106CHL1   C1714054   1.016   1.602   5.686 -0.4876 -0.5230 -0.4798
  106CHL1   H1714055   1.017   1.491   5.689  0.5040 -0.5163 -0.3518
  106CHL1   C1314056   0.968   1.650   5.822  0.3078 -0.9380 -0.3184
  106CHL1   C1814057   0.936   1.802   5.829 -0.4188 -0.8298 -0.2645
  106CHL1  H18A14058   0.915   1.829   5.935 -3.0554 -2.0366 -0.3954
  106CHL1  H18B14059   1.018   1.862   5.784 -0.3688  0.5006  1.5038
  106CHL1  H18C14060   0.838   1.823   5.780 -0.9494 -0.1137  1.0570
  106CHL1   C1214061   0.850   1.582   5.892 -0.0790  0.7636  0.4760
  106CHL1  H12A14062   0.755   1.619   5.849 -0.7318  0.0968  1.3085
  106CHL1  H12B14063   0.866   1.472   5.881  0.9727  0.9319  0.1805
  106CHL1   C1114064   0.847   1.614   6.045  0.3591 -0.7001  0.1369
  106CHL1  H11A14065   0.809   1.717   6.063  2.2650  0.0337  0.2051
  106CHL1  H11B14066   0.768   1.542   6.076  0.8727  0.4175  4.6735
  106CHL1    C914067   0.974   1.585   6.123  0.4418 -0.1826  0.1351
  106CHL1    H914068   0.999   1.477   6.116 -1.4312 -0.7573  1.3588
  106CHL1   C1014069   0.959   1.592   6.278  0.3911 -0.4985 -0.0713
  106CHL1   C1914070   0.891   1.721   6.300 -0.6589  0.4350 -0.9002
  106CHL1  H19A14071   0.783   1.707   6.279 -0.3387 -2.5119 -0.9588
  106CHL1  H19B14072   0.888   1.752   6.406  0.0635 -1.4252 -0.3041
  106CHL1  H19C14073   0.929   1.807   6.239  0.4656 -0.4935 -1.5463
  106CHL1    C114074   0.887   1.469   6.342 -0.6991 -0.6727 -0.7509
  106CHL1   H1A14075   0.788   1.473   6.290 -0.4336  2.5407 -1.1983
  106CHL1   H1B14076   0.945   1.378   6.316 -0.6127 -0.4126 -1.4979
  106CHL1    C214077   0.879   1.484   6.497 -0.7715 -0.2948 -0.3436
  106CHL1   H2A14078   0.819   1.405   6.548 -1.4645  0.8756  0.7420
  106CHL1   H2B14079   0.831   1.580   6.525 -0.8077 -0.4986  0.3126
  106CHL1   C2014080   0.951   1.673   5.559  0.3584 -0.5689 -0.1143
  106CHL1   H2014081   0.968   1.783   5.561  1.0023 -0.6748  0.3404
  106CHL1   C2114082   0.797   1.644   5.565 -0.0484  0.0955 -0.0943
  106CHL1  H21A14083   0.751   1.664   5.466 -1.1087  1.5369  0.6407
  106CHL1  H21B14084   0.744   1.714   5.634  0.2259 -0.1664  0.3883
  106CHL1  H21C14085   0.775   1.541   5.598  1.6320  0.2013  1.4713
  106CHL1   C2214086   1.024   1.625   5.431 -0.2344 -0.3513  0.8113
  106CHL1  H22A14087   1.131   1.657   5.423 -0.7212  1.1035 -0.3132
  106CHL1  H22B14088   1.019   1.514   5.433  0.9902 -0.4690 -0.5805
  106CHL1   C2314089   0.966   1.667   5.291 -0.2391 -0.6512 -0.3139
  106CHL1  H23A14090   1.038   1.638   5.211 -0.4875 -1.5963 -0.2015
  106CHL1  H23B14091   0.873   1.612   5.266 -0.5101  0.9014 -3.1850
  106CHL1   C2414092   0.956   1.822   5.293 -0.0514  0.2592  0.4556
  106CHL1  H24A14093   0.875   1.853   5.362 -0.1284  0.1704  0.4048
  106CHL1  H24B14094   1.042   1.879   5.334  0.7057 -0.5422  0.0162
  106CHL1   C2514095   0.919   1.873   5.156  0.9216 -0.2419 -0.0493
  106CHL1   H2514096   0.991   1.821   5.090  0.0989 -0.3975 -0.8492
  106CHL1   C2614097   0.769   1.854   5.127  0.3562  0.0679 -0.3281
  106CHL1  H26A14098   0.742   1.752   5.161 -1.3302  0.5284 -0.1583
  106CHL1  H26B14099   0.716   1.923   5.196  0.3552  0.1666 -0.4270
  106CHL1  H26C14100   0.740   1.875   5.022 -0.6709 -0.1512 -0.0972
  106CHL1   C2714101   0.950   2.021   5.142 -0.4029  0.4804  0.0826
  106CHL1  H27A14102   0.948   2.048   5.034 -2.2706 -1.8760 -0.5662
  106CHL1  H27B14103   0.870   2.078   5.193 -1.9960 -0.2938 -1.4291
  106CHL1  H27C14104   1.048   2.036   5.192 -0.2665 -1.2404  0.3925
  107CHL1    C314105   3.738   6.269   6.483  0.5643 -0.5925  0.3550
  107CHL1    H314106   3.694   6.179   6.436  1.3920  0.1124 -1.8999
  107CHL1    O314107   3.718   6.272   6.622  0.1653 -0.3239  0.3517
  107CHL1   H3'14108   3.757   6.353   6.656  0.6992 -0.1861 -0.5391
  107CHL1    C414109   3.882   6.255   6.450 -0.8333  0.3081 -0.0358
  107CHL1   H4A14110   3.943   6.333   6.501  0.5808 -0.5356 -0.3639
  107CHL1   H4B14111   3.924   6.164   6.500  1.3392  0.6277 -1.1452
  107CHL1    C514112   3.916   6.259   6.306  0.2287 -0.2691  0.4969
  107CHL1    C614113   3.995   6.164   6.251  0.9565 -0.3189  0.2701
  107CHL1    H614114   4.032   6.084   6.317 -1.9408 -1.1187  1.0828
  107CHL1    C714115   4.019   6.155   6.106 -0.3684 -0.4178 -0.3457
  107CHL1   H7A14116   4.121   6.115   6.093 -0.2760 -1.3503  2.5296
  107CHL1   H7B14117   3.960   6.073   6.060  0.6791 -1.9636  0.9532
  107CHL1    C814118   3.996   6.289   6.037  0.5128 -0.2108 -0.4394
  107CHL1    H814119   4.079   6.352   6.076  0.6576 -0.2478 -0.6870
  107CHL1   C1414120   4.004   6.263   5.888 -0.6639 -0.1904  0.0700
  107CHL1   H1414121   3.923   6.194   5.856  0.0214 -0.6338 -0.7296
  107CHL1   C1514122   4.133   6.191   5.837 -0.5292  0.3582  0.6132
  107CHL1  H15A14123   4.223   6.249   5.865  1.3389 -2.3256  0.5442
  107CHL1  H15B14124   4.154   6.084   5.859  1.1749  0.7054  0.8445
  107CHL1   C1614125   4.103   6.210   5.683 -0.1793  0.4796 -0.4421
  107CHL1  H16A14126   4.200   6.219   5.631  0.9010 -2.2979  0.9314
  107CHL1  H16B14127   4.050   6.125   5.635 -1.2024  0.8823 -0.0531
  107CHL1   C1714128   4.011   6.334   5.662 -0.0075 -0.8720  0.0115
  107CHL1   H1714129   3.907   6.303   5.638 -0.4646  1.4239 -1.2894
  107CHL1   C1314130   3.993   6.391   5.806 -0.0631 -0.6439  0.1002
  107CHL1   C1814131   4.109   6.488   5.839  0.3767  0.7541 -0.0841
  107CHL1  H18A14132   4.068   6.591   5.835 -1.5866  0.0053 -0.1857
  107CHL1  H18B14133   4.133   6.489   5.948  1.6757  1.8877 -0.3430
  107CHL1  H18C14134   4.195   6.483   5.768  0.1862  2.5790 -0.5067
  107CHL1   C1214135   3.860   6.464   5.832  0.0502  0.6063  0.1532
  107CHL1  H12A14136   3.863   6.560   5.778  0.5620  0.3403 -0.3053
  107CHL1  H12B14137   3.779   6.397   5.797  0.7844  0.0010 -0.4409
  107CHL1   C1114138   3.848   6.492   5.984 -0.0151 -0.1046  0.2445
  107CHL1  H11A14139   3.929   6.560   6.020 -0.8125  0.3681  1.2045
  107CHL1  H11B14140   3.747   6.534   6.004 -0.3452 -0.5760 -0.3984
  107CHL1    C914141   3.863   6.364   6.074 -0.7886  0.0857  0.5835
  107CHL1    H914142   3.786   6.293   6.037  0.2452  0.1881 -1.9258
  107CHL1   C1014143   3.840   6.377   6.228  0.0381  0.5922  0.4270
  107CHL1   C1914144   3.903   6.506   6.276  0.0419  0.1160  0.3576
  107CHL1  H19A14145   3.889   6.516   6.385 -2.3335  1.7910 -0.0199
  107CHL1  H19B14146   4.012   6.516   6.252  0.2204 -0.7894  0.7635
  107CHL1  H19C14147   3.853   6.598   6.237  0.9752  1.3459  1.9269
  107CHL1    C114148   3.689   6.371   6.258  0.5615 -0.0336  0.5775
  107CHL1   H1A14149   3.646   6.462   6.211 -0.3876 -1.0273 -0.5398
  107CHL1   H1B14150   3.638   6.284   6.212 -1.3258  1.6082 -0.5797
  107CHL1    C214151   3.654   6.378   6.411  0.6919 -0.2444  0.3521
  107CHL1   H2A14152   3.544   6.373   6.429  0.9778 -2.0268  1.8554
  107CHL1   H2B14153   3.691   6.475   6.452 -0.3724  0.1434  0.4202
  107CHL1   C2014154   4.060   6.423   5.546  0.7838 -0.0879 -0.1907
  107CHL1   H2014155   4.163   6.456   5.568  0.2778 -0.1653  2.6436
  107CHL1   C2114156   3.973   6.549   5.529  0.4585 -0.3381 -0.1568
  107CHL1  H21A14157   3.864   6.527   5.534  0.1740  1.1650  1.5934
  107CHL1  H21B14158   3.995   6.602   5.434 -0.2830  0.3814  0.0522
  107CHL1  H21C14159   3.996   6.619   5.612 -3.0828  0.7292  0.1248
  107CHL1   C2214160   4.067   6.341   5.415 -0.2039  0.1808 -0.0037
  107CHL1  H22A14161   4.155   6.276   5.431 -0.1740 -0.0026 -0.8545
  107CHL1  H22B14162   3.981   6.273   5.403  0.1901 -0.4082  0.4810
  107CHL1   C2314163   4.101   6.429   5.290 -0.1116  0.4267  0.6363
  107CHL1  H23A14164   4.008   6.479   5.257 -1.8950 -1.4515  2.5352
  107CHL1  H23B14165   4.181   6.501   5.318 -1.4047  1.2997  2.2431
  107CHL1   C2414166   4.145   6.341   5.168 -0.7180  0.2312  0.3854
  107CHL1  H24A14167   4.228   6.274   5.199 -0.2937  0.1414 -0.8789
  107CHL1  H24B14168   4.062   6.275   5.138 -0.1234 -0.1851 -0.3773
  107CHL1   C2514169   4.202   6.421   5.043  0.2186  0.1654 -0.2404
  107CHL1   H2514170   4.131   6.498   5.008  2.0857  1.1179 -2.1594
  107CHL1   C2614171   4.328   6.497   5.069  0.0364 -0.8440 -0.3397
  107CHL1  H26A14172   4.315   6.552   5.165  0.4634  0.0056 -0.7624
  107CHL1  H26B14173   4.417   6.430   5.078 -0.3742 -1.1444  2.7617
  107CHL1  H26C14174   4.341   6.572   4.988  2.5155 -0.7749  0.0438
  107CHL1   C2714175   4.221   6.329   4.924  0.0370 -0.3620 -0.5088
  107CHL1  H27A14176   4.124   6.276   4.913 -1.1381  1.8194 -1.0774
  107CHL1  H27B14177   4.242   6.386   4.831  1.7478  1.0782  0.6950
  107CHL1  H27C14178   4.304   6.258   4.944 -0.0286 -0.8940 -1.9909
  108CHL1    C314179   5.837   1.888   7.574 -0.0203  0.2316  0.1642
  108CHL1    H314180   5.874   1.786   7.550  0.4446  0.4426 -0.0368
  108CHL1    O314181   5.833   1.867   7.714 -0.1151 -0.0199  0.1808
  108CHL1   H3'14182   5.830   1.956   7.751 -1.5383 -0.1987  0.5499
  108CHL1    C414183   5.946   1.980   7.526  0.4105 -1.0339  0.0172
  108CHL1   H4A14184   5.928   2.084   7.562 -0.5304 -1.3781  0.5931
  108CHL1   H4B14185   6.041   1.940   7.568  2.4794  2.5920 -0.7478
  108CHL1    C514186   5.959   2.002   7.377 -0.4179  0.0219 -0.3682
  108CHL1    C614187   6.075   1.991   7.313 -0.7046 -0.7030  0.1249
  108CHL1    H614188   6.166   1.983   7.374  0.7250  0.0656 -1.8338
  108CHL1    C714189   6.098   2.017   7.166  0.0500  0.4317  0.3132
  108CHL1   H7A14190   6.188   2.082   7.157  0.0233  0.4208 -0.0509
  108CHL1   H7B14191   6.125   1.924   7.112  0.9467  0.6337  0.4023
  108CHL1    C814192   5.971   2.059   7.094 -0.0207 -0.3698  0.0026
  108CHL1    H814193   5.945   2.166   7.110  0.1694 -0.1571 -1.0307
  108CHL1   C1414194   5.981   2.032   6.945 -0.2505  0.4165  0.0316
  108CHL1   H1414195   5.990   1.921   6.944  0.3638  0.4341  1.3969
  108CHL1   C1514196   6.105   2.085   6.867  0.4419  0.1332  0.2972
  108CHL1  H15A14197   6.109   2.190   6.904  1.7298  0.8835 -1.8233
  108CHL1  H15B14198   6.203   2.036   6.883  1.0141  1.5196  1.2727
  108CHL1   C1614199   6.064   2.075   6.724  0.8997  0.4292  1.1601
  108CHL1  H16A14200   6.091   2.167   6.667 -0.3420  0.3047  0.3423
  108CHL1  H16B14201   6.117   1.986   6.685  0.8347  1.1528 -0.6551
  108CHL1   C1714202   5.909   2.043   6.728 -0.4770 -0.3901 -0.4500
  108CHL1   H1714203   5.912   1.932   6.730  0.3168 -0.3754  0.7327
  108CHL1   C1314204   5.863   2.072   6.871  0.4245 -0.2008  0.3673
  108CHL1   C1814205   5.825   2.217   6.885 -0.0160 -0.2039  0.5262
  108CHL1  H18A14206   5.901   2.294   6.860 -1.0479  0.5560 -0.3709
  108CHL1  H18B14207   5.740   2.244   6.818  0.2801  1.2546  0.7084
  108CHL1  H18C14208   5.795   2.245   6.988 -1.6508 -0.5335  0.1761
  108CHL1   C1214209   5.742   1.989   6.916 -0.2770 -0.1343 -0.2064
  108CHL1  H12A14210   5.649   2.029   6.873 -0.4524  2.3539  2.2203
  108CHL1  H12B14211   5.750   1.880   6.896  1.9905 -0.9715  4.0249
  108CHL1   C1114212   5.718   2.000   7.068 -0.6895  0.5520 -0.4262
  108CHL1  H11A14213   5.683   2.104   7.087  0.8555  1.2872 -1.4297
  108CHL1  H11B14214   5.637   1.934   7.107 -0.9265  2.2643  2.2467
  108CHL1    C914215   5.853   1.977   7.149 -0.9831  0.0341  0.8047
  108CHL1    H914216   5.870   1.869   7.133 -3.4075 -0.2876 -0.0169
  108CHL1   C1014217   5.828   2.012   7.301 -0.2919 -0.1363  0.4692
  108CHL1   C1914218   5.784   2.160   7.320  0.5497  0.2176  0.1709
  108CHL1  H19A14219   5.859   2.228   7.275  1.4502 -1.1573 -0.4690
  108CHL1  H19B14220   5.686   2.170   7.269  1.5471  1.8176 -1.5297
  108CHL1  H19C14221   5.778   2.186   7.428 -0.8093 -1.5854  0.5892
  108CHL1    C114222   5.707   1.928   7.358  0.1516 -0.7559 -0.1910
  108CHL1   H1A14223   5.609   1.956   7.315  0.0478 -1.0504 -0.1463
  108CHL1   H1B14224   5.708   1.825   7.317 -0.2182 -0.9546  0.2906
  108CHL1    C214225   5.699   1.923   7.511 -0.3883 -0.5193 -0.2981
  108CHL1   H2A14226   5.619   1.859   7.555 -1.0939 -0.3533 -1.3290
  108CHL1   H2B14227   5.668   2.027   7.531 -0.2773 -0.5753  0.1757
  108CHL1   C2014228   5.821   2.092   6.608  0.3299  0.0760 -0.0335
  108CHL1   H2014229   5.815   2.203   6.610 -3.7432  0.1330 -2.6778
  108CHL1   C2114230   5.669   2.052   6.618  0.0394  0.0840  0.5471
  108CHL1  H21A14231   5.634   2.113   6.703  1.6988  1.1715  0.4797
  108CHL1  H21B14232   5.650   1.943   6.631  1.1891 -0.5597 -2.2364
  108CHL1  H21C14233   5.619   2.087   6.525  2.0029  1.9838  0.1339
  108CHL1   C2214234   5.885   2.048   6.479  0.0524 -0.2957  0.4805
  108CHL1  H22A14235   5.993   2.067   6.491 -0.1278 -0.2780  2.3665
  108CHL1  H22B14236   5.875   1.937   6.477  0.0529 -0.3443 -3.1271
  108CHL1   C2314237   5.829   2.106   6.355  0.2808  0.5187  0.0388
  108CHL1  H23A14238   5.728   2.065   6.334  0.4101  1.3102 -2.5215
  108CHL1  H23B14239   5.819   2.217   6.361  0.9940  0.6317 -0.7400
  108CHL1   C2414240   5.913   2.070   6.234  0.1006  0.3704  0.3151
  108CHL1  H24A14241   6.015   2.103   6.262 -0.3046  0.1345  2.1769
  108CHL1  H24B14242   5.916   1.959   6.223 -1.0844  0.2740  0.8411
  108CHL1   C2514243   5.859   2.149   6.108  0.2678  0.1485  0.2739
  108CHL1   H2514244   5.823   2.249   6.141 -1.0592  0.6166 -2.3883
  108CHL1   C2614245   5.960   2.170   5.989  0.3775  0.4107 -0.1763
  108CHL1  H26A14246   5.913   2.234   5.911 -0.3372  0.2011  0.0764
  108CHL1  H26B14247   6.062   2.206   6.016  0.6383  0.1116 -0.7528
  108CHL1  H26C14248   5.958   2.070   5.941  1.3025  0.8633 -1.2022
  108CHL1   C2714249   5.732   2.073   6.045  0.2961 -0.4111 -1.0452
  108CHL1  H27A14250   5.680   2.133   5.967  0.5590  0.8765 -0.2631
  108CHL1  H27B14251   5.764   1.973   6.009  1.7482  0.7469 -3.1471
  108CHL1  H27C14252   5.656   2.051   6.124  0.2817 -1.5959 -1.3616
  109CHL1    C314253   2.607   6.632   6.612 -0.4786 -0.1710 -0.6395
  109CHL1    H314254   2.664   6.538   6.625 -0.9903 -0.4347 -0.2821
  109CHL1    O314255   2.572   6.671   6.745 -0.4648 -0.6099 -0.5563
  109CHL1   H3'14256   2.511   6.744   6.731  2.2381  1.9549  0.0644
  109CHL1    C414257   2.692   6.744   6.545 -0.7483 -0.4558  0.1412
  109CHL1   H4A14258   2.629   6.836   6.548  0.0857  0.1067  0.6994
  109CHL1   H4B14259   2.788   6.760   6.598  0.4679 -3.4999 -0.9170
  109CHL1    C514260   2.715   6.715   6.400  0.3556 -0.2609 -0.3672
  109CHL1    C614261   2.833   6.706   6.345  0.0489  0.7321 -0.7458
  109CHL1    H614262   2.921   6.717   6.410  1.3185 -1.0462 -2.0568
  109CHL1    C714263   2.860   6.684   6.196  0.3305 -0.0693 -0.4682
  109CHL1   H7A14264   2.944   6.750   6.165  1.1794 -0.4868  0.8459
  109CHL1   H7B14265   2.897   6.580   6.180 -1.1362 -0.2558 -3.0763
  109CHL1    C814266   2.737   6.699   6.102  0.9241 -0.9431  0.0102
  109CHL1    H814267   2.715   6.808   6.098  0.6979 -0.9569  0.7204
  109CHL1   C1414268   2.759   6.632   5.967  0.4056 -0.1387  0.0663
  109CHL1   H1414269   2.768   6.524   5.990 -0.0812 -0.0384  0.7494
  109CHL1   C1514270   2.901   6.652   5.900 -0.1664  0.2882  0.4253
  109CHL1  H15A14271   2.935   6.758   5.902  1.6860 -0.2655  1.0649
  109CHL1  H15B14272   2.973   6.592   5.961  0.2742  1.4492  1.0797
  109CHL1   C1614273   2.874   6.595   5.759 -0.3979 -0.7172 -0.6107
  109CHL1  H16A14274   2.898   6.677   5.689 -1.7870 -0.6108 -0.9922
  109CHL1  H16B14275   2.937   6.508   5.730  0.6989  0.2256 -1.1313
  109CHL1   C1714276   2.719   6.560   5.754 -0.1617 -0.4044  0.1179
  109CHL1   H1714277   2.701   6.454   5.782  1.3677 -0.9425 -0.7980
  109CHL1   C1314278   2.644   6.637   5.863 -0.6698 -0.6620 -0.0290
  109CHL1   C1814279   2.628   6.781   5.819 -0.0011  0.1887  0.4728
  109CHL1  H18A14280   2.546   6.790   5.745 -0.3036  0.7398  0.8714
  109CHL1  H18B14281   2.606   6.835   5.914  3.0495 -0.8244  1.9116
  109CHL1  H18C14282   2.720   6.826   5.777 -1.3518  2.5815 -0.1256
  109CHL1   C1214283   2.520   6.578   5.929 -0.3333  0.2790 -0.8677
  109CHL1  H12A14284   2.436   6.604   5.861 -1.5094  1.9928  1.1259
  109CHL1  H12B14285   2.532   6.468   5.944  1.0118  0.2563 -1.9829
  109CHL1   C1114286   2.488   6.648   6.064  0.2074  0.2521  0.1750
  109CHL1  H11A14287   2.462   6.755   6.050  0.6644  0.2243 -0.9416
  109CHL1  H11B14288   2.397   6.604   6.110  1.4206 -0.4477  2.0215
  109CHL1    C914289   2.609   6.639   6.167  0.0432  0.0892 -1.1383
  109CHL1    H914290   2.635   6.531   6.170  1.9911  0.5335  0.8822
  109CHL1   C1014291   2.578   6.688   6.320  0.0111  0.3862 -0.2080
  109CHL1   C1914292   2.504   6.820   6.310  0.0156  0.1186 -0.1402
  109CHL1  H19A14293   2.560   6.896   6.251  0.8091  0.0959  0.5774
  109CHL1  H19B14294   2.408   6.791   6.261 -0.1143 -1.5338  1.0171
  109CHL1  H19C14295   2.472   6.862   6.408 -0.1395  1.3111 -0.6789
  109CHL1    C114296   2.488   6.583   6.387 -0.5866  0.0646  0.6722
  109CHL1   H1A14297   2.391   6.564   6.336 -0.1205  1.5424 -0.8565
  109CHL1   H1B14298   2.546   6.488   6.387 -1.0137 -0.2349 -0.9729
  109CHL1    C214299   2.471   6.612   6.541 -0.2011  0.2619  0.3691
  109CHL1   H2A14300   2.423   6.522   6.587 -0.3100  0.5529  0.8279
  109CHL1   H2B14301   2.405   6.701   6.548 -0.8436 -0.2277  0.6717
  109CHL1   C2014302   2.657   6.570   5.616  0.3465 -1.1800 -0.0065
  109CHL1   H2014303   2.656   6.676   5.583 -1.1138 -1.5259 -1.2060
  109CHL1   C2114304   2.516   6.518   5.615  0.7597 -1.0496  0.2331
  109CHL1  H21A14305   2.507   6.411   5.646 -0.5089 -0.7778  0.8307
  109CHL1  H21B14306   2.485   6.522   5.508  0.0922 -2.4789  0.3438
  109CHL1  H21C14307   2.444   6.582   5.669 -2.7047 -2.3628 -2.4710
  109CHL1   C2214308   2.742   6.499   5.511 -0.0791  0.7874  0.2012
  109CHL1  H22A14309   2.841   6.549   5.519 -0.4225  1.5082  0.0654
  109CHL1  H22B14310   2.759   6.393   5.536 -2.0831  0.7748  1.7813
  109CHL1   C2314311   2.702   6.525   5.368 -0.5140  0.0426  0.3731
  109CHL1  H23A14312   2.765   6.453   5.311 -2.5231 -1.0467 -0.5982
  109CHL1  H23B14313   2.594   6.504   5.353 -0.4324  0.2718 -0.5909
  109CHL1   C2414314   2.726   6.658   5.306 -0.0163 -0.2470  0.4045
  109CHL1  H24A14315   2.675   6.745   5.352  2.0828  1.1199  0.2551
  109CHL1  H24B14316   2.831   6.688   5.326 -0.6537  2.0932  0.5793
  109CHL1   C2514317   2.722   6.649   5.160 -0.0098 -0.1152  0.3460
  109CHL1   H2514318   2.785   6.562   5.133 -0.7511 -1.1518  1.8322
  109CHL1   C2614319   2.577   6.619   5.102 -0.7029  0.1359 -0.4709
  109CHL1  H26A14320   2.527   6.533   5.151  0.0848  0.6535  1.3214
  109CHL1  H26B14321   2.512   6.699   5.143  0.3608 -0.9443  3.8414
  109CHL1  H26C14322   2.580   6.614   4.991 -1.7349  1.7333 -0.6060
  109CHL1   C2714323   2.777   6.770   5.084 -0.4835  0.0332 -0.5771
  109CHL1  H27A14324   2.770   6.747   4.976 -0.4642 -0.5756 -0.4570
  109CHL1  H27B14325   2.705   6.854   5.099  1.3802  1.5559  0.2690
  109CHL1  H27C14326   2.878   6.797   5.121 -1.3912  1.1202  1.2766
  110CHL1    C314327   0.065   4.810   6.253  0.3147  0.1703 -0.7133
  110CHL1    H314328   0.009   4.719   6.222 -1.7665  0.3399  2.0757
  110CHL1    O314329   0.090   4.805   6.392  0.3385 -0.3703  0.3896
  110CHL1   H3'14330   0.160   4.868   6.409 -0.8698  0.8093  1.1334
  110CHL1    C414331   0.191   4.815   6.180 -0.1600 -0.1675  0.4904
  110CHL1   H4A14332   0.252   4.896   6.226  0.4689 -0.6719  0.5674
  110CHL1   H4B14333   0.257   4.727   6.196 -1.0683 -1.5082 -2.4199
  110CHL1    C514334   0.190   4.841   6.028  0.5970  0.1917  0.1112
  110CHL1    C614335   0.267   4.763   5.945 -0.1458 -0.9805 -0.2987
  110CHL1    H614336   0.341   4.694   5.987  1.1949  1.0381  0.7916
  110CHL1    C714337   0.275   4.784   5.793 -0.2455 -0.5365 -0.3387
  110CHL1   H7A14338   0.380   4.815   5.772 -1.2361  2.0030 -1.9097
  110CHL1   H7B14339   0.253   4.688   5.740  0.2503 -1.2007  0.6251
  110CHL1    C814340   0.189   4.904   5.739  0.3744  0.8453  0.1999
  110CHL1    H814341   0.253   4.995   5.741 -1.2930  2.0424  0.4788
  110CHL1   C1414342   0.147   4.870   5.595  1.0095 -0.6368  0.0414
  110CHL1   H1414343   0.085   4.778   5.594  2.5785 -1.7825 -2.8335
  110CHL1   C1514344   0.252   4.838   5.488 -0.4137 -0.2761  0.0996
  110CHL1  H15A14345   0.340   4.906   5.490  1.6743 -2.5954 -3.5201
  110CHL1  H15B14346   0.303   4.741   5.503 -1.0626 -0.8118 -1.0000
  110CHL1   C1614347   0.181   4.850   5.353  0.3172  0.6149 -0.5422
  110CHL1  H16A14348   0.241   4.905   5.278  0.4933 -0.4801 -1.2220
  110CHL1  H16B14349   0.146   4.751   5.316  1.0655 -0.3488  1.1768
  110CHL1   C1714350   0.048   4.928   5.390 -0.1653 -0.2107 -0.5535
  110CHL1   H1714351  -0.028   4.847   5.396 -1.3665  0.9377  0.5093
  110CHL1   C1314352   0.066   4.982   5.532  0.0607  0.1491 -0.6805
  110CHL1   C1814353   0.145   5.116   5.534 -0.3692 -0.4423 -0.2579
  110CHL1  H18A14354   0.165   5.149   5.639  1.1512  1.5873 -1.1298
  110CHL1  H18B14355   0.246   5.101   5.491  0.3262  1.5876  0.5221
  110CHL1  H18C14356   0.089   5.202   5.491 -1.9710 -1.8020 -0.9520
  110CHL1   C1214357  -0.060   5.001   5.613  0.7202  0.6102 -0.3170
  110CHL1  H12A14358  -0.104   5.099   5.585  3.4685  1.9932 -0.0694
  110CHL1  H12B14359  -0.139   4.923   5.600  1.6886 -0.6179  0.8643
  110CHL1   C1114360  -0.029   5.029   5.768 -0.2420  0.1046  0.6194
  110CHL1  H11A14361   0.011   5.132   5.772 -0.8384  0.3257  1.0980
  110CHL1  H11B14362  -0.132   5.034   5.810 -0.3277 -0.2022  0.4473
  110CHL1    C914363   0.069   4.928   5.825 -0.6929 -0.1604  0.7896
  110CHL1    H914364   0.020   4.828   5.823 -0.4749 -0.2575  0.1641
  110CHL1   C1014365   0.092   4.944   5.979  0.2825 -0.2220 -0.1717
  110CHL1   C1914366   0.165   5.081   5.995  0.1306  0.7061 -0.6103
  110CHL1  H19A14367   0.248   5.085   5.921  0.6829 -0.0241 -0.0382
  110CHL1  H19B14368   0.098   5.167   5.977  0.0833  1.5759  2.9934
  110CHL1  H19C14369   0.219   5.089   6.091 -0.6090 -0.6400 -0.0574
  110CHL1    C114370  -0.043   4.956   6.060 -0.1455 -0.0068 -0.0560
  110CHL1   H1A14371  -0.097   5.050   6.037 -2.8529 -1.2615  0.7882
  110CHL1   H1B14372  -0.115   4.875   6.036 -1.4972  0.2401  2.7692
  110CHL1    C214373  -0.025   4.932   6.213 -0.3332  0.0864  0.3402
  110CHL1   H2A14374  -0.128   4.930   6.257 -1.1025 -3.7632 -1.3062
  110CHL1   H2B14375   0.018   5.026   6.255  0.4540 -0.1820  0.1299
  110CHL1   C2014376  -0.006   5.020   5.286 -0.1385 -0.5385  0.0498
  110CHL1   H2014377  -0.080   5.091   5.329 -0.5647  1.5604 -3.7222
  110CHL1   C2114378  -0.096   4.942   5.197 -0.1989 -0.1859  0.6095
  110CHL1  H21A14379  -0.135   5.007   5.115 -0.1572 -1.2983 -0.3105
  110CHL1  H21B14380  -0.190   4.902   5.240 -1.5202 -0.8717 -2.6199
  110CHL1  H21C14381  -0.043   4.863   5.141 -1.4407  1.0005 -2.4695
  110CHL1   C2214382   0.093   5.109   5.204  0.3026 -0.5442 -0.4597
  110CHL1  H22A14383   0.180   5.133   5.269 -0.7815  1.7387  0.2472
  110CHL1  H22B14384   0.136   5.051   5.120  2.8650 -1.5914  1.4542
  110CHL1   C2314385   0.031   5.250   5.147  0.0674  0.6652 -0.5662
  110CHL1  H23A14386   0.111   5.297   5.086  0.3952 -0.6058 -1.1602
  110CHL1  H23B14387  -0.056   5.222   5.084  0.9191 -0.1087 -1.4405
  110CHL1   C2414388  -0.023   5.354   5.248 -0.2803 -0.3058  0.0638
  110CHL1  H24A14389  -0.075   5.296   5.326 -0.9336 -0.6401 -0.6154
  110CHL1  H24B14390   0.068   5.396   5.297  0.0833 -1.5033  0.4429
  110CHL1   C2514391  -0.115   5.465   5.193 -0.6865  0.3736 -0.1357
  110CHL1   H2514392  -0.193   5.406   5.141  0.3253 -0.9857 -0.1673
  110CHL1   C2614393  -0.190   5.547   5.299 -0.3219 -0.5583 -0.4373
  110CHL1  H26A14394  -0.268   5.608   5.249  0.6677  0.8138 -0.3612
  110CHL1  H26B14395  -0.237   5.476   5.370 -0.9602 -0.3124 -0.6050
  110CHL1  H26C14396  -0.124   5.619   5.353 -1.9062  0.8990 -0.3723
  110CHL1   C2714397  -0.053   5.554   5.085  0.1467 -0.3170  0.0151
  110CHL1  H27A14398  -0.129   5.624   5.046  0.0123 -0.1492  0.5695
  110CHL1  H27B14399   0.027   5.622   5.122  0.7249  0.3395 -2.2333
  110CHL1  H27C14400   0.003   5.498   5.007  2.3209  0.4416  0.9314
  111CHL1    C314401   3.909   1.606   6.985  0.3091  0.1907 -0.3649
  111CHL1    H314402   3.922   1.713   6.958  2.7896  1.0671  3.4281
  111CHL1    O314403   3.847   1.616   7.109 -0.2845 -0.3606 -0.1958
  111CHL1   H3'14404   3.915   1.588   7.171  0.2937 -0.4491 -0.8580
  111CHL1    C414405   3.824   1.530   6.881  0.4711  0.5019  0.4545
  111CHL1   H4A14406   3.803   1.430   6.925  0.1311 -0.3032 -1.4335
  111CHL1   H4B14407   3.727   1.583   6.873  1.0902  1.6515  0.2971
  111CHL1    C514408   3.897   1.502   6.751  0.3334 -0.2737  0.5059
  111CHL1    C614409   3.837   1.531   6.630  0.6849  0.7900  0.0048
  111CHL1    H614410   3.749   1.597   6.635  0.6272  0.7501 -0.4527
  111CHL1    C714411   3.898   1.521   6.496 -1.0306 -1.0547  0.4826
  111CHL1   H7A14412   3.820   1.478   6.429 -0.4144  0.2229 -1.1221
  111CHL1   H7B14413   3.925   1.622   6.460 -1.6059 -0.6568  1.1496
  111CHL1    C814414   4.023   1.432   6.499  0.0508  0.1695 -0.3226
  111CHL1    H814415   3.985   1.328   6.514  1.8349 -0.4444  0.2185
  111CHL1   C1414416   4.093   1.434   6.361  0.2103 -0.1528 -0.4902
  111CHL1   H1414417   4.136   1.534   6.341 -0.8067  0.4961  0.4075
  111CHL1   C1514418   4.009   1.397   6.239 -0.3825 -0.0579  0.0980
  111CHL1  H15A14419   3.957   1.303   6.268 -0.4418 -0.0894 -0.1036
  111CHL1  H15B14420   3.935   1.476   6.216  1.2231  1.4770  0.0431
  111CHL1   C1614421   4.104   1.348   6.128 -0.4834 -0.0735  0.2438
  111CHL1  H16A14422   4.076   1.251   6.081  0.9161  0.1453 -1.1168
  111CHL1  H16B14423   4.102   1.407   6.034 -2.5703 -2.7072 -1.5088
  111CHL1   C1714424   4.247   1.345   6.200 -0.3765  0.5030  0.8730
  111CHL1   H1714425   4.291   1.444   6.179 -1.6821  0.9781  0.2484
  111CHL1   C1314426   4.218   1.340   6.355 -0.7886  0.0492  0.1838
  111CHL1   C1814427   4.187   1.185   6.389  0.2734  0.2772 -0.1720
  111CHL1  H18A14428   4.141   1.181   6.490 -1.1578 -1.8622 -0.8388
  111CHL1  H18B14429   4.110   1.152   6.316 -0.6454  1.5754  0.1798
  111CHL1  H18C14430   4.277   1.120   6.393 -0.7405 -1.2474 -0.8764
  111CHL1   C1214431   4.319   1.395   6.459 -0.5686 -0.5645 -0.3418
  111CHL1  H12A14432   4.413   1.336   6.471 -0.2949  0.0932  0.9495
  111CHL1  H12B14433   4.344   1.501   6.438 -0.2906 -0.8114 -1.3356
  111CHL1   C1114434   4.259   1.404   6.603  0.5270 -1.0006 -0.5402
  111CHL1  H11A14435   4.252   1.301   6.645 -0.4036 -0.7060  0.0696
  111CHL1  H11B14436   4.332   1.457   6.668 -0.6454 -0.6196  0.5078
  111CHL1    C914437   4.113   1.467   6.617 -0.3046 -0.2518  0.6243
  111CHL1    H914438   4.134   1.575   6.605  2.7631 -0.7900  0.2858
  111CHL1   C1014439   4.044   1.447   6.757  0.4717 -0.3469 -0.9032
  111CHL1   C1914440   4.039   1.300   6.798 -0.4753 -0.4689  0.5330
  111CHL1  H19A14441   3.985   1.279   6.893  0.3966  0.3165  1.2240
  111CHL1  H19B14442   4.013   1.232   6.714 -1.2126  2.5271 -1.8467
  111CHL1  H19C14443   4.141   1.273   6.832 -0.2105 -0.3141 -0.1208
  111CHL1    C114444   4.132   1.521   6.870  0.2226  0.2024  0.7525
  111CHL1   H1A14445   4.227   1.467   6.888  2.2593  2.6496 -1.7900
  111CHL1   H1B14446   4.164   1.616   6.822  0.3902  1.0279  2.4188
  111CHL1    C214447   4.052   1.541   7.001 -0.4280  0.2655  0.0735
  111CHL1   H2A14448   4.109   1.605   7.071  0.7054  0.9083 -1.3936
  111CHL1   H2B14449   4.038   1.446   7.057 -3.2244  0.5745  0.0420
  111CHL1   C2014450   4.341   1.246   6.133 -0.3712 -0.4461 -0.1109
  111CHL1   H2014451   4.312   1.145   6.170  0.6752 -0.7679 -0.1187
  111CHL1   C2114452   4.479   1.251   6.202 -0.3342  0.5122  0.0345
  111CHL1  H21A14453   4.474   1.198   6.300  2.5953 -1.6070 -0.8031
  111CHL1  H21B14454   4.520   1.354   6.208 -0.9055  0.6969  0.9853
  111CHL1  H21C14455   4.546   1.179   6.149 -2.1351 -2.6494  1.7295
  111CHL1   C2214456   4.352   1.255   5.982 -0.1745 -0.8542 -0.2207
  111CHL1  H22A14457   4.411   1.172   5.938 -0.0721 -0.0269 -1.7231
  111CHL1  H22B14458   4.246   1.241   5.951 -1.5083  2.0853  2.4612
  111CHL1   C2314459   4.389   1.392   5.922 -0.1085  0.5060 -1.3049
  111CHL1  H23A14460   4.303   1.460   5.938  0.2742  0.5634  0.8644
  111CHL1  H23B14461   4.476   1.431   5.979 -1.6366  1.3831  0.5562
  111CHL1   C2414462   4.429   1.371   5.777 -0.0626  0.1600  0.2059
  111CHL1  H24A14463   4.507   1.292   5.774  0.6779  0.8509  0.9508
  111CHL1  H24B14464   4.344   1.331   5.718  0.7694 -1.5777  0.1336
  111CHL1   C2514465   4.484   1.496   5.702 -0.7936 -0.0915  0.1215
  111CHL1   H2514466   4.402   1.567   5.725 -1.8503 -1.6514  1.4003
  111CHL1   C2614467   4.612   1.553   5.768  0.9664  0.4068  0.4795
  111CHL1  H26A14468   4.701   1.488   5.755  0.6175 -0.2462  1.2101
  111CHL1  H26B14469   4.630   1.644   5.708  0.1281 -0.3423 -0.9672
  111CHL1  H26C14470   4.591   1.585   5.872 -0.2027 -1.2054  0.7871
  111CHL1   C2714471   4.498   1.476   5.557  0.2737  0.0153  0.0343
  111CHL1  H27A14472   4.489   1.572   5.502 -0.8734 -0.5923 -0.8608
  111CHL1  H27B14473   4.600   1.439   5.531  0.7732  0.0393  1.8356
  111CHL1  H27C14474   4.424   1.403   5.518  0.4092 -1.4777  2.3639
  112CHL1    C314475   5.024   2.779   7.119  0.1704 -0.5124 -0.5324
  112CHL1    H314476   4.947   2.849   7.158 -0.4257 -1.7899  0.6632
  112CHL1    O314477   5.097   2.733   7.231  0.2574 -0.2888  0.1580
  112CHL1   H3'14478   5.166   2.797   7.248  1.0677 -0.2707 -2.6606
  112CHL1    C414479   4.956   2.662   7.051 -0.6249 -0.0971 -0.6544
  112CHL1   H4A14480   5.041   2.591   7.043 -0.0398  0.2198  1.8209
  112CHL1   H4B14481   4.887   2.619   7.126  0.6810  0.7604  1.1010
  112CHL1    C514482   4.890   2.699   6.919  0.3505  0.3245 -0.3804
  112CHL1    C614483   4.762   2.665   6.894  0.0812 -0.0906  0.3947
  112CHL1    H614484   4.705   2.602   6.963 -1.7158 -0.6539 -1.5169
  112CHL1    C714485   4.692   2.699   6.760  0.3630  0.3208 -0.6306
  112CHL1   H7A14486   4.623   2.618   6.728 -1.3666  1.5982 -0.2679
  112CHL1   H7B14487   4.628   2.789   6.760  0.6006  0.5525  1.7071
  112CHL1    C814488   4.793   2.721   6.641  1.1627 -0.4527  0.1246
  112CHL1    H814489   4.846   2.626   6.621  1.9094 -0.0373  0.1095
  112CHL1   C1414490   4.716   2.772   6.520 -0.1958  0.3925  0.0293
  112CHL1   H1414491   4.667   2.865   6.556  0.8637  0.3386  1.7162
  112CHL1   C1514492   4.610   2.698   6.449 -0.1990  0.3544  0.3489
  112CHL1  H15A14493   4.641   2.592   6.438 -1.9996 -0.1802  0.1290
  112CHL1  H15B14494   4.516   2.692   6.508  1.5392  0.0885  3.2826
  112CHL1   C1614495   4.598   2.763   6.308  0.5870  0.1250  0.0107
  112CHL1  H16A14496   4.598   2.675   6.240  0.2054  1.9427 -2.4721
  112CHL1  H16B14497   4.504   2.819   6.287  1.6020  2.2148  0.8093
  112CHL1   C1714498   4.721   2.861   6.294  0.5229 -0.2200 -0.2571
  112CHL1   H1714499   4.677   2.959   6.324  0.2833 -0.1472 -0.8297
  112CHL1   C1314500   4.810   2.814   6.405  0.1065 -0.6948  0.1239
  112CHL1   C1814501   4.884   2.687   6.358  0.4413 -0.1306  0.4568
  112CHL1  H18A14502   4.945   2.708   6.268 -1.2898  1.7159 -0.3761
  112CHL1  H18B14503   4.959   2.644   6.428  2.1701  0.0971 -1.1857
  112CHL1  H18C14504   4.810   2.608   6.332 -0.3479  1.0587 -1.0538
  112CHL1   C1214505   4.912   2.918   6.462  0.6407  0.0405  0.3203
  112CHL1  H12A14506   4.982   2.975   6.397 -0.4807  1.1831  0.0499
  112CHL1  H12B14507   4.851   3.001   6.505  0.2218 -1.1826  2.2303
  112CHL1   C1114508   4.999   2.865   6.577 -0.5133 -0.5217 -0.2764
  112CHL1  H11A14509   5.068   2.785   6.543 -2.1970 -1.6342 -1.2564
  112CHL1  H11B14510   5.061   2.947   6.618 -2.2468 -0.2762  2.0541
  112CHL1    C914511   4.899   2.818   6.691  0.1621 -0.1361 -0.0965
  112CHL1    H914512   4.834   2.902   6.726 -0.6511 -0.0775 -1.6652
  112CHL1   C1014513   4.977   2.769   6.818 -0.1134  0.0683  0.9705
  112CHL1   C1914514   5.085   2.662   6.766 -0.0407 -0.0416 -0.3572
  112CHL1  H19A14515   5.169   2.714   6.715  1.1732  2.6219  3.8108
  112CHL1  H19B14516   5.131   2.621   6.858 -0.9169  0.1055  0.1609
  112CHL1  H19C14517   5.040   2.581   6.706  1.7271 -1.4249  0.1098
  112CHL1    C114518   5.051   2.880   6.887  0.3856  0.4977  0.3374
  112CHL1   H1A14519   5.122   2.948   6.834  0.7777  1.4749  2.0546
  112CHL1   H1B14520   4.971   2.946   6.927  0.4697  0.5187  0.4711
  112CHL1    C214521   5.128   2.845   7.018 -0.4926  0.1896 -0.2930
  112CHL1   H2A14522   5.179   2.929   7.068  1.9259 -1.5670  0.3768
  112CHL1   H2B14523   5.209   2.770   7.008  0.6013  1.1400  1.1106
  112CHL1   C2014524   4.763   2.873   6.150 -0.5046  0.1578 -0.3401
  112CHL1   H2014525   4.775   2.769   6.113 -0.7394  0.1479 -0.3954
  112CHL1   C2114526   4.885   2.961   6.141  0.2224  0.2295  0.6069
  112CHL1  H21A14527   4.976   2.928   6.196  1.5567  0.6096 -1.2521
  112CHL1  H21B14528   4.865   3.067   6.168  0.8315  0.2608  0.9618
  112CHL1  H21C14529   4.916   2.961   6.034 -0.8879  0.5327  0.2725
  112CHL1   C2214530   4.645   2.925   6.054 -0.2442 -0.0008  0.3854
  112CHL1  H22A14531   4.550   2.899   6.106 -0.0347 -3.0535 -0.5639
  112CHL1  H22B14532   4.641   3.035   6.039 -0.0081  0.2318  1.8562
  112CHL1   C2314533   4.645   2.861   5.911 -0.5729 -0.6223 -0.0342
  112CHL1  H23A14534   4.741   2.888   5.862 -2.0530  0.6968 -2.3558
  112CHL1  H23B14535   4.631   2.751   5.923  0.6337 -0.9055 -1.0119
  112CHL1   C2414536   4.537   2.908   5.824  0.6886  0.4645  0.5438
  112CHL1  H24A14537   4.436   2.925   5.867 -0.8023 -0.1468 -2.4252
  112CHL1  H24B14538   4.562   3.008   5.783 -2.0070  0.8983 -0.2073
  112CHL1   C2514539   4.512   2.808   5.705 -0.4565 -0.6135  0.1576
  112CHL1   H2514540   4.610   2.799   5.654  0.2207 -0.1822  1.3523
  112CHL1   C2614541   4.458   2.668   5.748  0.7949 -0.1004 -1.0773
  112CHL1  H26A14542   4.353   2.674   5.782  1.2448  0.8913  0.2453
  112CHL1  H26B14543   4.460   2.599   5.661 -0.5328 -3.4004  1.3108
  112CHL1  H26C14544   4.520   2.620   5.826 -0.2153  0.5759  0.1826
  112CHL1   C2714545   4.432   2.861   5.586 -0.2343  0.1509 -0.7902
  112CHL1  H27A14546   4.477   2.962   5.569  0.1337  0.5778  2.1031
  112CHL1  H27B14547   4.441   2.798   5.495 -0.0034  1.4759 -1.7216
  112CHL1  H27C14548   4.328   2.877   5.619  0.3823 -1.8283  2.6033
  113CHL1    C314549   6.865   4.135   7.336 -0.7142  0.8299  0.6305
  113CHL1    H314550   6.945   4.073   7.291 -0.2488 -0.9283  3.6333
  113CHL1    O314551   6.895   4.131   7.474  0.2927 -0.2393 -0.6006
  113CHL1   H3'14552   6.820   4.088   7.517  0.8662 -0.3957  0.2851
  113CHL1    C414553   6.896   4.279   7.290 -0.9591  0.2077  0.8221
  113CHL1   H4A14554   6.844   4.358   7.348 -1.1160  0.8770 -0.2047
  113CHL1   H4B14555   7.005   4.295   7.308 -0.5281 -0.1151 -1.2994
  113CHL1    C514556   6.852   4.290   7.145  0.0763  0.4553  0.5944
  113CHL1    C614557   6.939   4.347   7.065 -0.1624 -0.8346  0.1270
  113CHL1    H614558   7.042   4.370   7.097  0.3901 -1.8427 -0.8361
  113CHL1    C714559   6.905   4.373   6.921  0.4412  0.7939  0.4755
  113CHL1   H7A14560   6.934   4.477   6.898  0.1849  0.6147 -0.7330
  113CHL1   H7B14561   6.964   4.313   6.848 -2.6055 -1.6955 -0.1763
  113CHL1    C814562   6.756   4.352   6.878 -0.2588  0.3892 -0.0130
  113CHL1    H814563   6.698   4.444   6.902  0.5192  0.8137  0.2850
  113CHL1   C1414564   6.743   4.329   6.732  0.5882  0.2550  0.2005
  113CHL1   H1414565   6.796   4.235   6.704  1.3677  1.0765 -1.2175
  113CHL1   C1514566   6.802   4.445   6.645  0.4781 -0.1693  0.3193
  113CHL1  H15A14567   6.767   4.542   6.685 -1.8980 -0.2453 -1.3688
  113CHL1  H15B14568   6.913   4.442   6.643  0.4809 -0.7516  0.8658
  113CHL1   C1614569   6.736   4.404   6.513 -1.3510 -0.7771 -0.0023
  113CHL1  H16A14570   6.726   4.487   6.440  0.1655 -0.7682 -0.2315
  113CHL1  H16B14571   6.811   4.337   6.466 -0.1578 -0.4367  1.3277
  113CHL1   C1714572   6.612   4.311   6.535  0.7085 -0.4271  0.1242
  113CHL1   H1714573   6.655   4.211   6.514  1.1119 -0.2797  0.2272
  113CHL1   C1314574   6.594   4.322   6.687  0.2034 -0.0307 -0.3095
  113CHL1   C1814575   6.518   4.458   6.717  0.3266 -0.3511  0.3752
  113CHL1  H18A14576   6.411   4.438   6.698 -0.5008  2.8976  1.0846
  113CHL1  H18B14577   6.521   4.487   6.825  0.3093  3.4272 -0.5135
  113CHL1  H18C14578   6.555   4.546   6.660  0.0246 -0.3698  0.1490
  113CHL1   C1214579   6.538   4.203   6.765 -0.0390 -0.3252  0.1866
  113CHL1  H12A14580   6.431   4.214   6.736 -0.1115  0.5888  0.7583
  113CHL1  H12B14581   6.596   4.116   6.728  0.5769 -0.3698  1.2487
  113CHL1   C1114582   6.551   4.216   6.911  0.1347  0.1355 -0.3092
  113CHL1  H11A14583   6.495   4.306   6.947 -0.3411 -0.8323  1.5332
  113CHL1  H11B14584   6.495   4.134   6.961  2.5787 -0.8444  1.0006
  113CHL1    C914585   6.697   4.236   6.954 -0.3775 -0.3460 -0.2755
  113CHL1    H914586   6.743   4.143   6.914  1.9600  1.1742 -1.3469
  113CHL1   C1014587   6.710   4.245   7.108 -0.2396  0.2286  0.2754
  113CHL1   C1914588   6.604   4.335   7.167 -0.6650 -0.6032 -0.3314
  113CHL1  H19A14589   6.600   4.435   7.120 -1.1336  1.0316  2.8764
  113CHL1  H19B14590   6.504   4.285   7.172  0.0466 -2.0227  0.6464
  113CHL1  H19C14591   6.637   4.350   7.272  1.0689  0.1496 -0.9606
  113CHL1    C114592   6.686   4.099   7.161 -0.3610 -0.0096  0.2227
  113CHL1   H1A14593   6.577   4.078   7.152  0.0852 -2.1671 -0.9119
  113CHL1   H1B14594   6.729   4.020   7.095 -0.7296 -0.5369  0.6016
  113CHL1    C214595   6.724   4.080   7.309 -0.3921 -0.6887  0.5767
  113CHL1   H2A14596   6.714   3.975   7.344 -1.2707 -0.7209  0.2562
  113CHL1   H2B14597   6.656   4.135   7.379 -0.5127 -1.0369  0.7328
  113CHL1   C2014598   6.494   4.337   6.441 -0.1546 -0.1324  0.3206
  113CHL1   H2014599   6.453   4.440   6.446  0.3610  0.0394  1.4214
  113CHL1   C2114600   6.381   4.238   6.478  0.6942  0.1078  0.4969
  113CHL1  H21A14601   6.432   4.143   6.504 -0.0849 -0.8380 -1.2701
  113CHL1  H21B14602   6.313   4.214   6.393 -0.3110  1.3583  0.9230
  113CHL1  H21C14603   6.323   4.287   6.559 -0.9913  1.7976 -1.6116
  113CHL1   C2214604   6.542   4.329   6.287  0.5395  0.1379 -0.4078
  113CHL1  H22A14605   6.441   4.328   6.241  0.5165  1.1241 -0.3904
  113CHL1  H22B14606   6.587   4.423   6.249 -0.3302  0.0185 -1.8004
  113CHL1   C2314607   6.624   4.205   6.243 -0.4623 -0.0842 -0.3691
  113CHL1  H23A14608   6.715   4.188   6.305  0.0065  0.5954 -0.8635
  113CHL1  H23B14609   6.563   4.112   6.248 -1.2391  0.4505  0.6013
  113CHL1   C2414610   6.682   4.232   6.106 -0.2108  0.6284 -0.3104
  113CHL1  H24A14611   6.609   4.257   6.026  0.8444 -1.5869 -2.0835
  113CHL1  H24B14612   6.744   4.323   6.119  1.2161 -0.3272 -0.1317
  113CHL1   C2514613   6.774   4.115   6.052  0.1949 -0.1821 -0.5063
  113CHL1   H2514614   6.714   4.024   6.075 -0.0338 -0.2657 -1.3836
  113CHL1   C2614615   6.790   4.132   5.899  0.0841  0.3293  0.5096
  113CHL1  H26A14616   6.687   4.135   5.857  0.7115 -1.0624 -1.2446
  113CHL1  H26B14617   6.850   4.217   5.862  0.1692 -0.5664 -1.5529
  113CHL1  H26C14618   6.826   4.040   5.847  0.3120  1.2494 -0.9989
  113CHL1   C2714619   6.902   4.115   6.119 -0.0881 -0.1124  0.7357
  113CHL1  H27A14620   6.964   4.027   6.090 -0.3109  0.3149 -1.1718
  113CHL1  H27B14621   6.957   4.199   6.073 -0.6607 -1.7160 -3.2963
  113CHL1  H27C14622   6.894   4.113   6.230 -0.0785  0.9841  0.7593
  114CHL1    C314623   4.707   2.178   6.850 -0.6033  0.3101  0.1573
  114CHL1    H314624   4.761   2.095   6.798  0.5632  1.1863 -0.0744
  114CHL1    O314625   4.775   2.188   6.971  0.0560 -0.4642  0.4469
  114CHL1   H3'14626   4.726   2.254   7.020 -0.9116  0.2365 -1.3655
  114CHL1    C414627   4.726   2.302   6.757  0.5313 -0.0058  0.6813
  114CHL1   H4A14628   4.689   2.392   6.809 -0.6451  0.3184 -0.6544
  114CHL1   H4B14629   4.836   2.317   6.749  0.7468 -1.4645  0.5550
  114CHL1    C514630   4.649   2.291   6.625  0.2092 -0.3521  0.3117
  114CHL1    C614631   4.707   2.293   6.509 -0.4008 -0.5814 -0.1437
  114CHL1    H614632   4.816   2.307   6.510 -0.4568  0.2533 -1.9934
  114CHL1    C714633   4.632   2.289   6.372 -0.5911  0.2689  0.2612
  114CHL1   H7A14634   4.682   2.351   6.294  1.2058 -1.8318 -0.3783
  114CHL1   H7B14635   4.626   2.183   6.338 -0.4734  0.4046 -0.1882
  114CHL1    C814636   4.484   2.332   6.392 -0.2539  1.1315 -0.2701
  114CHL1    H814637   4.479   2.442   6.404 -1.4790  0.9363  1.2900
  114CHL1   C1414638   4.405   2.290   6.270 -0.1077  0.0540 -0.0118
  114CHL1   H1414639   4.398   2.179   6.270 -0.3714  0.0674 -0.6115
  114CHL1   C1514640   4.470   2.327   6.134  1.1869  0.1415 -0.4594
  114CHL1  H15A14641   4.530   2.421   6.144  0.0415  0.7277  1.2912
  114CHL1  H15B14642   4.531   2.243   6.095 -1.5304 -2.0682 -0.2269
  114CHL1   C1614643   4.350   2.341   6.034 -0.0915 -0.8142 -0.0831
  114CHL1  H16A14644   4.329   2.449   6.017  0.1313 -0.1793  3.0293
  114CHL1  H16B14645   4.377   2.277   5.948 -0.7540  1.2863 -1.9644
  114CHL1   C1714646   4.231   2.290   6.110  0.3493  0.1909 -0.7786
  114CHL1   H1714647   4.245   2.180   6.104 -0.1389  0.1958 -2.4801
  114CHL1   C1314648   4.256   2.336   6.262  0.1154 -0.5123  0.6514
  114CHL1   C1814649   4.240   2.490   6.282  0.1171  0.0487  0.3314
  114CHL1  H18A14650   4.145   2.542   6.260  0.6106  1.0711  0.5304
  114CHL1  H18B14651   4.265   2.514   6.388  0.6902 -0.7812  0.3948
  114CHL1  H18C14652   4.320   2.543   6.226  1.2566  0.2606  2.0562
  114CHL1   C1214653   4.187   2.261   6.373  0.8918 -0.5640 -0.1038
  114CHL1  H12A14654   4.081   2.290   6.384  0.9023 -0.0589 -1.1711
  114CHL1  H12B14655   4.208   2.155   6.345  3.3775  0.1902 -1.4209
  114CHL1   C1114656   4.254   2.285   6.515 -0.2808 -0.4551  0.2876
  114CHL1  H11A14657   4.249   2.391   6.547  2.1223 -0.4427  0.7990
  114CHL1  H11B14658   4.216   2.225   6.600 -0.8645  1.4989  1.4721
  114CHL1    C914659   4.415   2.266   6.513 -0.3116  0.3464  0.2186
  114CHL1    H914660   4.424   2.159   6.485 -0.8190  0.9452 -2.5472
  114CHL1   C1014661   4.491   2.277   6.650 -0.4320 -0.2556 -0.0391
  114CHL1   C1914662   4.439   2.399   6.719 -0.6232 -0.3457 -0.0179
  114CHL1  H19A14663   4.485   2.417   6.819 -0.6038 -2.3810  0.3855
  114CHL1  H19B14664   4.457   2.493   6.662  0.8289 -0.6439 -0.0969
  114CHL1  H19C14665   4.330   2.399   6.739 -0.6491  1.9936  0.0824
  114CHL1    C114666   4.465   2.154   6.748  0.1429 -0.0669  0.2363
  114CHL1   H1A14667   4.363   2.172   6.787  0.1437  1.3203 -0.3324
  114CHL1   H1B14668   4.468   2.060   6.689 -0.0083 -0.3703  0.7012
  114CHL1    C214669   4.562   2.144   6.877  0.1251  1.1748 -0.3570
  114CHL1   H2A14670   4.545   2.047   6.928  1.2830 -0.0049 -2.0831
  114CHL1   H2B14671   4.522   2.229   6.936 -0.2151  1.3918 -0.8905
  114CHL1   C2014672   4.097   2.320   6.031  0.0579 -0.3528  0.0286
  114CHL1   H2014673   4.088   2.430   6.020 -0.9353 -0.4129  0.1531
  114CHL1   C2114674   3.979   2.258   6.106 -0.3300 -0.5195  0.0888
  114CHL1  H21A14675   3.882   2.287   6.061 -1.2622  1.1145  2.9193
  114CHL1  H21B14676   3.980   2.300   6.209  0.7981  3.8165 -1.4458
  114CHL1  H21C14677   3.991   2.148   6.098  0.8076 -0.2708 -3.3943
  114CHL1   C2214678   4.106   2.255   5.887 -0.1412 -0.0464 -0.7743
  114CHL1  H22A14679   4.179   2.304   5.818  0.7589 -0.6369 -0.2439
  114CHL1  H22B14680   4.142   2.152   5.905 -1.2739 -0.2323  0.5506
  114CHL1   C2314681   3.964   2.243   5.815  0.6528  0.5362 -0.0214
  114CHL1  H23A14682   3.897   2.175   5.872  0.8986 -0.0413 -0.4064
  114CHL1  H23B14683   3.916   2.343   5.808 -0.2638  0.1861  0.8969
  114CHL1   C2414684   3.969   2.179   5.675 -0.5946  0.4865 -0.7314
  114CHL1  H24A14685   4.029   2.246   5.610  1.7678 -0.9660 -0.1938
  114CHL1  H24B14686   4.024   2.083   5.687  0.6099  1.1597 -0.6810
  114CHL1   C2514687   3.835   2.152   5.603  0.1244 -0.2349 -0.3241
  114CHL1   H2514688   3.761   2.171   5.684 -1.6402 -0.0174 -1.9293
  114CHL1   C2614689   3.805   2.252   5.496  0.1717  0.0900  0.4483
  114CHL1  H26A14690   3.701   2.235   5.460  0.3632 -1.6043  0.6009
  114CHL1  H26B14691   3.821   2.353   5.540  2.4770 -0.0705  0.0984
  114CHL1  H26C14692   3.867   2.231   5.406 -0.6285  3.8883 -1.1909
  114CHL1   C2714693   3.819   2.008   5.565 -0.5679  1.4918 -0.5212
  114CHL1  H27A14694   3.814   1.942   5.653 -1.3860 -0.1231 -1.7256
  114CHL1  H27B14695   3.715   2.007   5.526 -1.4412 -0.6808  1.6602
  114CHL1  H27C14696   3.892   1.993   5.482  0.2617  2.5974 -0.0133
  115CHL1    C314697   2.044   0.474   6.285 -0.1449 -0.5772 -0.1644
  115CHL1    H314698   2.122   0.549   6.261  2.1879 -3.5707 -2.8604
  115CHL1    O314699   2.013   0.478   6.420  0.2549 -0.4595 -0.1508
  115CHL1   H3'14700   1.966   0.396   6.436 -0.0921 -0.4648 -1.1081
  115CHL1    C414701   1.921   0.499   6.206 -0.1987  0.1434 -0.1658
  115CHL1   H4A14702   1.849   0.420   6.233  1.6828 -2.1972 -1.5993
  115CHL1   H4B14703   1.890   0.602   6.235  1.0480  0.9105 -1.3768
  115CHL1    C514704   1.944   0.493   6.056 -0.1788  0.0796  0.0219
  115CHL1    C614705   1.918   0.596   5.968  0.0894  0.5017  0.2489
  115CHL1    H614706   1.872   0.691   5.999 -2.0953 -0.4138 -0.0029
  115CHL1    C714707   1.935   0.591   5.818  0.1210  0.2896  0.2971
  115CHL1   H7A14708   1.845   0.617   5.759 -0.6972  1.3886  1.9342
  115CHL1   H7B14709   2.020   0.658   5.792  0.1127 -0.0065 -0.5204
  115CHL1    C814710   1.970   0.441   5.774  0.3926  0.0230  0.5612
  115CHL1    H814711   1.878   0.378   5.772 -0.0913  0.6565 -2.1079
  115CHL1   C1414712   2.025   0.440   5.634 -0.2477 -0.1066  0.6321
  115CHL1   H1414713   2.117   0.503   5.637  0.6179 -1.3824  1.9630
  115CHL1   C1514714   1.939   0.517   5.526 -0.6373  0.3144 -0.5001
  115CHL1  H15A14715   1.832   0.491   5.536 -0.8452  0.8062 -1.2901
  115CHL1  H15B14716   1.957   0.627   5.532  0.2530  0.1730 -0.3632
  115CHL1   C1614717   1.991   0.463   5.387  0.2521  0.2589  0.1050
  115CHL1  H16A14718   1.912   0.421   5.322  0.2309  2.5023 -1.4734
  115CHL1  H16B14719   2.034   0.538   5.316 -0.1747 -0.1337 -0.5805
  115CHL1   C1714720   2.097   0.357   5.429  0.1903  0.1023  0.7099
  115CHL1   H1714721   2.190   0.412   5.453  0.6814  0.0445 -0.9517
  115CHL1   C1314722   2.056   0.304   5.568 -0.2950  0.2316 -0.0409
  115CHL1   C1814723   1.932   0.212   5.544 -0.8722 -0.7071 -0.7815
  115CHL1  H18A14724   1.974   0.112   5.520 -1.3178 -1.3525  1.0066
  115CHL1  H18B14725   1.884   0.198   5.643 -0.3422 -0.3294 -0.4650
  115CHL1  H18C14726   1.850   0.246   5.477 -1.8506 -0.3548  0.5491
  115CHL1   C1214727   2.163   0.241   5.663 -0.1926 -0.0354  0.4278
  115CHL1  H12A14728   2.192   0.138   5.636 -0.3982  0.2769 -1.0749
  115CHL1  H12B14729   2.254   0.302   5.645 -1.9165  2.3079 -0.9387
  115CHL1   C1114730   2.124   0.245   5.812  0.2229  0.2663  0.1211
  115CHL1  H11A14731   2.048   0.165   5.820  0.7321 -0.7651 -3.4685
  115CHL1  H11B14732   2.221   0.226   5.863  0.2146 -1.6750 -0.5068
  115CHL1    C914733   2.065   0.377   5.874  0.4195 -0.1718 -0.0712
  115CHL1    H914734   2.150   0.448   5.883  0.0843  0.0132  2.1457
  115CHL1   C1014735   2.012   0.360   6.015  0.2065 -0.1115  0.9017
  115CHL1   C1914736   1.907   0.245   6.025 -0.7473 -0.0136 -0.1579
  115CHL1  H19A14737   1.829   0.262   5.948 -1.8403 -0.1139  0.8833
  115CHL1  H19B14738   1.963   0.151   6.007  0.3774  0.9255 -1.7709
  115CHL1  H19C14739   1.850   0.229   6.120  0.1307 -3.8871 -0.1161
  115CHL1    C114740   2.133   0.331   6.112  0.0663  0.0996  0.1541
  115CHL1   H1A14741   2.164   0.226   6.093  0.2236  0.0020  0.9117
  115CHL1   H1B14742   2.215   0.405   6.103 -0.0103  0.1733  0.0746
  115CHL1    C214743   2.097   0.338   6.257  0.7533 -0.2651 -0.3858
  115CHL1   H2A14744   2.169   0.299   6.332  1.8278  0.7866 -0.8259
  115CHL1   H2B14745   2.012   0.270   6.272  0.6575  0.3749  2.5785
  115CHL1   C2014746   2.136   0.246   5.319 -0.0115 -1.2208  0.1896
  115CHL1   H2014747   2.047   0.179   5.313 -2.0262  1.1490  1.6604
  115CHL1   C2114748   2.262   0.167   5.363 -0.4046  0.3019  0.6832
  115CHL1  H21A14749   2.242   0.120   5.461  1.7678 -0.6909  0.7042
  115CHL1  H21B14750   2.352   0.232   5.368  1.0288 -1.6076  0.7260
  115CHL1  H21C14751   2.283   0.087   5.288  2.4665  0.8448  0.8023
  115CHL1   C2214752   2.165   0.315   5.181  0.0332 -0.1047 -0.2780
  115CHL1  H22A14753   2.083   0.386   5.161  1.3520  1.0754 -1.7349
  115CHL1  H22B14754   2.258   0.373   5.197  0.3571 -0.9536  1.0576
  115CHL1   C2314755   2.157   0.225   5.064 -0.3687  0.1694  0.1682
  115CHL1  H23A14756   2.192   0.290   4.981  0.5646  2.5671  2.3221
  115CHL1  H23B14757   2.244   0.156   5.069 -0.3047  0.2553  0.2537
  115CHL1   C2414758   2.019   0.157   5.053 -0.6745  0.1977  0.2226
  115CHL1  H24A14759   1.980   0.114   5.148  1.3728 -2.2693  0.0481
  115CHL1  H24B14760   1.941   0.235   5.039  0.7153  1.3352 -1.6225
  115CHL1   C2514761   2.017   0.048   4.945  0.1388 -0.6567  0.1292
  115CHL1   H2514762   1.915   0.017   4.915  0.2747  0.2494 -1.3947
  115CHL1   C2614763   2.082   0.091   4.811 -0.0740  0.1072  0.1957
  115CHL1  H26A14764   2.049   0.190   4.772  1.1732 -0.3952 -2.3290
  115CHL1  H26B14765   2.191   0.094   4.832 -0.2923 -0.1633  1.4640
  115CHL1  H26C14766   2.058   0.015   4.734 -0.6817  0.1656  0.3205
  115CHL1   C2714767   2.087  -0.073   5.003  0.3167 -0.6197  0.2072
  115CHL1  H27A14768   2.196  -0.056   5.015 -0.0266  2.0133  0.2836
  115CHL1  H27B14769   2.042  -0.087   5.104  1.6556 -1.3295  0.7287
  115CHL1  H27C14770   2.073  -0.165   4.943  0.3658  0.1723 -1.0467
  116CHL1    C314771   3.746   2.018   6.627 -0.1770  0.9581 -0.7810
  116CHL1    H314772   3.839   2.022   6.567 -0.1485 -0.2717 -0.8391
  116CHL1    O314773   3.781   2.056   6.757 -0.2032 -0.1959 -0.7126
  116CHL1   H3'14774   3.706   2.041   6.814 -1.6206  0.5965 -2.2895
  116CHL1    C414775   3.637   2.115   6.566  0.2662 -1.0134 -0.3696
  116CHL1   H4A14776   3.550   2.117   6.635  0.0674 -0.7476 -0.6245
  116CHL1   H4B14777   3.674   2.218   6.578 -2.4267 -0.1114  1.0313
  116CHL1    C514778   3.602   2.070   6.432 -0.4548 -0.2406 -0.1615
  116CHL1    C614779   3.608   2.156   6.332 -0.0668 -0.7171 -0.5642
  116CHL1    H614780   3.624   2.263   6.349 -0.0484 -0.2852 -2.9904
  116CHL1    C714781   3.574   2.118   6.186  0.1245  0.3266  0.1590
  116CHL1   H7A14782   3.508   2.198   6.144  0.5382  1.8375  2.2339
  116CHL1   H7B14783   3.670   2.124   6.131  0.6053  0.1065  0.9577
  116CHL1    C814784   3.511   1.979   6.178  0.1663 -0.5025  0.2302
  116CHL1    H814785   3.410   2.002   6.220  0.9325  0.5361  1.5782
  116CHL1   C1414786   3.506   1.926   6.036 -0.2977 -0.2896  0.7831
  116CHL1   H1414787   3.612   1.901   6.012 -0.1803  0.1990  0.7923
  116CHL1   C1514788   3.467   2.020   5.928 -0.5927 -0.5252 -0.1759
  116CHL1  H15A14789   3.370   2.067   5.956  1.1495  2.1476  1.8829
  116CHL1  H15B14790   3.550   2.092   5.916  0.4236 -1.6007  0.2679
  116CHL1   C1614791   3.438   1.928   5.807 -0.4661  1.0865  0.1636
  116CHL1  H16A14792   3.347   1.960   5.754  0.3195  1.7827 -0.8056
  116CHL1  H16B14793   3.528   1.929   5.741  1.3862 -0.2105  2.4797
  116CHL1   C1714794   3.437   1.780   5.865  0.4505  0.3653  0.6315
  116CHL1   H1714795   3.533   1.732   5.834 -0.1366 -1.4420  1.4874
  116CHL1   C1314796   3.427   1.794   6.020  0.1940  0.0603 -0.2680
  116CHL1   C1814797   3.276   1.821   6.058 -0.4806  0.4628 -0.1123
  116CHL1  H18A14798   3.237   1.911   6.005 -2.5689 -1.9370 -3.0969
  116CHL1  H18B14799   3.210   1.734   6.035  0.1170 -0.1708  0.5599
  116CHL1  H18C14800   3.271   1.845   6.166  0.7923  2.0743 -0.3693
  116CHL1   C1214801   3.495   1.687   6.107  0.2468  0.2306 -0.7316
  116CHL1  H12A14802   3.429   1.597   6.098  0.9639 -0.3562 -0.2447
  116CHL1  H12B14803   3.598   1.661   6.074 -0.3594 -0.7823 -1.9109
  116CHL1   C1114804   3.498   1.733   6.257  0.1163 -0.1351 -0.4542
  116CHL1  H11A14805   3.394   1.742   6.292 -0.3309 -2.6608 -0.9535
  116CHL1  H11B14806   3.539   1.643   6.307  1.9376 -0.1089 -1.7687
  116CHL1    C914807   3.569   1.875   6.273 -0.1667 -0.2831  0.4969
  116CHL1    H914808   3.677   1.870   6.245  0.3295  2.2455  1.6529
  116CHL1   C1014809   3.566   1.923   6.424 -0.1630  0.1041  0.0169
  116CHL1   C1914810   3.429   1.912   6.486 -0.3390  0.3462 -0.4955
  116CHL1  H19A14811   3.403   1.805   6.495  0.9708  0.1562  2.5886
  116CHL1  H19B14812   3.425   1.949   6.591 -3.1031  0.8705 -0.7070
  116CHL1  H19C14813   3.351   1.968   6.431 -1.4123 -0.6131 -0.0008
  116CHL1    C114814   3.655   1.828   6.501  0.7041 -0.1930  0.5560
  116CHL1   H1A14815   3.614   1.725   6.512 -0.3830  0.2375  0.5910
  116CHL1   H1B14816   3.742   1.802   6.437 -0.4599 -0.1682 -1.1241
  116CHL1    C214817   3.703   1.871   6.638  0.2096  0.0137  0.1502
  116CHL1   H2A14818   3.786   1.809   6.678 -1.5089 -1.5199  1.5824
  116CHL1   H2B14819   3.610   1.859   6.699  1.0931 -1.7957  1.2274
  116CHL1   C2014820   3.330   1.698   5.789 -0.1942  0.1156 -0.0209
  116CHL1   H2014821   3.231   1.749   5.799 -1.0895 -1.5593 -0.0147
  116CHL1   C2114822   3.316   1.555   5.841  0.5324  1.2067  0.8549
  116CHL1  H21A14823   3.292   1.553   5.949  0.0291  0.1297  0.7365
  116CHL1  H21B14824   3.411   1.506   5.810 -0.9002 -1.1236 -0.0646
  116CHL1  H21C14825   3.244   1.484   5.795  3.0254 -1.9448  1.4478
  116CHL1   C2214826   3.350   1.698   5.631  0.3437 -0.1395 -0.1656
  116CHL1  H22A14827   3.349   1.807   5.611 -0.2554  0.1790  1.4335
  116CHL1  H22B14828   3.452   1.663   5.603  0.2003  0.7029 -1.8752
  116CHL1   C2314829   3.246   1.641   5.538  0.5543 -0.2544 -0.1283
  116CHL1  H23A14830   3.248   1.530   5.549  0.5461 -0.3159 -0.7186
  116CHL1  H23B14831   3.144   1.664   5.576  0.4029 -1.1041  0.0166
  116CHL1   C2414832   3.273   1.671   5.388  0.1281  0.0988  0.1569
  116CHL1  H24A14833   3.287   1.779   5.365  0.1255 -0.0741 -0.6984
  116CHL1  H24B14834   3.371   1.622   5.368  0.5365  1.7169 -2.1391
  116CHL1   C2514835   3.164   1.601   5.289  0.1680 -0.1585  0.4030
  116CHL1   H2514836   3.069   1.646   5.325  0.5122 -0.9732  2.4511
  116CHL1   C2614837   3.193   1.636   5.146  0.2429  0.4503  0.0783
  116CHL1  H26A14838   3.293   1.601   5.114  0.0733 -0.0425  0.0659
  116CHL1  H26B14839   3.119   1.583   5.082 -0.1029 -0.8419  1.4755
  116CHL1  H26C14840   3.182   1.744   5.122  1.8536 -0.1520 -4.1724
  116CHL1   C2714841   3.155   1.448   5.297 -0.1351 -0.6879  0.0211
  116CHL1  H27A14842   3.245   1.396   5.257  1.0628  1.9827 -1.0067
  116CHL1  H27B14843   3.140   1.412   5.401  0.2642 -0.0706  0.2973
  116CHL1  H27C14844   3.066   1.414   5.241  0.6929 -0.2633 -1.6271
  117CHL1    C314845   5.928   1.072   7.143  0.1435 -0.0154  0.1132
  117CHL1    H314846   6.026   1.030   7.111 -0.5603 -0.4217 -1.6589
  117CHL1    O314847   5.925   1.136   7.262  0.0964 -0.9670  0.4140
  117CHL1   H3'14848   5.941   1.228   7.238 -1.3241 -0.4220  1.3996
  117CHL1    C414849   5.873   1.171   7.035 -0.0876  0.0739 -0.7844
  117CHL1   H4A14850   5.776   1.219   7.059  0.7096  1.1840  0.3367
  117CHL1   H4B14851   5.939   1.260   7.046 -0.6906  0.4710 -0.2991
  117CHL1    C514852   5.879   1.115   6.899  0.3702  0.0525  0.7989
  117CHL1    C614853   5.960   1.167   6.809 -0.5628  0.3772  0.2799
  117CHL1    H614854   6.024   1.255   6.824  0.6420 -0.3467 -0.4313
  117CHL1    C714855   5.970   1.105   6.664  0.8501  0.1692  0.2777
  117CHL1   H7A14856   5.969   1.186   6.588 -2.0251 -1.3106 -1.4261
  117CHL1   H7B14857   6.071   1.062   6.654  1.6046  1.5355  1.5338
  117CHL1    C814858   5.853   1.016   6.627  0.1302 -0.2998  0.3466
  117CHL1    H814859   5.758   1.071   6.613  0.5787  0.1834 -0.9922
  117CHL1   C1414860   5.882   0.930   6.497 -0.7466 -0.1087 -0.9569
  117CHL1   H1414861   5.973   0.870   6.519  0.1100  1.7709  1.0253
  117CHL1   C1514862   5.932   0.998   6.368 -0.1868 -0.5480  0.3398
  117CHL1  H15A14863   5.866   1.087   6.352 -0.2104 -0.6872 -0.3576
  117CHL1  H15B14864   6.040   1.020   6.377 -0.5853  1.0168  1.8543
  117CHL1   C1614865   5.907   0.893   6.255  0.4883 -0.2779 -0.3681
  117CHL1  H16A14866   5.841   0.938   6.177 -1.8755 -0.7386  1.2495
  117CHL1  H16B14867   6.002   0.873   6.201 -0.7337 -1.8552 -2.0488
  117CHL1   C1714868   5.850   0.769   6.330  0.3525  0.4510  0.2845
  117CHL1   H1714869   5.936   0.707   6.364 -0.7270 -0.2729  1.8378
  117CHL1   C1314870   5.784   0.823   6.456  0.3059 -0.0087 -0.7385
  117CHL1   C1814871   5.647   0.885   6.418  0.3152  0.6965 -0.1173
  117CHL1  H18A14872   5.573   0.803   6.418  0.2639  0.6697  2.1607
  117CHL1  H18B14873   5.615   0.965   6.488 -0.4169  0.0893  0.2506
  117CHL1  H18C14874   5.654   0.931   6.317 -1.2624 -1.4032 -1.2704
  117CHL1   C1214875   5.750   0.732   6.581 -0.4654 -0.3688  0.6245
  117CHL1  H12A14876   5.660   0.670   6.561 -0.6900 -0.3631  1.5498
  117CHL1  H12B14877   5.842   0.672   6.601 -0.1360  0.3135  1.2338
  117CHL1   C1114878   5.706   0.813   6.704 -0.2015  0.7809  0.7401
  117CHL1  H11A14879   5.604   0.849   6.679 -0.6324  0.3924  1.8960
  117CHL1  H11B14880   5.682   0.731   6.775  0.1404  0.7354  0.8039
  117CHL1    C914881   5.815   0.915   6.747 -0.3880 -0.6420  0.0992
  117CHL1    H914882   5.907   0.860   6.775  0.8433  1.0419 -0.4913
  117CHL1   C1014883   5.786   0.992   6.882 -0.6475 -1.1222  0.4980
  117CHL1   C1914884   5.640   1.053   6.883  0.3848 -0.0646  0.3714
  117CHL1  H19A14885   5.573   0.972   6.850  1.1154  0.0744 -1.6162
  117CHL1  H19B14886   5.608   1.096   6.980 -0.7068  0.4002 -0.1787
  117CHL1  H19C14887   5.622   1.134   6.809 -4.4151 -0.5388  0.6959
  117CHL1    C114888   5.811   0.894   7.008  0.7580  0.1708  0.1621
  117CHL1   H1A14889   5.724   0.826   7.021 -0.5389  1.9413  1.2152
  117CHL1   H1B14890   5.903   0.834   6.991  1.4079  1.2225 -0.1033
  117CHL1    C214891   5.818   0.966   7.144  0.0647  0.2265 -0.0339
  117CHL1   H2A14892   5.839   0.887   7.220 -1.7253 -1.5589 -1.3016
  117CHL1   H2B14893   5.716   1.000   7.170 -0.0527 -1.2519  1.6362
  117CHL1   C2014894   5.759   0.683   6.230  0.0267 -0.2237 -0.5687
  117CHL1   H2014895   5.673   0.740   6.192  0.4577  0.5947 -0.3312
  117CHL1   C2114896   5.706   0.557   6.297 -0.4098  0.1906 -0.1753
  117CHL1  H21A14897   5.626   0.581   6.369 -1.0541  0.8268 -1.0811
  117CHL1  H21B14898   5.783   0.494   6.347  0.9414  0.8197 -1.3843
  117CHL1  H21C14899   5.664   0.481   6.227  1.6440 -0.4369 -0.8023
  117CHL1   C2214900   5.846   0.644   6.111  0.3170 -0.4481  0.3059
  117CHL1  H22A14901   5.880   0.740   6.067  2.8794 -1.3735  0.1009
  117CHL1  H22B14902   5.936   0.589   6.147  0.8566  1.2155  1.6458
  117CHL1   C2314903   5.782   0.562   5.999  0.6018 -0.0310 -0.5430
  117CHL1  H23A14904   5.800   0.453   6.009  0.2125 -0.6930 -4.9345
  117CHL1  H23B14905   5.672   0.574   5.993  0.2952 -2.8217 -2.7919
  117CHL1   C2414906   5.826   0.588   5.852 -0.5822 -0.2051 -0.1315
  117CHL1  H24A14907   5.827   0.699   5.845 -2.1338 -0.1491  0.0095
  117CHL1  H24B14908   5.929   0.549   5.840 -0.0680  0.8562  0.7404
  117CHL1   C2514909   5.729   0.552   5.740 -0.1180  0.2210  0.0573
  117CHL1   H2514910   5.630   0.597   5.758 -0.9513 -1.4469 -0.1558
  117CHL1   C2614911   5.787   0.589   5.605  0.3713  0.3503 -0.0642
  117CHL1  H26A14912   5.806   0.697   5.589  1.2639 -0.0105 -1.6366
  117CHL1  H26B14913   5.881   0.532   5.587  1.0242  1.9153 -2.0180
  117CHL1  H26C14914   5.710   0.563   5.529  0.0530  0.6767  0.1453
  117CHL1   C2714915   5.699   0.404   5.748  0.2862  0.4899  0.0060
  117CHL1  H27A14916   5.626   0.370   5.825 -0.0418 -0.7582 -0.8256
  117CHL1  H27B14917   5.664   0.364   5.651 -0.3955 -0.3610  0.5861
  117CHL1  H27C14918   5.791   0.346   5.767  0.0780 -0.6024 -2.0636
  118CHL1    C314919   6.741   1.397   7.130  0.5056 -0.1614  0.3178
  118CHL1    H314920   6.659   1.334   7.091 -0.8035  2.1724 -0.9392
  118CHL1    O314921   6.755   1.390   7.272 -0.7707 -0.1893 -0.5616
  118CHL1   H3'14922   6.694   1.455   7.309 -0.9470 -0.4269 -0.4318
  118CHL1    C414923   6.877   1.356   7.077 -0.3685  0.5269  0.0671
  118CHL1   H4A14924   6.959   1.424   7.109  0.3314 -1.2501  2.3225
  118CHL1   H4B14925   6.903   1.257   7.120  2.7497  1.8512  1.5592
  118CHL1    C514926   6.876   1.360   6.923  0.0970  0.4495  0.1678
  118CHL1    C614927   6.899   1.255   6.846 -0.1719 -0.1768 -0.4328
  118CHL1    H614928   6.923   1.155   6.885  1.8229  0.1795 -0.6452
  118CHL1    C714929   6.900   1.259   6.698 -0.0786 -0.2716 -0.0515
  118CHL1   H7A14930   6.992   1.210   6.661  0.1883 -1.0091  1.5137
  118CHL1   H7B14931   6.814   1.197   6.665 -0.6263  0.0117  0.8164
  118CHL1    C814932   6.895   1.398   6.638  0.8108  0.0916 -0.2366
  118CHL1    H814933   6.997   1.443   6.647 -0.3367  2.5779  1.7084
  118CHL1   C1414934   6.873   1.383   6.487 -0.1549 -0.1897  0.0276
  118CHL1   H1414935   6.767   1.349   6.485  0.9386 -4.0410 -1.4489
  118CHL1   C1514936   6.956   1.285   6.397  0.4655  0.3029 -0.3263
  118CHL1  H15A14937   7.065   1.297   6.417  0.2820 -1.2683  1.8939
  118CHL1  H15B14938   6.924   1.180   6.414  1.1959  0.2277  0.6810
  118CHL1   C1614939   6.927   1.329   6.252  0.4164  0.5268 -0.2679
  118CHL1  H16A14940   7.023   1.340   6.198  1.6662 -1.8661  1.3114
  118CHL1  H16B14941   6.870   1.250   6.197  3.8366 -1.0059 -1.8878
  118CHL1   C1714942   6.845   1.467   6.268  0.1142  0.6543  0.5338
  118CHL1   H1714943   6.737   1.443   6.266  0.2775 -0.0205 -1.0878
  118CHL1   C1314944   6.873   1.513   6.412 -0.3409 -0.5445  0.2811
  118CHL1   C1814945   7.011   1.581   6.415 -0.8254  0.0928  0.2780
  118CHL1  H18A14946   7.090   1.516   6.373 -0.3723  0.5259  0.4595
  118CHL1  H18B14947   7.010   1.674   6.353 -0.4380  0.3882  0.7166
  118CHL1  H18C14948   7.040   1.596   6.521  0.2651 -1.2294  0.1897
  118CHL1   C1214949   6.771   1.609   6.476 -0.1288  0.1201 -0.2046
  118CHL1  H12A14950   6.766   1.707   6.423  1.9325 -0.2315 -1.1386
  118CHL1  H12B14951   6.668   1.568   6.473  0.1812 -0.6323 -0.8224
  118CHL1   C1114952   6.791   1.626   6.630 -0.2201  0.1410 -0.3413
  118CHL1  H11A14953   6.887   1.679   6.646  0.4230 -1.1032  0.0734
  118CHL1  H11B14954   6.708   1.688   6.671 -0.0507  0.2831 -0.2124
  118CHL1    C914955   6.804   1.497   6.708  0.6387  0.8375 -0.9467
  118CHL1    H914956   6.707   1.442   6.704  1.8607 -1.3761 -2.3863
  118CHL1   C1014957   6.835   1.498   6.861  0.4634 -0.2370  0.0717
  118CHL1   C1914958   6.955   1.591   6.885 -0.2519 -0.3025 -0.3917
  118CHL1  H19A14959   6.972   1.591   6.994  0.1818  1.1355 -0.4437
  118CHL1  H19B14960   7.048   1.571   6.827 -0.1929  2.0599 -1.2269
  118CHL1  H19C14961   6.918   1.693   6.859 -1.4012 -0.8089 -0.8089
  118CHL1    C114962   6.700   1.551   6.934  0.1246  0.1976  0.3061
  118CHL1   H1A14963   6.686   1.655   6.898 -1.1204 -0.2184 -0.4963
  118CHL1   H1B14964   6.618   1.482   6.902  3.3483 -3.0596 -1.6183
  118CHL1    C214965   6.705   1.542   7.087 -0.2674 -0.0885  0.3470
  118CHL1   H2A14966   6.618   1.587   7.139 -0.3063 -1.0640  1.1581
  118CHL1   H2B14967   6.779   1.617   7.124 -0.5520 -0.8739  2.6901
  118CHL1   C2014968   6.866   1.562   6.144  0.3572  0.4159 -0.2247
  118CHL1   H2014969   6.972   1.598   6.142  0.4484  0.2933  1.5094
  118CHL1   C2114970   6.771   1.678   6.145 -0.9478 -0.1418 -0.1717
  118CHL1  H21A14971   6.667   1.650   6.171 -0.6339 -1.0718  0.0974
  118CHL1  H21B14972   6.782   1.732   6.048  1.7134  0.9322  0.6302
  118CHL1  H21C14973   6.811   1.747   6.222  2.4877 -0.5684 -1.3739
  118CHL1   C2214974   6.843   1.489   6.004  0.0163 -0.3590  0.3270
  118CHL1  H22A14975   6.869   1.566   5.929  0.4142  1.2335  2.0322
  118CHL1  H22B14976   6.906   1.398   5.992 -0.0717 -0.2137 -1.5217
  118CHL1   C2314977   6.695   1.456   5.968 -0.1572 -0.0465 -0.7769
  118CHL1  H23A14978   6.660   1.376   6.037 -0.0858 -1.3105 -2.1680
  118CHL1  H23B14979   6.625   1.540   5.987 -1.1341 -0.8414 -0.7251
  118CHL1   C2414980   6.686   1.401   5.828  0.0404 -0.4118  0.3364
  118CHL1  H24A14981   6.682   1.488   5.759 -2.3644  0.1328  1.0636
  118CHL1  H24B14982   6.778   1.342   5.811  0.8654  1.0150 -0.2817
  118CHL1   C2514983   6.574   1.299   5.807  0.2142 -0.6447  0.8830
  118CHL1   H2514984   6.574   1.225   5.890 -1.3554 -1.0277  0.5692
  118CHL1   C2614985   6.443   1.367   5.806  0.1107 -0.7991  0.3889
  118CHL1  H26A14986   6.352   1.305   5.794  0.0110 -0.3381 -1.5341
  118CHL1  H26B14987   6.426   1.435   5.892  0.4340  0.2588 -0.3662
  118CHL1  H26C14988   6.452   1.439   5.723  0.8455 -2.2469 -0.8416
  118CHL1   C2714989   6.578   1.220   5.676  0.6624 -0.0177  0.0799
  118CHL1  H27A14990   6.497   1.144   5.675  1.3608 -0.7717 -0.9363
  118CHL1  H27B14991   6.547   1.272   5.582 -0.4007  0.3036  0.5950
  118CHL1  H27C14992   6.670   1.161   5.658 -0.1725 -1.4113  0.2538
  119CHL1    C314993   2.376   7.367   6.442 -0.1211 -0.3194 -0.1643
  119CHL1    H314994   2.323   7.465   6.441 -0.3737 -0.4453  0.3597
  119CHL1    O314995   2.447   7.341   6.562  0.4950 -0.5907 -0.9024
  119CHL1   H3'14996   2.517   7.407   6.554  1.0561 -0.8220  1.3936
  119CHL1    C414997   2.277   7.251   6.425 -0.2113  0.4471 -0.0857
  119CHL1   H4A14998   2.331   7.155   6.431  0.4018  0.8124  0.2817
  119CHL1   H4B14999   2.196   7.262   6.501  0.2907  0.7184  0.4137
  119CHL1    C515000   2.213   7.256   6.283  0.6874 -0.5409 -0.2618
  119CHL1    C615001   2.078   7.267   6.274  0.1082 -0.2488 -0.0393
  119CHL1    H615002   2.019   7.267   6.367  2.9574  0.2478  1.8873
  119CHL1    C715003   2.001   7.265   6.143 -0.2469 -0.6095 -0.1645
  119CHL1   H7A15004   1.907   7.206   6.149 -0.0191 -1.1166 -1.3158
  119CHL1   H7B15005   1.974   7.372   6.132 -2.3758 -0.8182  2.1711
  119CHL1    C815006   2.082   7.223   6.027  0.1050 -0.2101 -0.2024
  119CHL1    H815007   2.110   7.116   6.031 -1.9256 -0.7616  0.4102
  119CHL1   C1415008   2.020   7.259   5.891  0.2707 -0.7303  0.0636
  119CHL1   H1415009   2.026   7.369   5.902 -1.5342 -0.6425  0.5971
  119CHL1   C1515010   1.876   7.226   5.872  0.1464 -0.4537  0.5299
  119CHL1  H15A15011   1.864   7.118   5.895 -0.4355 -0.8886 -1.6156
  119CHL1  H15B15012   1.798   7.284   5.926 -0.9183 -1.4200  0.0825
  119CHL1   C1615013   1.854   7.242   5.720 -0.0519 -0.1393  0.4914
  119CHL1  H16A15014   1.796   7.162   5.670 -1.1615 -0.0878  1.6474
  119CHL1  H16B15015   1.798   7.337   5.713 -0.5792 -0.4982 -0.2246
  119CHL1   C1715016   1.994   7.262   5.659 -0.3162 -0.3934  0.0855
  119CHL1   H1715017   2.008   7.372   5.649 -0.2628 -0.2969  1.1280
  119CHL1   C1315018   2.095   7.214   5.759  0.2819  0.0985 -0.4302
  119CHL1   C1815019   2.115   7.059   5.753 -0.4963 -0.1002 -0.3237
  119CHL1  H18A15020   2.023   6.998   5.751  0.3890 -1.4895  0.0681
  119CHL1  H18B15021   2.166   7.013   5.665  0.4411 -3.3255  1.7662
  119CHL1  H18C15022   2.160   7.023   5.848 -3.4723  0.6075  1.4774
  119CHL1   C1215023   2.236   7.294   5.764  0.0001 -0.1542  0.7616
  119CHL1  H12A15024   2.319   7.269   5.695  1.1586  0.5863  1.8424
  119CHL1  H12B15025   2.212   7.402   5.771 -1.1331 -0.2163 -1.4238
  119CHL1   C1115026   2.312   7.262   5.894  0.0076  0.4178 -0.2815
  119CHL1  H11A15027   2.329   7.152   5.899 -0.4646  0.4046  1.4504
  119CHL1  H11B15028   2.406   7.320   5.900  0.9657 -1.1148 -0.0243
  119CHL1    C915029   2.226   7.291   6.029  0.2831  0.4309  0.4189
  119CHL1    H915030   2.196   7.397   6.034 -1.4583 -0.0817  2.4723
  119CHL1   C1015031   2.306   7.264   6.158  0.1627 -0.3951  0.1330
  119CHL1   C1915032   2.380   7.125   6.148 -0.0238 -0.1928 -0.4515
  119CHL1  H19A15033   2.309   7.050   6.106 -2.2259  1.6166 -0.1721
  119CHL1  H19B15034   2.462   7.139   6.074  0.3224  0.2790  0.0167
  119CHL1  H19C15035   2.422   7.093   6.246 -3.2945  1.8121  1.8007
  119CHL1    C115036   2.411   7.385   6.194 -0.0914  0.1084  0.3642
  119CHL1   H1A15037   2.484   7.395   6.110  0.4795  1.8276  1.0201
  119CHL1   H1B15038   2.338   7.469   6.184 -2.0629 -1.4294  1.1267
  119CHL1    C215039   2.477   7.379   6.334  0.4608  0.7597  0.2190
  119CHL1   H2A15040   2.548   7.464   6.347  0.8551  0.1620  2.3019
  119CHL1   H2B15041   2.533   7.284   6.330 -0.8404 -0.0379  0.3837
  119CHL1   C2015042   2.005   7.215   5.516 -0.0142  0.0909  0.2161
  119CHL1   H2015043   1.988   7.106   5.517  1.1294 -0.1013  0.6722
  119CHL1   C2115044   2.146   7.250   5.465 -0.5636  0.3602  0.6674
  119CHL1  H21A15045   2.148   7.230   5.356 -0.8147  0.4116  0.6512
  119CHL1  H21B15046   2.218   7.176   5.506 -0.3531  0.1521 -0.0676
  119CHL1  H21C15047   2.179   7.353   5.490 -0.5395  0.1319  1.6116
  119CHL1   C2215048   1.903   7.277   5.423 -0.4169 -0.4391  0.2950
  119CHL1  H22A15049   1.801   7.285   5.465 -1.0439 -1.3481 -1.0169
  119CHL1  H22B15050   1.943   7.381   5.413 -0.7249 -0.4185 -0.8636
  119CHL1   C2315051   1.885   7.196   5.291  0.3121  0.7717  0.0767
  119CHL1  H23A15052   1.977   7.208   5.229  0.1346  1.3865 -0.0744
  119CHL1  H23B15053   1.874   7.094   5.333  1.3215  0.9529  0.8079
  119CHL1   C2415054   1.768   7.258   5.210 -0.1767 -0.0395  0.0187
  119CHL1  H24A15055   1.690   7.300   5.277 -2.4874 -2.6969 -0.7938
  119CHL1  H24B15056   1.823   7.337   5.155 -0.3829  0.1059  0.0247
  119CHL1   C2515057   1.702   7.176   5.099 -0.2842  1.5278 -0.1252
  119CHL1   H2515058   1.702   7.075   5.144  0.9505  2.7699  2.9275
  119CHL1   C2615059   1.558   7.215   5.069  0.2246  0.2382  0.4794
  119CHL1  H26A15060   1.563   7.317   5.025  4.1745 -0.3010 -0.6605
  119CHL1  H26B15061   1.518   7.143   4.995  1.1843  0.4900 -0.2985
  119CHL1  H26C15062   1.486   7.208   5.154 -2.1272  1.4433 -1.2873
  119CHL1   C2715063   1.791   7.175   4.977  0.3374 -0.7463 -0.2919
  119CHL1  H27A15064   1.747   7.116   4.894  1.4257 -0.3854 -1.1412
  119CHL1  H27B15065   1.812   7.275   4.933 -0.9557 -1.2946 -2.3097
  119CHL1  H27C15066   1.891   7.140   5.008  0.2143 -2.1912 -1.4680
  120CHL1    C315067   2.095   0.955   6.287  0.3508 -0.3331 -0.5419
  120CHL1    H315068   2.043   0.861   6.260 -0.5710  0.1381 -0.4162
  120CHL1    O315069   2.057   1.000   6.417  0.2230  0.1407  0.0514
  120CHL1   H3'15070   2.130   1.058   6.435  0.4198 -0.0901  0.0067
  120CHL1    C415071   2.244   0.931   6.286 -0.7362  0.6774  0.0166
  120CHL1   H4A15072   2.314   1.015   6.307  1.4507 -0.7122 -1.1913
  120CHL1   H4B15073   2.261   0.859   6.369 -0.1415 -0.1388 -0.7788
  120CHL1    C515074   2.284   0.870   6.150 -0.0770 -0.1905  0.1522
  120CHL1    C615075   2.330   0.741   6.136  0.1907 -0.3022  0.3976
  120CHL1    H615076   2.351   0.696   6.235  1.3854 -0.0046  0.2973
  120CHL1    C715077   2.369   0.688   6.005  0.5051  0.5680 -0.3470
  120CHL1   H7A15078   2.472   0.647   6.016  0.0166 -0.7152 -0.3120
  120CHL1   H7B15079   2.307   0.600   5.976  0.1289  1.3967 -2.1898
  120CHL1    C815080   2.374   0.785   5.886 -0.2785 -0.2196 -0.0278
  120CHL1    H815081   2.471   0.838   5.900  0.5592 -1.9309  1.1793
  120CHL1   C1415082   2.373   0.709   5.760 -0.8364  0.5355  0.7263
  120CHL1   H1415083   2.271   0.666   5.754 -0.6677  0.0077  1.4731
  120CHL1   C1515084   2.466   0.589   5.741 -0.9039 -0.0589 -0.4139
  120CHL1  H15A15085   2.569   0.626   5.762 -0.5062  0.6271 -3.1866
  120CHL1  H15B15086   2.431   0.512   5.813  0.7749  0.9032  1.5561
  120CHL1   C1615087   2.457   0.563   5.592 -0.9976 -0.0300  0.6290
  120CHL1  H16A15088   2.565   0.544   5.571 -0.4541  3.4326 -0.2624
  120CHL1  H16B15089   2.399   0.468   5.583 -0.9828 -0.0329  0.5577
  120CHL1   C1715090   2.387   0.682   5.527  0.6933  0.7125 -0.2616
  120CHL1   H1715091   2.279   0.659   5.533  0.5824  1.3952  0.6162
  120CHL1   C1315092   2.381   0.793   5.633  0.5512 -0.1144 -0.1479
  120CHL1   C1815093   2.521   0.867   5.626  0.2754 -0.4690  0.3343
  120CHL1  H18A15094   2.542   0.924   5.719  0.7252  0.6588 -0.4344
  120CHL1  H18B15095   2.603   0.794   5.611 -0.4100 -1.4379  1.1547
  120CHL1  H18C15096   2.522   0.940   5.542  0.3248  0.8884  1.4786
  120CHL1   C1215097   2.269   0.893   5.629 -1.5803 -0.5984  0.2646
  120CHL1  H12A15098   2.288   0.964   5.546 -2.2643  0.0552  0.6551
  120CHL1  H12B15099   2.172   0.843   5.609 -1.8169 -1.0418  2.3185
  120CHL1   C1115100   2.259   0.969   5.764 -0.2422  0.2346  0.3663
  120CHL1  H11A15101   2.353   1.027   5.767 -0.3292  0.4986 -1.1714
  120CHL1  H11B15102   2.174   1.042   5.767 -0.9988 -0.4251 -2.3593
  120CHL1    C915103   2.257   0.882   5.892  0.3442  0.2864  0.1807
  120CHL1    H915104   2.167   0.817   5.902  0.1294  0.5076 -0.2859
  120CHL1   C1015105   2.254   0.959   6.023 -0.2506 -0.2798 -0.7535
  120CHL1   C1915106   2.346   1.085   6.022  0.2253  0.3462 -0.1481
  120CHL1  H19A15107   2.295   1.172   5.975  3.1185  1.7912 -0.8928
  120CHL1  H19B15108   2.375   1.122   6.123  0.6415 -1.1399  0.2982
  120CHL1  H19C15109   2.439   1.067   5.964  0.8024  0.5053  0.7023
  120CHL1    C115110   2.104   1.010   6.047 -0.2477  0.5363  0.7334
  120CHL1   H1A15111   2.079   1.075   5.960 -3.6214 -1.2092  0.2675
  120CHL1   H1B15112   2.036   0.926   6.021 -1.2604  0.5294  3.1838
  120CHL1    C215113   2.065   1.058   6.180  0.2358 -0.4535 -0.1830
  120CHL1   H2A15114   1.959   1.092   6.181  0.6450  0.9333  1.3836
  120CHL1   H2B15115   2.127   1.150   6.191  0.5637 -0.1638 -3.4814
  120CHL1   C2015116   2.419   0.717   5.384 -0.1204 -0.1394 -0.4655
  120CHL1   H2015117   2.508   0.784   5.379  0.2783 -0.5352  0.9097
  120CHL1   C2115118   2.304   0.787   5.316 -0.6360 -0.7258  0.0006
  120CHL1  H21A15119   2.276   0.886   5.358 -2.3241 -0.7331 -1.0318
  120CHL1  H21B15120   2.214   0.722   5.319  0.1435 -1.9251 -1.3410
  120CHL1  H21C15121   2.333   0.805   5.211 -0.8466 -0.6957 -0.0525
  120CHL1   C2215122   2.475   0.602   5.296  0.3413  0.1176 -0.6126
  120CHL1  H22A15123   2.556   0.552   5.353 -1.1820 -1.8892 -0.0642
  120CHL1  H22B15124   2.410   0.513   5.280  1.7595 -1.6489  2.5499
  120CHL1   C2315125   2.531   0.647   5.158  0.7060 -0.2875 -0.0631
  120CHL1  H23A15126   2.452   0.688   5.091  0.8984  1.2165  0.5912
  120CHL1  H23B15127   2.597   0.734   5.179 -1.3666  1.2992  0.2449
  120CHL1   C2415128   2.600   0.535   5.091 -0.1241 -0.3881 -0.0873
  120CHL1  H24A15129   2.657   0.474   5.164  1.0244  1.1755  0.3595
  120CHL1  H24B15130   2.521   0.467   5.052 -1.7228  0.6250  1.2336
  120CHL1   C2515131   2.690   0.593   4.985 -0.9570 -0.2532 -0.3855
  120CHL1   H2515132   2.767   0.666   5.019 -0.8292 -0.2777 -0.6140
  120CHL1   C2615133   2.773   0.479   4.923  0.3541 -0.2840  0.2562
  120CHL1  H26A15134   2.796   0.404   5.002  0.4387 -2.5124 -1.7668
  120CHL1  H26B15135   2.703   0.428   4.854 -2.2171 -2.4802  4.0672
  120CHL1  H26C15136   2.866   0.517   4.875 -1.0438 -0.2590 -2.5983
  120CHL1   C2715137   2.593   0.645   4.875 -0.2036 -0.1443  0.2562
  120CHL1  H27A15138   2.652   0.689   4.792 -0.8109 -0.6262 -0.4389
  120CHL1  H27B15139   2.538   0.556   4.838 -2.1665  1.1594 -0.1071
  120CHL1  H27C15140   2.521   0.723   4.909 -1.5974 -1.0158 -0.6059
  121CHL1    C315141   2.723   2.259   3.113 -0.3830 -0.0830  0.0955
  121CHL1    H315142   2.731   2.148   3.111 -3.4709 -0.4521  1.9404
  121CHL1    O315143   2.725   2.308   2.978  0.1814  0.0673  0.7580
  121CHL1   H3'15144   2.734   2.403   2.986  0.6140  0.1848 -0.8248
  121CHL1    C415145   2.599   2.305   3.191 -0.9209  0.3297  0.2004
  121CHL1   H4A15146   2.586   2.415   3.194 -0.3049  0.5091 -1.9040
  121CHL1   H4B15147   2.507   2.269   3.140 -1.0833 -1.9185  1.9289
  121CHL1    C515148   2.608   2.250   3.336  0.1939  0.5723  0.7774
  121CHL1    C615149   2.506   2.184   3.388  0.0926  0.0374 -0.0866
  121CHL1    H615150   2.411   2.166   3.336 -0.5454 -1.8412  1.6298
  121CHL1    C715151   2.500   2.142   3.530  0.1217  0.5617 -1.2934
  121CHL1   H7A15152   2.398   2.149   3.573 -0.6391  1.9256 -3.1974
  121CHL1   H7B15153   2.529   2.035   3.530  0.5127  0.6447  0.3841
  121CHL1    C815154   2.604   2.210   3.618 -0.4641  0.1288 -0.2992
  121CHL1    H815155   2.569   2.313   3.641  0.6144  0.8329 -1.6057
  121CHL1   C1415156   2.622   2.124   3.747  0.1517  0.5615 -0.2514
  121CHL1   H1415157   2.648   2.028   3.698  1.2630  1.7372 -2.1193
  121CHL1   C1515158   2.498   2.088   3.835  0.8260 -0.9000  0.0440
  121CHL1  H15A15159   2.431   2.175   3.854  1.0270 -0.5456 -0.8519
  121CHL1  H15B15160   2.423   2.016   3.795 -2.3611  1.1201  1.9773
  121CHL1   C1615161   2.561   2.023   3.960  0.3120  0.3428  0.4571
  121CHL1  H16A15162   2.520   2.073   4.050 -1.7192  0.2096 -0.3252
  121CHL1  H16B15163   2.553   1.912   3.965 -0.9400  0.4602  1.3393
  121CHL1   C1715164   2.715   2.054   3.958 -0.1489 -0.1662 -0.0773
  121CHL1   H1715165   2.771   1.964   3.926 -0.1747  0.0320 -0.6817
  121CHL1   C1315166   2.731   2.164   3.851 -0.1668 -0.5021 -0.1045
  121CHL1   C1815167   2.696   2.301   3.921  0.1728 -0.2544  0.2603
  121CHL1  H18A15168   2.778   2.335   3.987 -1.7638  0.7936  2.2565
  121CHL1  H18B15169   2.667   2.377   3.846 -0.3852  0.4738  1.2043
  121CHL1  H18C15170   2.605   2.282   3.981  0.1900 -2.0751 -0.2282
  121CHL1   C1215171   2.858   2.180   3.779 -0.5748  0.5107  0.0003
  121CHL1  H12A15172   2.934   2.240   3.834  0.5273 -0.6658 -0.2159
  121CHL1  H12B15173   2.908   2.086   3.748 -0.7102  0.3802  0.1796
  121CHL1   C1115174   2.848   2.277   3.654  0.0637 -0.5922  0.4861
  121CHL1  H11A15175   2.829   2.381   3.686  1.3221 -0.3916  0.6125
  121CHL1  H11B15176   2.952   2.269   3.615 -0.4308 -1.2938 -0.7445
  121CHL1    C915177   2.742   2.220   3.552 -0.1729  0.3732 -0.9398
  121CHL1    H915178   2.779   2.117   3.532  0.4639  0.0660  1.4847
  121CHL1   C1015179   2.741   2.292   3.415  1.1398  0.0722 -0.2123
  121CHL1   C1915180   2.749   2.444   3.436 -0.3538 -0.8493 -0.0183
  121CHL1  H19A15181   2.719   2.510   3.352  1.7721 -0.3985 -0.4917
  121CHL1  H19B15182   2.693   2.471   3.528 -1.7506  2.6895 -1.7041
  121CHL1  H19C15183   2.856   2.463   3.460 -0.0287 -1.7207 -0.7255
  121CHL1    C115184   2.863   2.244   3.335  0.6681 -0.1134  0.2467
  121CHL1   H1A15185   2.957   2.276   3.384  0.6429  2.0805 -0.9856
  121CHL1   H1B15186   2.867   2.134   3.321  0.2248  0.0068 -0.9629
  121CHL1    C215187   2.850   2.311   3.191 -0.7678  0.1082 -0.1875
  121CHL1   H2A15188   2.942   2.282   3.137 -1.9913 -1.9531 -1.2857
  121CHL1   H2B15189   2.851   2.422   3.196  0.9822  0.0935  0.2027
  121CHL1   C2015190   2.774   2.089   4.100  0.0211  0.2703  0.1782
  121CHL1   H2015191   2.736   2.184   4.144  0.0800  0.4544 -0.1630
  121CHL1   C2115192   2.927   2.097   4.099  0.5708 -0.3972 -0.5895
  121CHL1  H21A15193   2.963   2.108   4.203  1.1760  0.1489 -0.8517
  121CHL1  H21B15194   2.962   2.186   4.042  1.9127  0.3846  1.3619
  121CHL1  H21C15195   2.970   2.007   4.050 -0.7243 -0.3072 -1.9506
  121CHL1   C2215196   2.733   1.982   4.204 -0.4941 -0.4802  0.4518
  121CHL1  H22A15197   2.623   1.967   4.206 -0.2964 -2.2700  0.1473
  121CHL1  H22B15198   2.787   1.890   4.170  0.0335 -0.3915  1.0278
  121CHL1   C2315199   2.754   2.027   4.353  0.6222 -0.0283  0.6122
  121CHL1  H23A15200   2.843   2.092   4.368  0.9097 -0.7210  2.1185
  121CHL1  H23B15201   2.671   2.097   4.380  1.7231  1.7834 -0.4919
  121CHL1   C2415202   2.758   1.911   4.452 -0.2542 -0.1632 -0.3576
  121CHL1  H24A15203   2.665   1.850   4.450 -0.8830  0.6696  1.2325
  121CHL1  H24B15204   2.845   1.856   4.411 -0.1483  0.3522 -0.8370
  121CHL1   C2515205   2.776   1.945   4.595 -0.4517  0.0715 -0.1314
  121CHL1   H2515206   2.850   2.027   4.609  1.0186 -1.4162  1.3672
  121CHL1   C2615207   2.644   1.997   4.651 -0.0458 -0.6053 -0.1767
  121CHL1  H26A15208   2.620   2.093   4.601 -0.3549 -1.2076 -1.2066
  121CHL1  H26B15209   2.560   1.926   4.633 -2.1184  1.7283 -0.2088
  121CHL1  H26C15210   2.655   2.027   4.758  1.7946  2.0735 -1.0162
  121CHL1   C2715211   2.833   1.837   4.682  0.1710  0.1405 -0.0557
  121CHL1  H27A15212   2.942   1.832   4.667  0.3811  1.5976  0.7758
  121CHL1  H27B15213   2.808   1.858   4.789 -0.8645 -0.3113 -0.1944
  121CHL1  H27C15214   2.788   1.737   4.665 -0.8391  0.1817  2.0057
  122CHL1    C315215   0.136   4.348   3.012  0.0124  1.2659 -0.8500
  122CHL1    H315216   0.033   4.384   2.991 -0.0929  2.2566  1.0357
  122CHL1    O315217   0.186   4.249   2.923  0.3888  0.1330 -0.1945
  122CHL1   H3'15218   0.281   4.264   2.926  0.1902  2.2377 -1.8259
  122CHL1    C415219   0.223   4.472   2.997  0.2166 -0.1325  0.0184
  122CHL1   H4A15220   0.328   4.444   3.020  0.4327 -0.3386 -1.1533
  122CHL1   H4B15221   0.231   4.510   2.893  0.9108  0.8954  0.4245
  122CHL1    C515222   0.191   4.580   3.100  0.4500  0.6473  0.2937
  122CHL1    C615223   0.151   4.703   3.060  0.4294  0.2486 -0.0617
  122CHL1    H615224   0.131   4.723   2.954 -1.8204  1.1668  0.4613
  122CHL1    C715225   0.124   4.814   3.152 -0.7409  0.3342 -0.6588
  122CHL1   H7A15226   0.151   4.912   3.109 -1.3765  0.7566 -0.1059
  122CHL1   H7B15227   0.014   4.821   3.166 -0.3316  1.1350  3.5828
  122CHL1    C815228   0.186   4.785   3.295 -0.4670 -0.2672  0.1253
  122CHL1    H815229   0.296   4.796   3.285 -0.5116  0.2382  0.2096
  122CHL1   C1415230   0.144   4.896   3.385 -0.3383  0.1060  0.4808
  122CHL1   H1415231   0.033   4.904   3.380 -0.3147  0.7873  0.8341
  122CHL1   C1515232   0.188   5.040   3.342 -0.4299 -0.2271 -0.5271
  122CHL1  H15A15233   0.293   5.052   3.307 -0.3506  3.0475  0.4870
  122CHL1  H15B15234   0.130   5.089   3.261 -0.4116  0.9813  0.1603
  122CHL1   C1615235   0.188   5.123   3.477 -0.5676  0.7803 -0.2924
  122CHL1  H16A15236   0.285   5.172   3.495 -1.0307  1.5645  0.1200
  122CHL1  H16B15237   0.117   5.208   3.477 -0.8706  0.5457  1.0841
  122CHL1   C1715238   0.154   5.026   3.593  0.4158  0.1361  0.5650
  122CHL1   H1715239   0.043   5.023   3.596  0.4240  0.0729  0.8536
  122CHL1   C1315240   0.184   4.883   3.536 -0.4068 -0.3438  0.2668
  122CHL1   C1815241   0.342   4.871   3.545 -0.3851  0.2306  0.5467
  122CHL1  H18A15242   0.402   4.965   3.549 -0.4511  0.3798 -1.1355
  122CHL1  H18B15243   0.365   4.828   3.645  0.7397  2.0057  1.1082
  122CHL1  H18C15244   0.383   4.804   3.466  0.7811  2.4193 -0.8109
  122CHL1   C1215245   0.101   4.757   3.574  0.3903 -1.0435  0.0716
  122CHL1  H12A15246   0.119   4.728   3.680 -1.7173 -2.3120  0.1429
  122CHL1  H12B15247  -0.008   4.772   3.559  0.3373 -1.3158  0.1660
  122CHL1   C1115248   0.145   4.629   3.493  0.0240  0.0205 -0.4355
  122CHL1  H11A15249   0.250   4.612   3.524  0.3248  1.5601 -0.5581
  122CHL1  H11B15250   0.088   4.543   3.535  1.4565 -1.7331 -1.8518
  122CHL1    C915251   0.140   4.645   3.344  0.0525  0.2691  0.8401
  122CHL1    H915252   0.032   4.650   3.320  0.4334 -0.1296 -1.1394
  122CHL1   C1015253   0.201   4.530   3.249  0.4451 -0.1170 -0.9365
  122CHL1   C1915254   0.349   4.503   3.288 -0.0759 -0.6740  0.2986
  122CHL1  H19A15255   0.358   4.465   3.392 -1.0299 -0.1463  0.5919
  122CHL1  H19B15256   0.404   4.440   3.215  1.5616  0.5044  0.4713
  122CHL1  H19C15257   0.394   4.604   3.295  2.4602 -1.7603  0.5100
  122CHL1    C115258   0.110   4.397   3.264 -0.1884  0.0523  0.2902
  122CHL1   H1A15259   0.134   4.360   3.366  0.9533  1.3336  0.5196
  122CHL1   H1B15260   0.003   4.425   3.259  0.2829  2.2773  1.2568
  122CHL1    C215261   0.148   4.290   3.157 -0.5120 -1.3397  0.3073
  122CHL1   H2A15262   0.066   4.215   3.155 -1.3851 -0.4177  0.9216
  122CHL1   H2B15263   0.248   4.243   3.170  0.7893  0.1138 -3.1065
  122CHL1   C2015264   0.197   5.073   3.734 -0.9368  0.5507  0.0062
  122CHL1   H2015265   0.308   5.078   3.736 -0.8462 -0.9651 -0.2013
  122CHL1   C2115266   0.157   4.959   3.833 -0.3780  0.0829  0.1386
  122CHL1  H21A15267   0.185   4.999   3.933 -2.1846  1.3962  0.1840
  122CHL1  H21B15268   0.206   4.863   3.808 -1.9832 -0.9757  0.8793
  122CHL1  H21C15269   0.046   4.950   3.840 -0.5921  0.6327 -1.8797
  122CHL1   C2215270   0.139   5.213   3.782  0.2379 -0.0379  0.8838
  122CHL1  H22A15271   0.196   5.247   3.872  2.3473 -2.8518  0.7445
  122CHL1  H22B15272   0.154   5.283   3.697  0.5043 -2.1532 -0.9044
  122CHL1   C2315273  -0.009   5.233   3.811  0.2035  0.4326  0.1183
  122CHL1  H23A15274  -0.067   5.221   3.717  0.0738  1.4770  0.0451
  122CHL1  H23B15275  -0.043   5.147   3.872  1.2791  0.0725  0.2277
  122CHL1   C2415276  -0.044   5.368   3.870  0.2277 -0.4067  0.2468
  122CHL1  H24A15277   0.011   5.409   3.957 -0.1677  0.5297  0.0741
  122CHL1  H24B15278  -0.025   5.443   3.790 -0.3009  1.0372  1.4196
  122CHL1   C2515279  -0.195   5.392   3.916  0.5482 -0.1672  0.8958
  122CHL1   H2515280  -0.261   5.326   3.856 -0.6445  0.0244  1.9598
  122CHL1   C2615281  -0.205   5.349   4.065  0.5900 -0.6582  0.3377
  122CHL1  H26A15282  -0.311   5.365   4.094  0.3662 -0.9410 -0.3029
  122CHL1  H26B15283  -0.177   5.242   4.078  0.1482 -0.8825 -0.4958
  122CHL1  H26C15284  -0.138   5.412   4.129  2.2345 -1.6809 -0.3017
  122CHL1   C2715285  -0.225   5.539   3.890  0.4495 -0.6948 -0.0998
  122CHL1  H27A15286  -0.172   5.600   3.966  1.9516  0.3026 -1.8939
  122CHL1  H27B15287  -0.193   5.578   3.792  0.5242  0.9486  0.5530
  122CHL1  H27C15288  -0.332   5.567   3.900  0.2974 -1.9140  3.5931
  123CHL1    C315289   4.442   4.163   2.779 -0.0594  0.1247 -0.3167
  123CHL1    H315290   4.493   4.065   2.772 -1.9902 -0.8841 -1.1159
  123CHL1    O315291   4.402   4.180   2.645 -0.1206  0.1002 -0.1198
  123CHL1   H3'15292   4.348   4.259   2.640 -0.6883 -0.1638  1.3569
  123CHL1    C415293   4.321   4.127   2.871 -0.3206  0.2893  0.3796
  123CHL1   H4A15294   4.257   4.218   2.870  1.6218  1.7111  0.0771
  123CHL1   H4B15295   4.264   4.042   2.826 -2.9352  1.6342  0.9913
  123CHL1    C515296   4.349   4.105   3.015 -0.9589 -0.0232 -0.3062
  123CHL1    C615297   4.293   4.002   3.072  0.1495 -0.3075 -0.2933
  123CHL1    H615298   4.223   3.930   3.025  0.5264 -2.6387  2.4521
  123CHL1    C715299   4.309   3.975   3.219  0.3569  0.1879 -0.1208
  123CHL1   H7A15300   4.213   3.939   3.262  0.7759 -0.4282  0.3236
  123CHL1   H7B15301   4.374   3.885   3.216 -0.9022 -0.7127 -1.9926
  123CHL1    C815302   4.370   4.097   3.292  0.2308 -0.1115  0.3247
  123CHL1    H815303   4.302   4.185   3.304  2.0530  1.2767  0.9366
  123CHL1   C1415304   4.404   4.050   3.436 -0.1093 -0.3093  0.2100
  123CHL1   H1415305   4.485   3.977   3.417  0.7265  1.2820 -3.1259
  123CHL1   C1515306   4.294   3.985   3.513 -0.0130  0.2515 -0.1584
  123CHL1  H15A15307   4.201   4.045   3.514 -0.4614 -0.4345  0.3334
  123CHL1  H15B15308   4.273   3.884   3.470  0.7723  1.0099 -2.4612
  123CHL1   C1615309   4.331   3.984   3.663  0.2931 -0.2213 -0.7197
  123CHL1  H16A15310   4.256   4.043   3.721  2.8312  3.3674 -0.7276
  123CHL1  H16B15311   4.339   3.889   3.720  0.2265 -0.3837 -0.9846
  123CHL1   C1715312   4.464   4.069   3.658  0.1238 -0.0136  0.7356
  123CHL1   H1715313   4.545   3.996   3.635 -0.6570 -0.1900 -1.7526
  123CHL1   C1315314   4.458   4.153   3.528  0.1497  0.0627 -0.6407
  123CHL1   C1815315   4.363   4.269   3.553 -0.2026 -0.0680 -0.4484
  123CHL1  H18A15316   4.423   4.341   3.612 -0.4411  0.7233 -1.1354
  123CHL1  H18B15317   4.319   4.316   3.462  0.7129 -0.8580 -1.3248
  123CHL1  H18C15318   4.282   4.237   3.622  0.5379 -0.0643  0.4324
  123CHL1   C1215319   4.592   4.203   3.468  0.1186 -0.3144  0.0700
  123CHL1  H12A15320   4.620   4.286   3.537 -3.1266  0.1698  0.9738
  123CHL1  H12B15321   4.660   4.115   3.471 -1.1361 -1.3449  3.3186
  123CHL1   C1115322   4.567   4.250   3.322  0.1622 -0.0917  0.3028
  123CHL1  H11A15323   4.518   4.349   3.327  0.8948  0.3550 -1.0206
  123CHL1  H11B15324   4.665   4.275   3.275 -0.2064  2.4810  0.7928
  123CHL1    C915325   4.491   4.157   3.222  0.0200  0.2451  0.0296
  123CHL1    H915326   4.552   4.066   3.200 -3.4615 -1.7897 -2.2315
  123CHL1   C1015327   4.451   4.206   3.079  0.0072  0.1378 -0.2705
  123CHL1   C1915328   4.385   4.335   3.095  0.5442 -0.7157 -0.0729
  123CHL1  H19A15329   4.329   4.376   3.008 -1.4534 -1.3243  0.8707
  123CHL1  H19B15330   4.306   4.347   3.172  1.0316 -2.3826  0.7276
  123CHL1  H19C15331   4.459   4.415   3.118 -0.0083  0.3326 -1.7047
  123CHL1    C115332   4.574   4.228   2.987 -0.1510 -0.3762 -0.7007
  123CHL1   H1A15333   4.633   4.319   3.014  0.3245 -0.6642 -0.7539
  123CHL1   H1B15334   4.637   4.137   2.996  0.2454 -0.0141  0.3946
  123CHL1    C215335   4.534   4.266   2.840 -0.2967 -0.8064  0.1301
  123CHL1   H2A15336   4.626   4.266   2.778 -0.9303 -1.0583 -0.8438
  123CHL1   H2B15337   4.494   4.369   2.839 -0.4697 -0.8695  0.3707
  123CHL1   C2015338   4.500   4.131   3.796  0.3131 -0.0023  0.3368
  123CHL1   H2015339   4.443   4.226   3.801  0.1844  0.1238 -2.3402
  123CHL1   C2115340   4.651   4.154   3.807  0.2028 -0.5848 -0.4599
  123CHL1  H21A15341   4.682   4.234   3.737 -0.8335 -0.7225 -1.0970
  123CHL1  H21B15342   4.708   4.063   3.779  2.2554  0.2944  0.6833
  123CHL1  H21C15343   4.670   4.182   3.913 -2.3272 -0.9397  0.1541
  123CHL1   C2215344   4.442   4.046   3.923  0.2343 -0.1688  0.4134
  123CHL1  H22A15345   4.332   4.063   3.912  0.3722  0.8235  0.5451
  123CHL1  H22B15346   4.466   3.939   3.902 -0.0081 -0.0186 -0.6927
  123CHL1   C2315347   4.482   4.095   4.062  0.0069  0.0373  0.0240
  123CHL1  H23A15348   4.590   4.074   4.075 -0.5327 -2.5531  0.8557
  123CHL1  H23B15349   4.467   4.203   4.082  1.1440  0.3027 -0.4884
  123CHL1   C2415350   4.420   4.009   4.171  0.0797 -0.1679  0.5906
  123CHL1  H24A15351   4.310   4.019   4.170  0.0638  0.1316  2.6210
  123CHL1  H24B15352   4.431   3.901   4.147 -0.3602  0.2239 -1.6504
  123CHL1   C2515353   4.458   4.027   4.318  0.0441 -0.2836  0.1903
  123CHL1   H2515354   4.449   4.133   4.351  1.0751 -0.2816  0.4937
  123CHL1   C2615355   4.377   3.938   4.413  0.4162  0.2893  0.2518
  123CHL1  H26A15356   4.366   3.834   4.376 -0.1190 -0.5974  2.7473
  123CHL1  H26B15357   4.434   3.931   4.508  1.5558 -2.6449 -0.5507
  123CHL1  H26C15358   4.277   3.981   4.436 -0.9826 -1.4600 -2.1013
  123CHL1   C2715359   4.607   3.993   4.336  0.0477 -0.8346 -0.7250
  123CHL1  H27A15360   4.642   4.025   4.437 -1.0175  2.5069 -1.3268
  123CHL1  H27B15361   4.617   3.882   4.328 -0.6955 -0.7552 -3.9910
  123CHL1  H27C15362   4.680   4.046   4.271  2.0909 -2.3749  0.1910
  124CHL1    C315363   3.092   5.602   3.385  0.6519 -0.6742 -0.7385
  124CHL1    H315364   3.095   5.708   3.419 -0.5317 -0.7223 -0.4358
  124CHL1    O315365   3.092   5.591   3.251  0.5490 -0.3171  0.3399
  124CHL1   H3'15366   3.078   5.498   3.231 -1.7127  0.2608 -1.0368
  124CHL1    C415367   3.215   5.527   3.438 -0.5899 -0.0104 -0.0322
  124CHL1   H4A15368   3.225   5.425   3.394 -0.4260 -0.1830  0.3966
  124CHL1   H4B15369   3.301   5.588   3.401 -1.2793  0.2338 -1.2923
  124CHL1    C515370   3.214   5.505   3.586  0.4314 -0.0085  0.5391
  124CHL1    C615371   3.310   5.553   3.665 -0.3913 -0.0798  0.0658
  124CHL1    H615372   3.390   5.608   3.614 -0.2628 -0.3852 -0.0641
  124CHL1    C715373   3.319   5.547   3.817 -0.0733 -0.3073  0.0866
  124CHL1   H7A15374   3.419   5.514   3.851 -0.5000 -0.5904  1.1009
  124CHL1   H7B15375   3.295   5.649   3.855  1.8788  0.0356  0.4963
  124CHL1    C815376   3.213   5.453   3.876  0.0773  0.9627 -0.2274
  124CHL1    H815377   3.262   5.354   3.875 -1.0154  0.3684  1.1724
  124CHL1   C1415378   3.184   5.482   4.024 -1.4082  0.8853 -0.0751
  124CHL1   H1415379   3.136   5.582   4.021 -0.5463  1.3062 -0.0952
  124CHL1   C1515380   3.300   5.504   4.124 -0.2415 -0.4240  0.1374
  124CHL1  H15A15381   3.366   5.415   4.114 -0.9492 -1.1564  1.5196
  124CHL1  H15B15382   3.351   5.602   4.118 -0.8932  0.2136  3.2157
  124CHL1   C1615383   3.232   5.486   4.258 -0.3429  0.2475 -0.2408
  124CHL1  H16A15384   3.275   5.403   4.318  0.6838  0.6904 -0.3311
  124CHL1  H16B15385   3.242   5.579   4.317  1.6112 -0.4299  0.6043
  124CHL1   C1715386   3.082   5.449   4.226 -0.0034  0.4889 -0.3151
  124CHL1   H1715387   3.028   5.546   4.215  0.5848  0.7552 -0.9157
  124CHL1   C1315388   3.081   5.386   4.084  0.5150  0.4421 -0.4025
  124CHL1   C1815389   3.134   5.241   4.084 -0.1232 -0.2362  0.4129
  124CHL1  H18A15390   3.156   5.194   3.986 -0.6038 -2.1263  1.1848
  124CHL1  H18B15391   3.223   5.247   4.151 -1.4132  0.8247  2.1043
  124CHL1  H18C15392   3.058   5.175   4.130  0.5121 -1.6186 -0.4497
  124CHL1   C1215393   2.953   5.397   4.006  0.1399  0.4085  0.9153
  124CHL1  H12A15394   2.873   5.329   4.043 -0.1213  0.3854  0.3197
  124CHL1  H12B15395   2.911   5.499   3.992 -1.4391 -0.5519 -2.2395
  124CHL1   C1115396   2.986   5.358   3.859  0.0937 -0.5125  0.6061
  124CHL1  H11A15397   3.029   5.256   3.849 -1.0142 -1.0110  0.7798
  124CHL1  H11B15398   2.892   5.361   3.799  1.3776  1.2424 -1.4647
  124CHL1    C915399   3.085   5.458   3.797 -0.1439 -0.5083 -0.8805
  124CHL1    H915400   3.048   5.558   3.831 -0.8389 -1.4471  1.3444
  124CHL1   C1015401   3.083   5.452   3.647 -0.1640 -1.2850  0.6348
  124CHL1   C1915402   3.067   5.308   3.601  0.1348  0.3299  0.4893
  124CHL1  H19A15403   2.963   5.273   3.615  0.6217 -1.6653 -0.5399
  124CHL1  H19B15404   3.083   5.296   3.492  0.7700  1.1646  0.4762
  124CHL1  H19C15405   3.142   5.239   3.645 -0.7605 -1.1618 -0.2565
  124CHL1    C115406   2.955   5.530   3.592  0.0771  0.7423  0.0273
  124CHL1   H1A15407   2.866   5.477   3.632  0.8766 -0.6289  0.0374
  124CHL1   H1B15408   2.950   5.637   3.624 -2.1792  1.1533 -1.4330
  124CHL1    C215409   2.959   5.530   3.435 -0.0932 -0.1927 -0.8727
  124CHL1   H2A15410   2.886   5.605   3.399 -2.5458 -2.7685 -1.7265
  124CHL1   H2B15411   2.941   5.434   3.382  0.2765  0.1259 -1.5802
  124CHL1   C2015412   3.012   5.370   4.342 -0.6890 -0.0128  0.2602
  124CHL1   H2015413   3.043   5.264   4.346  0.7605  0.4201  2.8873
  124CHL1   C2115414   2.862   5.383   4.319  0.3685  0.1675 -0.1256
  124CHL1  H21A15415   2.826   5.329   4.229 -0.5515 -0.5411  0.6426
  124CHL1  H21B15416   2.827   5.488   4.327 -1.3739 -0.5409  2.7144
  124CHL1  H21C15417   2.798   5.347   4.402 -1.3168  1.1456 -0.9634
  124CHL1   C2215418   3.058   5.413   4.484 -0.3205  0.2801 -0.1041
  124CHL1  H22A15419   3.031   5.333   4.555  2.1308 -0.1080  0.5002
  124CHL1  H22B15420   3.168   5.430   4.476 -0.3126  0.3668  0.1763
  124CHL1   C2315421   2.987   5.539   4.528  0.6515  0.0455 -0.2443
  124CHL1  H23A15422   2.992   5.635   4.473 -3.1479  0.9571  0.7503
  124CHL1  H23B15423   2.880   5.511   4.525  0.7675 -0.3380 -0.9635
  124CHL1   C2415424   3.002   5.564   4.677 -0.7525  0.0025 -1.1833
  124CHL1  H24A15425   2.924   5.632   4.717 -1.3682 -0.0213 -2.3016
  124CHL1  H24B15426   2.974   5.468   4.727 -1.1922  0.9869  0.5299
  124CHL1   C2515427   3.140   5.629   4.708 -0.8524 -0.8985 -0.5729
  124CHL1   H2515428   3.217   5.581   4.643 -1.6259  0.5186 -2.6302
  124CHL1   C2615429   3.144   5.780   4.677  0.9001  0.3585  0.4272
  124CHL1  H26A15430   3.095   5.842   4.755  1.9948  0.9483  0.6724
  124CHL1  H26B15431   3.247   5.818   4.662  1.4308 -1.5454 -1.0686
  124CHL1  H26C15432   3.092   5.800   4.581  0.5563 -1.2457  0.2541
  124CHL1   C2715433   3.187   5.606   4.855 -0.3933 -0.4329  0.5390
  124CHL1  H27A15434   3.202   5.499   4.883 -1.2101 -0.8797 -0.6267
  124CHL1  H27B15435   3.285   5.655   4.872  0.7910 -2.2316 -0.7514
  124CHL1  H27C15436   3.108   5.640   4.925 -0.6723 -0.2194  0.1252
  125CHL1    C315437   5.855   1.115   2.571  0.3851  0.1274  0.1792
  125CHL1    H315438   5.873   1.224   2.565  2.6888 -0.2369 -0.5674
  125CHL1    O315439   5.825   1.078   2.438 -0.1629  0.0750  0.1619
  125CHL1   H3'15440   5.751   1.131   2.409 -2.0132 -2.6122 -0.4401
  125CHL1    C415441   5.986   1.039   2.613 -0.3611 -0.6782  0.2662
  125CHL1   H4A15442   5.978   0.933   2.579  1.5933 -1.7884  2.9248
  125CHL1   H4B15443   6.069   1.070   2.547  0.0408  0.1190  1.1217
  125CHL1    C515444   6.015   1.047   2.759  0.2662  0.3245  0.4948
  125CHL1    C615445   6.129   1.093   2.803 -0.9185 -0.0946 -0.4242
  125CHL1    H615446   6.207   1.132   2.735  0.2573 -0.6005  0.5968
  125CHL1    C715447   6.172   1.104   2.950  0.0113  0.0243  0.2462
  125CHL1   H7A15448   6.271   1.057   2.971  0.6217 -0.3144 -2.8346
  125CHL1   H7B15449   6.188   1.207   2.987  1.0046  0.8935 -2.3286
  125CHL1    C815450   6.067   1.034   3.043  0.3381 -0.1305  0.0143
  125CHL1    H815451   6.093   0.926   3.031  2.9205  0.3040  1.0037
  125CHL1   C1415452   6.093   1.076   3.188  0.8105 -0.5181  0.0408
  125CHL1   H1415453   6.071   1.184   3.200 -0.6103 -0.8696  0.9301
  125CHL1   C1515454   6.237   1.066   3.242 -0.1906 -0.1214 -0.3799
  125CHL1  H15A15455   6.295   0.974   3.218  2.9342  1.6393 -0.1654
  125CHL1  H15B15456   6.305   1.148   3.208 -0.0571  0.1148  0.4360
  125CHL1   C1615457   6.213   1.072   3.398 -0.1082 -0.1604  0.8491
  125CHL1  H16A15458   6.271   0.992   3.448 -0.1267 -0.4512  0.4119
  125CHL1  H16B15459   6.248   1.172   3.433 -0.2111 -0.5126  1.9988
  125CHL1   C1715460   6.059   1.066   3.420  0.3931 -0.3931  0.4404
  125CHL1   H1715461   6.022   1.171   3.420 -2.3578 -1.2696  1.0424
  125CHL1   C1315462   6.000   1.011   3.291  0.1014  0.2713 -0.7277
  125CHL1   C1815463   6.009   0.858   3.289 -0.4419  0.5804 -0.2385
  125CHL1  H18A15464   5.949   0.822   3.375  1.7851 -0.4361  0.9818
  125CHL1  H18B15465   5.990   0.812   3.190 -0.6946  1.1657 -0.4642
  125CHL1  H18C15466   6.112   0.821   3.309 -0.3405  1.0923  0.2038
  125CHL1   C1215467   5.857   1.061   3.255  0.1581  0.0840  0.0614
  125CHL1  H12A15468   5.781   1.024   3.326  0.0294  2.0173  0.9923
  125CHL1  H12B15469   5.855   1.171   3.271 -0.3844 -0.4248  4.9137
  125CHL1   C1115470   5.817   1.021   3.113 -0.1538  0.3550 -0.2762
  125CHL1  H11A15471   5.809   0.910   3.115  1.7559  0.1211  3.2183
  125CHL1  H11B15472   5.730   1.083   3.082 -1.5449 -1.5272 -0.3794
  125CHL1    C915473   5.922   1.062   3.005 -0.3243  0.3210 -0.3797
  125CHL1    H915474   5.924   1.173   2.999 -0.1267  0.3052 -0.5997
  125CHL1   C1015475   5.904   1.014   2.858 -0.3541 -0.3677  0.0456
  125CHL1   C1915476   5.883   0.861   2.849 -0.4118  0.0211  0.1252
  125CHL1  H19A15477   5.984   0.819   2.869  0.2097  0.6138 -1.5610
  125CHL1  H19B15478   5.803   0.829   2.919  0.3503  0.1185  1.0696
  125CHL1  H19C15479   5.850   0.834   2.747 -1.2348  0.2089  0.3352
  125CHL1    C115480   5.773   1.081   2.806  0.5060 -0.2789  0.5476
  125CHL1   H1A15481   5.685   1.059   2.870 -1.1890 -0.1610 -1.6450
  125CHL1   H1B15482   5.788   1.191   2.814  0.2530 -0.2665  0.8958
  125CHL1    C215483   5.735   1.065   2.650  0.0398  0.1129 -0.5156
  125CHL1   H2A15484   5.644   1.122   2.623 -0.0888 -0.0980 -0.5238
  125CHL1   H2B15485   5.722   0.956   2.633  2.6683  0.1206 -3.4021
  125CHL1   C2015486   6.019   1.017   3.564  0.5373  0.4066  0.3741
  125CHL1   H2015487   6.050   0.911   3.571 -0.3637 -0.1658 -2.7947
  125CHL1   C2115488   5.864   1.022   3.593 -0.5125 -0.4110 -0.9365
  125CHL1  H21A15489   5.841   0.999   3.699  0.1986  1.6277 -0.3030
  125CHL1  H21B15490   5.796   0.961   3.529 -3.6043  0.7903  1.0117
  125CHL1  H21C15491   5.834   1.128   3.577 -0.8493 -0.4549 -0.6094
  125CHL1   C2215492   6.083   1.105   3.675  0.0871  0.4171 -0.2073
  125CHL1  H22A15493   6.192   1.098   3.654  0.1827 -1.4225  0.7003
  125CHL1  H22B15494   6.043   1.209   3.673 -0.9172  0.0379 -0.5485
  125CHL1   C2315495   6.058   1.056   3.814  0.6810 -0.3461 -0.1988
  125CHL1  H23A15496   6.115   1.121   3.884 -2.0135  1.2194  0.6864
  125CHL1  H23B15497   5.953   1.085   3.835  1.1185  0.0473  1.6102
  125CHL1   C2415498   6.088   0.919   3.847  0.3682  0.0456 -0.4974
  125CHL1  H24A15499   6.025   0.857   3.780 -1.9300  1.2746  0.4204
  125CHL1  H24B15500   6.190   0.884   3.820  0.3248 -0.2823 -0.2492
  125CHL1   C2515501   6.047   0.867   3.986 -0.3666 -0.2179 -0.1827
  125CHL1   H2515502   6.060   0.757   3.992 -0.7399 -0.1917  1.7299
  125CHL1   C2615503   6.142   0.922   4.101  0.2107  0.2857  0.0337
  125CHL1  H26A15504   6.119   0.864   4.193 -0.1800 -0.5678 -0.5881
  125CHL1  H26B15505   6.247   0.897   4.075  0.1149 -1.4154  1.0782
  125CHL1  H26C15506   6.118   1.025   4.134 -0.6665 -0.5343  2.1402
  125CHL1   C2715507   5.904   0.884   4.030 -0.0357  0.4004 -0.5143
  125CHL1  H27A15508   5.881   0.993   4.032  3.9750  1.3977  1.6211
  125CHL1  H27B15509   5.835   0.818   3.973 -0.1349  0.2217 -0.1930
  125CHL1  H27C15510   5.887   0.842   4.132 -1.2221  0.3860 -0.7052
  126CHL1    C315511   3.337   6.744   3.420  0.0359  0.2593  0.0351
  126CHL1    H315512   3.288   6.803   3.500  1.7899 -0.4996  1.7515
  126CHL1    O315513   3.257   6.748   3.300 -0.4328 -0.2485 -0.4191
  126CHL1   H3'15514   3.296   6.804   3.233 -0.1586  0.5061  0.3397
  126CHL1    C415515   3.488   6.786   3.398 -0.3096 -0.5453  0.3619
  126CHL1   H4A15516   3.532   6.734   3.311  0.4671  1.2517 -0.3601
  126CHL1   H4B15517   3.474   6.891   3.364  0.3007 -0.1726  1.2243
  126CHL1    C515518   3.575   6.769   3.522 -0.3791 -0.2970 -0.2562
  126CHL1    C615519   3.649   6.872   3.573 -0.4861  0.0199  0.4662
  126CHL1    H615520   3.659   6.968   3.521  1.3194 -0.5469 -0.3165
  126CHL1    C715521   3.728   6.865   3.701  0.5415 -0.2906 -0.3998
  126CHL1   H7A15522   3.831   6.907   3.696 -0.2951  2.1265  1.0096
  126CHL1   H7B15523   3.682   6.928   3.779  1.7126  0.0858  0.0088
  126CHL1    C815524   3.757   6.716   3.747  0.5697  0.0084 -0.2041
  126CHL1    H815525   3.833   6.667   3.682 -1.4862 -1.5991 -1.5370
  126CHL1   C1415526   3.803   6.726   3.886  0.1457 -0.4494 -0.0215
  126CHL1   H1415527   3.723   6.773   3.948 -0.4948  1.4410 -2.1602
  126CHL1   C1515528   3.929   6.815   3.914  0.2880  0.1321  0.3562
  126CHL1  H15A15529   3.992   6.798   3.824 -0.1972 -1.3381  0.2616
  126CHL1  H15B15530   3.895   6.920   3.917 -1.0239 -0.0801 -2.9497
  126CHL1   C1615531   3.976   6.763   4.048 -0.1493 -0.1321  0.0849
  126CHL1  H16A15532   4.078   6.719   4.050  0.0409  0.2978 -0.1197
  126CHL1  H16B15533   3.973   6.843   4.125 -0.0632  1.1752 -1.2210
  126CHL1   C1715534   3.889   6.640   4.087 -0.3983 -0.1465  0.6014
  126CHL1   H1715535   3.805   6.679   4.148 -0.9221  0.8146 -0.6789
  126CHL1   C1315536   3.826   6.597   3.953 -0.6221 -0.7839  0.0775
  126CHL1   C1815537   3.930   6.521   3.880  0.3943  0.1474  0.6057
  126CHL1  H18A15538   3.908   6.489   3.775  0.3031 -0.7613  0.8918
  126CHL1  H18B15539   4.023   6.578   3.861 -1.1595  2.1186 -1.5790
  126CHL1  H18C15540   3.961   6.427   3.930 -0.2577  0.3215  1.3460
  126CHL1   C1215541   3.695   6.522   3.952 -0.6305  0.8225 -0.0507
  126CHL1  H12A15542   3.726   6.418   3.975 -0.2305  0.4113 -2.1889
  126CHL1  H12B15543   3.615   6.555   4.022  0.6519 -0.3416  2.0503
  126CHL1   C1115544   3.635   6.508   3.808  0.1552 -0.2972 -0.1167
  126CHL1  H11A15545   3.700   6.436   3.755  0.5783 -0.3054  0.4029
  126CHL1  H11B15546   3.545   6.443   3.816 -0.1153  0.2515  1.8429
  126CHL1    C915547   3.621   6.641   3.736  0.1820 -0.2845 -0.0031
  126CHL1    H915548   3.550   6.703   3.794  1.7799  2.2781 -0.6309
  126CHL1   C1015549   3.557   6.632   3.594 -0.7522  0.1625 -0.0381
  126CHL1   C1915550   3.633   6.523   3.505  0.7825 -0.5257 -0.3090
  126CHL1  H19A15551   3.744   6.531   3.511  0.7675 -0.2169 -0.4588
  126CHL1  H19B15552   3.622   6.416   3.536 -1.6123 -0.7330 -1.6565
  126CHL1  H19C15553   3.586   6.532   3.406 -1.7802 -0.9354  0.7965
  126CHL1    C115554   3.412   6.591   3.606  0.9323  0.5415  0.0236
  126CHL1   H1A15555   3.408   6.483   3.631  0.5181  0.9593  1.8587
  126CHL1   H1B15556   3.364   6.656   3.682  1.3039  0.6966  0.1292
  126CHL1    C215557   3.335   6.601   3.473 -0.5038 -0.0969 -0.3149
  126CHL1   H2A15558   3.226   6.581   3.479 -0.5298  0.3824  1.0761
  126CHL1   H2B15559   3.378   6.525   3.404 -1.4317 -0.9097 -0.0149
  126CHL1   C2015560   3.959   6.528   4.177 -0.4933 -0.8724  0.0828
  126CHL1   H2015561   4.030   6.474   4.110  0.7327 -1.3083  1.6661
  126CHL1   C2115562   3.853   6.434   4.222  0.4038 -0.0589  0.0065
  126CHL1  H21A15563   3.759   6.483   4.255  2.2701  2.7098  1.6181
  126CHL1  H21B15564   3.899   6.371   4.301  2.9719  0.1766 -1.1919
  126CHL1  H21C15565   3.830   6.364   4.139 -1.8275  1.6465 -0.9202
  126CHL1   C2215566   4.042   6.586   4.294  0.4557  0.2846 -0.7243
  126CHL1  H22A15567   4.087   6.687   4.279  1.1318 -0.1472 -1.7303
  126CHL1  H22B15568   3.968   6.590   4.376 -0.3857 -1.4071 -1.3589
  126CHL1   C2315569   4.147   6.488   4.338  0.0753  0.4919  0.3601
  126CHL1  H23A15570   4.120   6.381   4.350 -0.4214  0.5947  0.1708
  126CHL1  H23B15571   4.227   6.481   4.261 -0.6111  0.2961 -0.3501
  126CHL1   C2415572   4.223   6.527   4.462 -0.0022 -0.5273 -0.1684
  126CHL1  H24A15573   4.228   6.637   4.469 -1.7388 -0.3441 -1.1924
  126CHL1  H24B15574   4.167   6.504   4.556 -0.1569  0.1055 -0.1015
  126CHL1   C2515575   4.364   6.470   4.484  0.4650  0.3398  0.2845
  126CHL1   H2515576   4.420   6.471   4.388 -0.7888 -1.9473 -0.5487
  126CHL1   C2615577   4.437   6.547   4.584 -0.5023  0.1194 -0.6760
  126CHL1  H26A15578   4.439   6.658   4.579 -0.1038  0.1635  0.3772
  126CHL1  H26B15579   4.405   6.507   4.682  0.5086 -4.5235 -2.0234
  126CHL1  H26C15580   4.545   6.522   4.594 -0.4584  0.5176 -0.0760
  126CHL1   C2715581   4.350   6.318   4.515 -0.6992  0.7722 -0.6484
  126CHL1  H27A15582   4.291   6.319   4.609  1.4060 -0.6356  0.7708
  126CHL1  H27B15583   4.296   6.261   4.437  0.6604  0.5661 -1.4724
  126CHL1  H27C15584   4.449   6.267   4.520  0.0322  2.0762 -1.2442
  127CHL1    C315585   4.472   6.178   3.034  0.1597 -0.2103  0.3705
  127CHL1    H315586   4.476   6.075   2.992 -1.8891 -0.0408 -0.3980
  127CHL1    O315587   4.433   6.275   2.938 -0.0309 -0.1697  0.5163
  127CHL1   H3'15588   4.403   6.351   2.989  2.0187  3.5536 -3.2565
  127CHL1    C415589   4.374   6.188   3.153  0.4804  0.2504 -0.5001
  127CHL1   H4A15590   4.375   6.291   3.195  2.4293 -0.8387  2.4671
  127CHL1   H4B15591   4.274   6.169   3.110  0.5015 -0.8282 -0.0968
  127CHL1    C515592   4.412   6.082   3.263  0.0061  0.2233 -0.8454
  127CHL1    C615593   4.329   5.989   3.309  0.3482 -0.0361  0.6531
  127CHL1    H615594   4.228   5.987   3.268  0.4209 -2.3827  0.4610
  127CHL1    C715595   4.356   5.893   3.419  0.5265  0.5228  0.1018
  127CHL1   H7A15596   4.272   5.897   3.493  0.5774  2.0057  0.1126
  127CHL1   H7B15597   4.359   5.791   3.377  1.2710  1.4828 -2.3301
  127CHL1    C815598   4.479   5.945   3.502 -0.4130  0.2946  0.4001
  127CHL1    H815599   4.450   6.029   3.568 -0.8398 -1.3013  2.3669
  127CHL1   C1415600   4.534   5.833   3.587 -0.7896  1.2935 -0.2335
  127CHL1   H1415601   4.553   5.755   3.509  1.4159  1.5794 -0.0457
  127CHL1   C1515602   4.452   5.756   3.688  0.3258 -0.3353  0.2735
  127CHL1  H15A15603   4.414   5.818   3.772  0.3747 -0.0095  0.0577
  127CHL1  H15B15604   4.369   5.708   3.632 -0.8951 -0.3200  1.9724
  127CHL1   C1615605   4.552   5.652   3.728  0.2007  0.5436  0.2609
  127CHL1  H16A15606   4.521   5.611   3.826 -2.0597 -1.1113 -1.0308
  127CHL1  H16B15607   4.548   5.571   3.651  0.1239  1.0500 -0.2768
  127CHL1   C1715608   4.692   5.722   3.733  0.2332 -0.6349 -0.0777
  127CHL1   H1715609   4.754   5.657   3.669  1.2793 -0.7208  0.9851
  127CHL1   C1315610   4.669   5.861   3.663  0.5883 -0.7853 -0.6191
  127CHL1   C1815611   4.643   5.965   3.776 -0.5474  0.6848  0.1834
  127CHL1  H18A15612   4.589   5.916   3.860  0.1393 -1.0825 -0.3527
  127CHL1  H18B15613   4.742   6.001   3.810 -0.7693  1.1704  0.3134
  127CHL1  H18C15614   4.579   6.046   3.736 -1.8262 -0.5326 -0.3076
  127CHL1   C1215615   4.772   5.902   3.564 -0.0462 -0.8348  0.0140
  127CHL1  H12A15616   4.864   5.931   3.620 -0.2047 -0.0727 -0.1084
  127CHL1  H12B15617   4.793   5.826   3.486 -0.4474  0.8864 -1.8299
  127CHL1   C1115618   4.736   6.022   3.477 -0.3325  0.0369  0.0663
  127CHL1  H11A15619   4.725   6.102   3.553  2.4545 -0.8230  1.5450
  127CHL1  H11B15620   4.814   6.049   3.403 -0.1903 -0.3587  0.0692
  127CHL1    C915621   4.598   5.989   3.413 -0.8645 -0.3292  0.5810
  127CHL1    H915622   4.620   5.913   3.334 -4.0266  2.3884 -3.3009
  127CHL1   C1015623   4.552   6.099   3.317 -0.6293 -0.4631 -0.0463
  127CHL1   C1915624   4.540   6.235   3.399  0.0067 -0.0186 -0.3005
  127CHL1  H19A15625   4.516   6.321   3.332  1.9120  0.4768 -0.3930
  127CHL1  H19B15626   4.477   6.239   3.490 -0.9692  2.1180 -0.9902
  127CHL1  H19C15627   4.641   6.260   3.438  0.7238  0.3730 -2.2546
  127CHL1    C115628   4.652   6.114   3.198 -0.2802  0.1481 -0.5272
  127CHL1   H1A15629   4.753   6.144   3.234  0.0554  0.1846 -1.4722
  127CHL1   H1B15630   4.648   6.017   3.145 -1.5004  0.6772 -1.4506
  127CHL1    C215631   4.613   6.212   3.086 -0.7570  0.4659  0.4331
  127CHL1   H2A15632   4.699   6.221   3.016  0.6214  1.0219  2.1380
  127CHL1   H2B15633   4.599   6.315   3.125 -2.2928  0.3144  0.3587
  127CHL1   C2015634   4.772   5.714   3.865  0.3213 -0.0760  0.2972
  127CHL1   H2015635   4.706   5.771   3.934  0.8072 -1.8082  2.2970
  127CHL1   C2115636   4.909   5.772   3.853 -0.7321  0.1932 -0.1124
  127CHL1  H21A15637   4.983   5.715   3.792 -1.9292  0.5857 -2.0081
  127CHL1  H21B15638   4.957   5.777   3.953 -0.6869 -1.8584  0.0100
  127CHL1  H21C15639   4.913   5.879   3.822  1.3255  0.2448  0.1839
  127CHL1   C2215640   4.781   5.574   3.926  0.3351  0.4300  0.0872
  127CHL1  H22A15641   4.679   5.529   3.927  0.5176 -0.1312 -2.0373
  127CHL1  H22B15642   4.826   5.498   3.859  0.5998  0.6038  0.0688
  127CHL1   C2315643   4.834   5.565   4.073 -0.7423 -0.1364 -0.3570
  127CHL1  H23A15644   4.941   5.591   4.081 -0.4250 -1.7704  1.9188
  127CHL1  H23B15645   4.779   5.637   4.138  1.7454  0.4215  1.2430
  127CHL1   C2415646   4.823   5.428   4.142  0.4924  0.0776 -0.7314
  127CHL1  H24A15647   4.716   5.398   4.153  0.0614  0.5123 -3.2454
  127CHL1  H24B15648   4.873   5.351   4.080 -0.2874 -2.6667  1.7856
  127CHL1   C2515649   4.893   5.415   4.281  0.8225  0.6100 -0.1114
  127CHL1   H2515650   4.883   5.311   4.318  4.9632  0.2209  0.3494
  127CHL1   C2615651   5.038   5.444   4.278  0.3793 -0.1718 -0.1029
  127CHL1  H26A15652   5.081   5.395   4.188  1.0956  3.0822 -1.6908
  127CHL1  H26B15653   5.043   5.551   4.248  0.3060  0.0187  0.5560
  127CHL1  H26C15654   5.093   5.420   4.371  1.1586 -1.4268 -0.8728
  127CHL1   C2715655   4.837   5.506   4.390  0.0304  0.4467  0.1095
  127CHL1  H27A15656   4.836   5.615   4.367  0.7482  0.5873  0.7105
  127CHL1  H27B15657   4.731   5.476   4.404  0.1084 -2.2932 -3.5993
  127CHL1  H27C15658   4.897   5.502   4.483 -1.1267  0.3812  0.8793
  128CHL1    C315659   1.592   1.713   3.204 -0.1178  0.3104 -0.0845
  128CHL1    H315660   1.700   1.735   3.191 -0.3985  0.8444 -1.7128
  128CHL1    O315661   1.556   1.690   3.067  0.5058  0.8339  0.3071
  128CHL1   H3'15662   1.463   1.671   3.074  0.4811  0.5961 -0.5890
  128CHL1    C415663   1.580   1.581   3.293 -0.4500  0.5556  0.2446
  128CHL1   H4A15664   1.473   1.552   3.292 -0.7279  1.4616  1.5084
  128CHL1   H4B15665   1.642   1.497   3.255 -0.9320  0.6017 -0.6701
  128CHL1    C515666   1.623   1.600   3.440  0.3684 -0.1911  0.2273
  128CHL1    C615667   1.718   1.525   3.496  0.5091  0.1841 -0.1099
  128CHL1    H615668   1.768   1.445   3.439  0.6254 -0.6126  1.0907
  128CHL1    C715669   1.750   1.529   3.639  0.7150  0.2706 -0.0236
  128CHL1   H7A15670   1.727   1.429   3.681  0.9268  0.4930  0.6238
  128CHL1   H7B15671   1.854   1.555   3.666  2.4795 -2.5568 -3.3891
  128CHL1    C815672   1.666   1.629   3.728  0.7877  0.2561  0.1690
  128CHL1    H815673   1.573   1.574   3.754 -0.5074  0.7268 -2.9667
  128CHL1   C1415674   1.740   1.661   3.861 -0.3164  0.6380 -0.0410
  128CHL1   H1415675   1.836   1.711   3.834 -0.3223  0.0004 -1.2988
  128CHL1   C1515676   1.780   1.538   3.944  0.4039  0.0480 -0.0629
  128CHL1  H15A15677   1.699   1.466   3.965 -0.1638  0.7344  0.1311
  128CHL1  H15B15678   1.869   1.483   3.907  0.6705  0.1023  0.4830
  128CHL1   C1615679   1.809   1.608   4.075  0.0898  0.4518  0.3032
  128CHL1  H16A15680   1.766   1.562   4.166  0.5563  0.4170  0.5116
  128CHL1  H16B15681   1.919   1.609   4.096  0.1413  0.3767  0.0435
  128CHL1   C1715682   1.754   1.757   4.073 -0.2867 -0.1912  0.0427
  128CHL1   H1715683   1.844   1.816   4.045 -0.7691  0.0076 -1.1220
  128CHL1   C1315684   1.664   1.751   3.951 -0.3831 -0.3858  0.5335
  128CHL1   C1815685   1.524   1.689   3.995  0.0655  0.3811 -0.7595
  128CHL1  H18A15686   1.541   1.603   4.063 -0.0492 -0.0145 -1.2281
  128CHL1  H18B15687   1.462   1.766   4.047 -0.0851 -1.4237  1.9641
  128CHL1  H18C15688   1.460   1.651   3.912 -0.1202 -1.4641  0.1819
  128CHL1   C1215689   1.640   1.886   3.875  0.5230  0.1589  0.8302
  128CHL1  H12A15690   1.599   1.969   3.936 -0.4875  1.5201 -1.5405
  128CHL1  H12B15691   1.738   1.933   3.852  0.8882 -1.0134 -0.0637
  128CHL1   C1115692   1.562   1.866   3.736  0.7068  0.3243  0.0142
  128CHL1  H11A15693   1.459   1.833   3.762  0.1691  1.6870 -0.3411
  128CHL1  H11B15694   1.549   1.953   3.669 -1.2354 -0.9572 -1.3607
  128CHL1    C915695   1.629   1.754   3.647  0.0512 -0.2232  0.7703
  128CHL1    H915696   1.720   1.803   3.606 -0.4655  0.8321  0.8643
  128CHL1   C1015697   1.556   1.724   3.512 -0.0553  0.5201 -0.5091
  128CHL1   C1915698   1.411   1.684   3.554  0.4608 -0.4337  0.9053
  128CHL1  H19A15699   1.358   1.778   3.582  0.1872  0.3341 -1.9204
  128CHL1  H19B15700   1.354   1.655   3.463 -1.0741 -1.4668  2.1478
  128CHL1  H19C15701   1.395   1.614   3.639 -2.2947 -0.4054  0.5083
  128CHL1    C115702   1.566   1.854   3.418  0.1750  1.0910  0.4991
  128CHL1   H1A15703   1.502   1.941   3.444 -0.5122  0.4135  1.0923
  128CHL1   H1B15704   1.671   1.891   3.413  0.4665  0.5594  2.1964
  128CHL1    C215705   1.520   1.822   3.270  0.2411  0.5986 -0.5117
  128CHL1   H2A15706   1.528   1.920   3.219 -1.3477  1.2643  0.4641
  128CHL1   H2B15707   1.412   1.795   3.274  0.8635 -2.0043  1.0661
  128CHL1   C2015708   1.700   1.804   4.213  0.3244 -0.0519  0.5664
  128CHL1   H2015709   1.631   1.728   4.259  1.8522 -0.5354  2.1807
  128CHL1   C2115710   1.619   1.936   4.192  0.1922 -0.1366  0.2153
  128CHL1  H21A15711   1.565   1.969   4.283 -1.5944  2.2537 -1.5809
  128CHL1  H21B15712   1.538   1.925   4.117 -0.4919  2.8548  0.3951
  128CHL1  H21C15713   1.694   2.003   4.145 -0.1757 -0.8757 -1.5229
  128CHL1   C2215714   1.810   1.827   4.317  0.3165  0.5112 -0.5051
  128CHL1  H22A15715   1.871   1.737   4.337 -1.3440 -0.1032  2.4536
  128CHL1  H22B15716   1.870   1.916   4.288  1.0686 -0.1153 -0.9045
  128CHL1   C2315717   1.766   1.842   4.469  0.0252 -0.1339 -1.1834
  128CHL1  H23A15718   1.848   1.888   4.527 -0.7398 -0.1165 -0.0814
  128CHL1  H23B15719   1.694   1.927   4.465 -2.6925 -1.8441  3.4219
  128CHL1   C2415720   1.704   1.715   4.534  0.1168 -0.1047  0.4069
  128CHL1  H24A15721   1.622   1.673   4.473  1.0167 -2.2837  0.5955
  128CHL1  H24B15722   1.786   1.641   4.524  1.5657  1.6496 -1.6054
  128CHL1   C2515723   1.645   1.733   4.674  0.3909  0.4437  0.2000
  128CHL1   H2515724   1.578   1.821   4.669 -1.2071 -0.5221  2.6216
  128CHL1   C2615725   1.565   1.613   4.713 -0.0492  0.5417  0.0744
  128CHL1  H26A15726   1.476   1.596   4.648 -0.3222  1.8286  0.0751
  128CHL1  H26B15727   1.631   1.524   4.706 -0.1907  0.5118 -0.9947
  128CHL1  H26C15728   1.530   1.622   4.818  0.0178 -0.3850  0.1791
  128CHL1   C2715729   1.748   1.773   4.784  0.5086 -0.1995  0.2363
  128CHL1  H27A15730   1.700   1.792   4.882  0.6860  0.0412  0.2783
  128CHL1  H27B15731   1.822   1.691   4.802  1.5726  0.6503 -0.1714
  128CHL1  H27C15732   1.805   1.863   4.751 -1.9162  1.7107  1.0189
  129CHL1    C315733   6.224   0.118   2.564  0.4015  0.1321  0.0341
  129CHL1    H315734   6.123   0.075   2.549  0.2390  0.1852  0.9131
  129CHL1    O315735   6.288   0.160   2.447  0.9020  0.0495 -0.7063
  129CHL1   H3'15736   6.263   0.250   2.427 -0.4137 -0.2141 -0.3291
  129CHL1    C415737   6.218   0.238   2.664 -0.0257 -0.5333  0.0217
  129CHL1   H4A15738   6.315   0.291   2.677 -1.6661  2.5838  0.3220
  129CHL1   H4B15739   6.160   0.316   2.611  0.3902 -0.8564 -0.9338
  129CHL1    C515740   6.176   0.194   2.798 -0.0175  0.0036  0.5833
  129CHL1    C615741   6.079   0.260   2.860 -0.1341 -0.0571  1.2454
  129CHL1    H615742   6.032   0.343   2.806  2.8645  0.6731 -0.5058
  129CHL1    C715743   6.039   0.230   2.997 -0.0524 -0.0208  0.6282
  129CHL1   H7A15744   6.025   0.326   3.051 -0.2997 -1.0811  2.5443
  129CHL1   H7B15745   5.943   0.174   3.001 -0.3169  0.4682  1.3714
  129CHL1    C815746   6.147   0.149   3.077  0.1106 -0.6437  0.2959
  129CHL1    H815747   6.229   0.217   3.110 -1.5594  0.7913  1.7358
  129CHL1   C1415748   6.084   0.114   3.211  0.1326 -0.5308 -0.4255
  129CHL1   H1415749   5.997   0.049   3.189  1.1046 -1.6504 -1.1668
  129CHL1   C1515750   6.025   0.228   3.303  0.0745 -0.2877  0.0234
  129CHL1  H15A15751   6.096   0.306   3.340  1.7530 -2.2821  1.2169
  129CHL1  H15B15752   5.933   0.274   3.261 -0.6601 -2.2249 -0.5878
  129CHL1   C1615753   5.986   0.150   3.425 -0.5685  0.3182  0.3630
  129CHL1  H16A15754   6.012   0.193   3.524 -2.3013  1.6573  0.2719
  129CHL1  H16B15755   5.876   0.139   3.425 -0.3897 -2.2573 -1.2800
  129CHL1   C1715756   6.064   0.013   3.418 -0.0208  0.1815  0.0465
  129CHL1   H1715757   5.997  -0.069   3.385 -0.2533 -0.0493  1.0364
  129CHL1   C1315758   6.164   0.029   3.300  0.3031  0.3324  0.4778
  129CHL1   C1815759   6.290   0.098   3.347  0.1120 -0.1116  0.5325
  129CHL1  H18A15760   6.352   0.027   3.406  0.5842  1.3650  1.8624
  129CHL1  H18B15761   6.351   0.137   3.263  2.2428 -0.3993  1.8665
  129CHL1  H18C15762   6.261   0.182   3.413 -0.6167  0.1282 -0.0766
  129CHL1   C1215763   6.200  -0.096   3.217 -0.1037  0.2769 -0.4933
  129CHL1  H12A15764   6.269  -0.161   3.274  0.2498 -0.4878 -1.7522
  129CHL1  H12B15765   6.102  -0.147   3.203 -0.7779  0.5338  2.4733
  129CHL1   C1115766   6.270  -0.066   3.087 -0.0706 -0.3786  0.0079
  129CHL1  H11A15767   6.369  -0.027   3.120 -1.3125  1.8110  1.3638
  129CHL1  H11B15768   6.287  -0.161   3.032  1.1984 -0.8718  1.1861
  129CHL1    C915769   6.190   0.032   3.000 -0.7178 -0.2835  0.9351
  129CHL1    H915770   6.097  -0.019   2.967 -1.5504  1.6012  0.2256
  129CHL1   C1015771   6.259   0.081   2.857  0.0201 -0.2653 -0.7876
  129CHL1   C1915772   6.404   0.118   2.892  0.5913 -0.1104 -0.0468
  129CHL1  H19A15773   6.461   0.150   2.802  0.8712 -1.6873 -0.4568
  129CHL1  H19B15774   6.404   0.195   2.972  0.1730 -0.2263  0.0666
  129CHL1  H19C15775   6.458   0.026   2.922  0.1829 -0.2340  0.3144
  129CHL1    C115776   6.251  -0.045   2.759  0.5119  0.2429  0.5115
  129CHL1   H1A15777   6.311  -0.133   2.789 -0.3169 -0.2056  0.8789
  129CHL1   H1B15778   6.142  -0.065   2.763  0.3788  1.0498  2.0337
  129CHL1    C215779   6.303  -0.003   2.623 -0.0468 -0.3621 -0.3651
  129CHL1   H2A15780   6.292  -0.089   2.553 -1.7594  0.2549 -0.9124
  129CHL1   H2B15781   6.412   0.016   2.620  0.2473 -1.6357  1.0545
  129CHL1   C2015782   6.104  -0.047   3.555 -0.2145  0.4035 -0.6576
  129CHL1   H2015783   6.186   0.018   3.593  1.0621 -0.0761 -2.4581
  129CHL1   C2115784   6.155  -0.195   3.534 -0.1548  0.0021  0.5374
  129CHL1  H21A15785   6.178  -0.241   3.633 -1.1890 -1.3108  0.2039
  129CHL1  H21B15786   6.249  -0.188   3.475 -0.6756  0.2344 -0.2736
  129CHL1  H21C15787   6.081  -0.254   3.477 -0.2553  0.7875 -0.1559
  129CHL1   C2215788   5.990  -0.053   3.656  0.4467 -0.0940 -0.2157
  129CHL1  H22A15789   5.976   0.055   3.676  1.5267  0.9620 -4.3156
  129CHL1  H22B15790   5.896  -0.096   3.614  0.6494  0.2581 -1.0498
  129CHL1   C2315791   6.020  -0.113   3.794 -0.3394  0.6476 -0.3752
  129CHL1  H23A15792   6.032  -0.223   3.791  0.5108  0.7094  0.4707
  129CHL1  H23B15793   6.122  -0.083   3.826 -0.0044  1.0416 -1.7533
  129CHL1   C2415794   5.909  -0.072   3.897 -0.0986  0.9163  0.3042
  129CHL1  H24A15795   5.917   0.038   3.905  0.0090  0.7431  3.7899
  129CHL1  H24B15796   5.808  -0.092   3.857  0.8851 -0.8044 -1.5446
  129CHL1   C2515797   5.931  -0.120   4.039 -0.3175 -0.1503 -0.4972
  129CHL1   H2515798   6.026  -0.086   4.085 -0.5808 -1.6317  1.2472
  129CHL1   C2615799   5.819  -0.062   4.132 -0.1848  0.2385 -0.0539
  129CHL1  H26A15800   5.716  -0.099   4.114 -0.6974  1.8873 -0.7006
  129CHL1  H26B15801   5.850  -0.092   4.234  2.1277  3.3218  0.3205
  129CHL1  H26C15802   5.822   0.049   4.130 -3.7643  0.4609  1.1688
  129CHL1   C2715803   5.930  -0.276   4.055 -0.1659  0.3437  0.4487
  129CHL1  H27A15804   5.834  -0.314   4.014  0.6176  0.0756 -1.2249
  129CHL1  H27B15805   6.023  -0.315   4.010  1.8890  2.0232  2.9508
  129CHL1  H27C15806   5.943  -0.299   4.163  1.1870  0.3055  0.2880
  130CHL1    C315807   2.721   7.015   3.432 -0.4000 -0.6481  0.2827
  130CHL1    H315808   2.827   7.048   3.420 -0.2204 -1.0215  0.7963
  130CHL1    O315809   2.643   7.033   3.307 -0.7699  0.3121 -0.5692
  130CHL1   H3'15810   2.555   7.006   3.334  0.8370 -2.6711  2.5035
  130CHL1    C415811   2.729   6.866   3.482 -0.9107  0.0174  0.1738
  130CHL1   H4A15812   2.625   6.826   3.484 -0.3768 -1.4657  2.0463
  130CHL1   H4B15813   2.787   6.820   3.399  2.2550  0.4628  1.9790
  130CHL1    C515814   2.802   6.841   3.614 -0.1307 -0.2396 -0.2013
  130CHL1    C615815   2.900   6.751   3.626  0.3306 -0.8481  0.1445
  130CHL1    H615816   2.935   6.692   3.540  0.9385 -0.9960  0.4912
  130CHL1    C715817   2.963   6.714   3.753  0.1500 -0.1105 -0.1774
  130CHL1   H7A15818   2.968   6.603   3.759 -1.2992 -0.1754  0.3193
  130CHL1   H7B15819   3.071   6.732   3.769  0.6990 -4.4095  2.4292
  130CHL1    C815820   2.888   6.772   3.874  0.6282 -0.2973  0.5160
  130CHL1    H815821   2.793   6.715   3.888 -0.4545  1.4488  0.5221
  130CHL1   C1415822   2.979   6.763   3.994  0.2463 -0.1524  0.1408
  130CHL1   H1415823   3.073   6.810   3.960 -0.1850  0.0559 -0.8051
  130CHL1   C1515824   3.011   6.625   4.049 -0.1525  0.4543  0.3107
  130CHL1  H15A15825   2.921   6.561   4.064  0.0557  0.3617  1.2036
  130CHL1  H15B15826   3.077   6.575   3.975 -0.6901 -0.4078  0.4005
  130CHL1   C1615827   3.058   6.648   4.191  0.8676 -0.7004 -0.8747
  130CHL1  H16A15828   3.005   6.592   4.271 -2.5444  2.4390 -0.6315
  130CHL1  H16B15829   3.168   6.640   4.189  1.2276  1.0577  2.8738
  130CHL1   C1715830   3.042   6.805   4.214  0.1830  0.3875  0.3148
  130CHL1   H1715831   3.131   6.861   4.180 -0.0799  2.5133  2.8155
  130CHL1   C1315832   2.930   6.850   4.113 -0.3933  0.2845 -0.4703
  130CHL1   C1815833   2.796   6.800   4.172  0.3185  0.2071 -0.0076
  130CHL1  H18A15834   2.814   6.727   4.255  2.5651  0.0161 -0.6062
  130CHL1  H18B15835   2.732   6.881   4.212  0.9417 -0.2910  2.1422
  130CHL1  H18C15836   2.729   6.755   4.096 -1.6044  2.0296  0.5238
  130CHL1   C1215837   2.914   6.996   4.076 -0.7540 -0.4675  0.4132
  130CHL1  H12A15838   2.884   7.065   4.158 -1.9712  0.8753 -1.1042
  130CHL1  H12B15839   3.010   7.029   4.031 -2.0088  0.7515 -1.5248
  130CHL1   C1115840   2.816   7.011   3.960 -0.2794 -0.2473  0.4029
  130CHL1  H11A15841   2.715   6.990   4.000 -0.0205  0.2147  1.3408
  130CHL1  H11B15842   2.821   7.120   3.938 -0.2079 -0.1983  0.6584
  130CHL1    C915843   2.853   6.921   3.841  0.1320 -0.1390  0.1870
  130CHL1    H915844   2.948   6.967   3.805 -1.2678 -0.4394 -4.4858
  130CHL1   C1015845   2.751   6.940   3.725 -0.1860 -0.0479 -0.8848
  130CHL1   C1915846   2.613   6.904   3.774 -0.2059 -1.1997 -0.0570
  130CHL1  H19A15847   2.606   6.799   3.808 -1.5778 -1.1272 -0.0336
  130CHL1  H19B15848   2.587   6.983   3.848 -0.2277 -0.1837 -1.1001
  130CHL1  H19C15849   2.534   6.911   3.696 -0.0050  0.6504 -0.1580
  130CHL1    C115850   2.742   7.085   3.669 -0.0821 -0.4491 -0.1007
  130CHL1   H1A15851   2.695   7.148   3.747  2.9114  0.8166  0.8373
  130CHL1   H1B15852   2.840   7.132   3.646 -0.4356  1.2675  1.6512
  130CHL1    C215853   2.659   7.107   3.540 -0.3609 -0.1496  0.0690
  130CHL1   H2A15854   2.666   7.214   3.511  0.5198 -0.1791  0.1258
  130CHL1   H2B15855   2.553   7.081   3.560  0.1317 -0.7605  2.1405
  130CHL1   C2015856   3.035   6.840   4.366 -0.1469  0.0307 -0.0705
  130CHL1   H2015857   2.932   6.819   4.401  0.4654  0.8287  2.4043
  130CHL1   C2115858   3.063   6.997   4.398  0.3286  0.1518  0.3794
  130CHL1  H21A15859   3.170   7.024   4.391  0.5701 -0.8931 -0.2100
  130CHL1  H21B15860   3.021   7.011   4.500 -1.1609 -2.1067  0.1710
  130CHL1  H21C15861   3.001   7.058   4.330  1.4222  0.6651 -0.1858
  130CHL1   C2215862   3.139   6.769   4.458 -0.2977  0.1409 -0.2020
  130CHL1  H22A15863   3.169   6.668   4.423  1.9079  0.6059  0.1691
  130CHL1  H22B15864   3.237   6.821   4.460  0.3516 -0.8927 -2.1828
  130CHL1   C2315865   3.082   6.751   4.593  0.9266  0.7323  0.3994
  130CHL1  H23A15866   3.065   6.847   4.646  1.3605  1.2027 -0.2976
  130CHL1  H23B15867   2.987   6.694   4.595  1.2409  0.2164  1.8084
  130CHL1   C2415868   3.180   6.675   4.673  0.0415 -0.6524 -1.0032
  130CHL1  H24A15869   3.192   6.576   4.625  1.7152 -0.8129 -0.3061
  130CHL1  H24B15870   3.273   6.736   4.670 -0.8782  1.2001  2.2890
  130CHL1   C2515871   3.156   6.653   4.824  0.4483  0.4019 -0.0273
  130CHL1   H2515872   3.069   6.585   4.826  0.4122  0.4798  1.4010
  130CHL1   C2615873   3.275   6.587   4.890 -0.1713 -0.0355  1.0759
  130CHL1  H26A15874   3.371   6.642   4.876  0.5625 -1.5539 -0.2314
  130CHL1  H26B15875   3.257   6.589   5.000 -0.1338 -1.2032  1.1186
  130CHL1  H26C15876   3.294   6.484   4.852  0.6175  0.7558 -0.8030
  130CHL1   C2715877   3.114   6.784   4.905  0.1342  0.3900  0.0525
  130CHL1  H27A15878   3.081   6.754   5.006  1.5792  1.5468  0.9009
  130CHL1  H27B15879   3.189   6.865   4.918  0.8350 -0.4685  1.6219
  130CHL1  H27C15880   3.027   6.828   4.851  0.3866  1.0627  0.1821
  131CHL1    C315881   3.250   6.018   3.481 -0.1171 -0.0347  0.3681
  131CHL1    H315882   3.147   5.984   3.503  0.9765 -1.9056  3.0269
  131CHL1    O315883   3.268   6.014   3.341  0.1906  0.4450  0.3664
  131CHL1   H3'15884   3.363   6.008   3.326  0.0334 -0.5136 -0.2889
  131CHL1    C415885   3.264   6.161   3.536  0.3073 -0.2301  0.1081
  131CHL1   H4A15886   3.349   6.215   3.490  0.3506 -1.2167 -0.9977
  131CHL1   H4B15887   3.178   6.220   3.499  0.2294  0.8392  1.8580
  131CHL1    C515888   3.264   6.174   3.690 -0.4852  0.1237  0.6490
  131CHL1    C615889   3.183   6.246   3.758  1.3374  0.0149 -0.1475
  131CHL1    H615890   3.114   6.309   3.700  0.8128  0.0386  0.4819
  131CHL1    C715891   3.182   6.272   3.910  0.1188 -0.1929 -0.0613
  131CHL1   H7A15892   3.160   6.374   3.948 -1.0878 -0.4961  0.0742
  131CHL1   H7B15893   3.101   6.209   3.951 -2.5504  1.7627 -2.0156
  131CHL1    C815894   3.307   6.210   3.981 -0.2101  0.1461  0.1509
  131CHL1    H815895   3.395   6.276   3.960 -0.2559  0.1589 -0.0067
  131CHL1   C1415896   3.287   6.192   4.125 -0.1720  0.6616  0.5195
  131CHL1   H1415897   3.195   6.131   4.133 -1.3465  2.1809 -0.6864
  131CHL1   C1515898   3.241   6.314   4.207  0.3791 -0.1817 -0.2830
  131CHL1  H15A15899   3.291   6.407   4.172 -0.7652  0.3738 -0.4827
  131CHL1  H15B15900   3.131   6.323   4.197  0.2674 -0.1638  0.7825
  131CHL1   C1615901   3.274   6.274   4.352  0.1566 -0.6417 -0.3265
  131CHL1  H16A15902   3.345   6.345   4.401 -1.0831  0.7346 -0.4301
  131CHL1  H16B15903   3.181   6.266   4.414  1.1430 -1.6692  1.0696
  131CHL1   C1715904   3.331   6.130   4.346  0.2224 -0.5210  0.0442
  131CHL1   H1715905   3.245   6.060   4.349 -0.1071 -0.1006  1.0714
  131CHL1   C1315906   3.396   6.122   4.208  0.0452  0.1946 -0.2736
  131CHL1   C1815907   3.525   6.204   4.196 -0.0740  0.6922  0.2957
  131CHL1  H18A15908   3.549   6.217   4.089 -1.0927 -0.1224 -0.0464
  131CHL1  H18B15909   3.512   6.305   4.241  0.3370 -0.3658  2.9998
  131CHL1  H18C15910   3.604   6.145   4.247  1.3961 -1.0536 -3.6030
  131CHL1   C1215911   3.415   5.982   4.148 -0.5156  0.5503  0.1226
  131CHL1  H12A15912   3.496   5.924   4.196 -0.0891 -0.0224 -1.2162
  131CHL1  H12B15913   3.323   5.920   4.157  0.4089 -0.7845  0.7857
  131CHL1   C1115914   3.446   5.987   3.996  1.0130  0.0001 -0.1009
  131CHL1  H11A15915   3.549   6.020   3.969  0.5644  1.0211 -0.6246
  131CHL1  H11B15916   3.443   5.883   3.957  0.0424 -0.2554  0.6085
  131CHL1    C915917   3.339   6.074   3.916 -0.6604 -0.0263 -0.7777
  131CHL1    H915918   3.238   6.031   3.929 -0.7410  0.5503  0.6042
  131CHL1   C1015919   3.363   6.076   3.768 -0.4101  0.0635  0.3775
  131CHL1   C1915920   3.500   6.140   3.749  0.4577 -0.0942 -0.8551
  131CHL1  H19A15921   3.527   6.219   3.823 -0.7422 -0.1240 -0.3662
  131CHL1  H19B15922   3.582   6.066   3.761  0.9095  0.3584 -1.0831
  131CHL1  H19C15923   3.517   6.173   3.644  1.7344 -1.2538 -1.0478
  131CHL1    C115924   3.347   5.939   3.702 -0.2075  0.4442 -0.3498
  131CHL1   H1A15925   3.424   5.872   3.745 -1.4668 -2.3456 -2.1753
  131CHL1   H1B15926   3.245   5.899   3.722 -0.0091  0.6820  1.2658
  131CHL1    C215927   3.357   5.933   3.545 -0.0351  0.3759  0.0087
  131CHL1   H2A15928   3.349   5.830   3.506  1.6055 -0.2051  1.1239
  131CHL1   H2B15929   3.461   5.969   3.529 -0.2953  1.4064  0.5345
  131CHL1   C2015930   3.431   6.100   4.468 -0.8128  0.0062 -0.2169
  131CHL1   H2015931   3.514   6.173   4.451 -1.0910  0.0074 -1.6882
  131CHL1   C2115932   3.489   5.954   4.465 -0.5217  0.6740 -0.5070
  131CHL1  H21A15933   3.561   5.943   4.381  0.0240  0.1188  0.0208
  131CHL1  H21B15934   3.408   5.879   4.455 -0.7596  0.8565  0.0266
  131CHL1  H21C15935   3.554   5.935   4.553 -1.0036  0.7950 -0.1223
  131CHL1   C2215936   3.360   6.129   4.600  0.0651 -0.1729 -0.5960
  131CHL1  H22A15937   3.318   6.231   4.603  2.0193  0.6586 -0.2992
  131CHL1  H22B15938   3.279   6.053   4.613  0.1647 -0.6402 -2.4502
  131CHL1   C2315939   3.448   6.121   4.728  0.8334  0.3136  0.3507
  131CHL1  H23A15940   3.475   6.014   4.742  2.2307  0.4366 -1.1487
  131CHL1  H23B15941   3.547   6.168   4.711  1.2271 -0.6701 -0.1101
  131CHL1   C2415942   3.369   6.170   4.854 -0.4422 -0.4288 -0.0129
  131CHL1  H24A15943   3.377   6.281   4.854  2.9861 -0.5800 -0.0355
  131CHL1  H24B15944   3.263   6.139   4.845 -0.7027 -0.2039  1.9653
  131CHL1   C2515945   3.424   6.115   4.992  0.7218 -0.0397  0.1008
  131CHL1   H2515946   3.535   6.121   4.995  0.6950  1.9579 -1.1516
  131CHL1   C2615947   3.361   6.214   5.103 -0.1133 -0.6200  0.4803
  131CHL1  H26A15948   3.382   6.175   5.205  1.3558 -1.0255  0.0452
  131CHL1  H26B15949   3.399   6.318   5.099 -0.6461 -0.3811  1.3664
  131CHL1  H26C15950   3.251   6.223   5.099 -0.0862  0.0116  1.0313
  131CHL1   C2715951   3.366   5.973   5.024 -0.3569 -0.7475 -0.5618
  131CHL1  H27A15952   3.256   5.966   5.031 -0.2109 -1.2925  2.4645
  131CHL1  H27B15953   3.415   5.911   4.946  2.0944  1.5693 -1.0336
  131CHL1  H27C15954   3.407   5.939   5.121  2.2665  3.1147 -0.0651
  132CHL1    C315955   4.497   0.739   2.889  0.2329  0.0264 -0.6567
  132CHL1    H315956   4.599   0.781   2.899  0.7564 -1.5578  1.3817
  132CHL1    O315957   4.466   0.746   2.750  0.1470 -1.0116  0.1711
  132CHL1   H3'15958   4.370   0.738   2.751  0.0434  0.0416  1.1816
  132CHL1    C415959   4.484   0.592   2.929 -0.0291 -0.6712  0.1721
  132CHL1   H4A15960   4.393   0.546   2.885  0.6148  1.6827 -4.2051
  132CHL1   H4B15961   4.570   0.551   2.872 -1.0115  0.1004 -1.9718
  132CHL1    C515962   4.503   0.564   3.077 -0.5806 -0.1644 -0.2920
  132CHL1    C615963   4.607   0.494   3.118  0.1863 -0.7481  0.0908
  132CHL1    H615964   4.680   0.451   3.048  3.0528 -0.4115  2.6111
  132CHL1    C715965   4.638   0.472   3.268  0.4130  0.0771  0.5954
  132CHL1   H7A15966   4.662   0.368   3.295  1.8068  0.0829 -0.4745
  132CHL1   H7B15967   4.727   0.527   3.305 -0.6087  1.9528  0.4318
  132CHL1    C815968   4.516   0.506   3.354 -0.5034 -0.1956 -0.1652
  132CHL1    H815969   4.444   0.422   3.353 -0.4239 -0.2632 -0.3713
  132CHL1   C1415970   4.563   0.511   3.495 -0.3111 -0.5018  0.3671
  132CHL1   H1415971   4.632   0.597   3.501  0.0934 -0.7371 -0.6893
  132CHL1   C1515972   4.643   0.391   3.546 -0.3423 -0.1685  0.3997
  132CHL1  H15A15973   4.597   0.308   3.489 -1.0871  0.3357  0.2444
  132CHL1  H15B15974   4.750   0.395   3.517 -0.0481 -0.9826  1.3396
  132CHL1   C1615975   4.609   0.380   3.695 -0.5789 -0.5836  0.1663
  132CHL1  H16A15976   4.547   0.288   3.699 -0.2191 -0.8436 -0.1290
  132CHL1  H16B15977   4.700   0.355   3.753 -0.7181 -1.5057  0.0047
  132CHL1   C1715978   4.535   0.515   3.731  0.2789  0.0894  0.2901
  132CHL1   H1715979   4.615   0.591   3.746  1.1291 -1.2494  3.4371
  132CHL1   C1315980   4.450   0.541   3.602 -0.4800  0.3728  0.6349
  132CHL1   C1815981   4.328   0.443   3.588 -0.8912  0.1517 -0.2673
  132CHL1  H18A15982   4.295   0.437   3.482 -0.9864  1.4824 -0.3307
  132CHL1  H18B15983   4.361   0.340   3.615  1.9065  1.2959  1.1070
  132CHL1  H18C15984   4.243   0.473   3.652  2.1058 -0.1162  4.2741
  132CHL1   C1215985   4.399   0.683   3.570 -0.0053  0.0871  0.5960
  132CHL1  H12A15986   4.321   0.714   3.643 -1.5446  2.9518 -2.0031
  132CHL1  H12B15987   4.478   0.759   3.586  1.3897 -1.2239  0.0966
  132CHL1   C1115988   4.349   0.695   3.422 -0.7342 -0.0834  1.1619
  132CHL1  H11A15989   4.266   0.622   3.412  0.2472 -1.0272 -1.0932
  132CHL1  H11B15990   4.310   0.795   3.394  2.0027  0.7167 -0.2110
  132CHL1    C915991   4.454   0.639   3.319 -0.3637  0.5643 -0.5553
  132CHL1    H915992   4.535   0.714   3.321 -2.1781  2.6362 -0.8477
  132CHL1   C1015993   4.409   0.650   3.165 -1.1168  0.1933 -0.2899
  132CHL1   C1915994   4.265   0.600   3.157  0.3322 -0.3437  0.2267
  132CHL1  H19A15995   4.251   0.521   3.233 -0.6584 -0.1989  0.2022
  132CHL1  H19B15996   4.187   0.678   3.172  0.3578 -0.5754  1.7409
  132CHL1  H19C15997   4.244   0.549   3.061  0.3364  1.8507 -1.0037
  132CHL1    C115998   4.426   0.796   3.121  0.3037  0.1823  0.0491
  132CHL1   H1A15999   4.350   0.852   3.180 -0.8328 -0.8421 -0.3935
  132CHL1   H1B16000   4.524   0.835   3.156  0.8638 -1.4393  0.3595
  132CHL1    C216001   4.401   0.826   2.968 -0.6602 -0.3790 -0.2479
  132CHL1   H2A16002   4.434   0.928   2.938 -0.8695  0.1411  1.2379
  132CHL1   H2B16003   4.296   0.797   2.948 -0.4379 -1.2192 -0.2067
  132CHL1   C2016004   4.469   0.494   3.870 -0.2462  0.2012  0.5309
  132CHL1   H2016005   4.390   0.417   3.863 -0.8162  0.8361 -0.2580
  132CHL1   C2116006   4.405   0.628   3.898  0.2625  0.1807 -0.1164
  132CHL1  H21A16007   4.312   0.629   3.836  0.3798  1.0493 -0.2920
  132CHL1  H21B16008   4.455   0.723   3.871 -1.8912  1.7583  1.1477
  132CHL1  H21C16009   4.387   0.643   4.006 -1.4192  0.6736 -0.4376
  132CHL1   C2216010   4.560   0.449   3.985 -0.1546  0.1335 -0.3274
  132CHL1  H22A16011   4.509   0.459   4.083  1.7177  1.4972  0.5842
  132CHL1  H22B16012   4.584   0.341   3.979  2.2751  0.6473 -1.1398
  132CHL1   C2316013   4.684   0.542   4.001  0.0842  0.7623 -0.1063
  132CHL1  H23A16014   4.761   0.521   3.925 -1.6337 -2.1767 -1.1997
  132CHL1  H23B16015   4.643   0.645   3.995 -0.9440  0.6381  2.7238
  132CHL1   C2416016   4.740   0.523   4.144  0.6308  0.0768 -0.6694
  132CHL1  H24A16017   4.651   0.546   4.208  0.9401 -0.6325  0.0391
  132CHL1  H24B16018   4.778   0.421   4.169  0.5517  0.8495  3.3637
  132CHL1   C2516019   4.834   0.627   4.190  0.0725 -0.3554 -1.0550
  132CHL1   H2516020   4.907   0.633   4.106  0.1438  0.2502 -0.9550
  132CHL1   C2616021   4.767   0.768   4.211 -0.6206 -0.5672 -0.4348
  132CHL1  H26A16022   4.844   0.841   4.242 -0.1701 -0.7618 -1.0610
  132CHL1  H26B16023   4.718   0.810   4.120 -1.9610  1.0832  0.9672
  132CHL1  H26C16024   4.692   0.752   4.292  0.7890  1.6228  1.4197
  132CHL1   C2716025   4.914   0.579   4.312  0.5863 -0.2562 -0.2723
  132CHL1  H27A16026   4.957   0.480   4.286  1.4741  0.3375 -1.1356
  132CHL1  H27B16027   4.999   0.649   4.326 -0.5503  0.8631  1.3068
  132CHL1  H27C16028   4.862   0.589   4.410  1.7553  1.7187  0.1916
  133CHL1    C316029   1.465   1.218   3.309  0.1002 -0.1771 -0.1484
  133CHL1    H316030   1.555   1.281   3.322 -0.4705  0.4832  0.6978
  133CHL1    O316031   1.451   1.186   3.173  0.1248  0.2509  0.4539
  133CHL1   H3'16032   1.370   1.136   3.162  1.1371 -2.1741  2.8970
  133CHL1    C416033   1.481   1.091   3.394  0.6735  0.1897  0.0987
  133CHL1   H4A16034   1.390   1.031   3.371  1.3985 -1.4101  1.1467
  133CHL1   H4B16035   1.574   1.039   3.362 -0.2551 -0.7968 -1.0867
  133CHL1    C516036   1.492   1.112   3.541  0.4913  0.2464 -0.3156
  133CHL1    C616037   1.601   1.080   3.609 -1.0385 -0.1155 -0.7855
  133CHL1    H616038   1.691   1.038   3.563  0.5672  0.1807  1.8754
  133CHL1    C716039   1.618   1.097   3.758 -0.2454 -0.2868  0.1426
  133CHL1   H7A16040   1.671   1.011   3.802  0.2268 -0.2817 -0.3977
  133CHL1   H7B16041   1.693   1.179   3.762  0.1902 -0.3224 -3.5863
  133CHL1    C816042   1.483   1.128   3.829  1.1937 -0.5996  0.4301
  133CHL1    H816043   1.423   1.034   3.825  2.4015 -1.3685 -2.5881
  133CHL1   C1416044   1.504   1.176   3.979  0.5214 -0.0983  0.9840
  133CHL1   H1416045   1.562   1.270   3.968  0.7690 -0.0814  2.3349
  133CHL1   C1516046   1.592   1.080   4.065 -0.2477  0.7444 -0.3788
  133CHL1  H15A16047   1.553   0.977   4.052  1.8031 -0.0706 -0.5203
  133CHL1  H15B16048   1.700   1.077   4.037  0.1365 -2.1558  1.0071
  133CHL1   C1616049   1.564   1.129   4.208 -0.2586 -0.8240 -0.2036
  133CHL1  H16A16050   1.514   1.047   4.264 -2.9877 -0.3345 -1.7222
  133CHL1  H16B16051   1.653   1.162   4.265 -0.1602 -1.6494  0.1410
  133CHL1   C1716052   1.450   1.243   4.197  0.4596 -0.0769  0.7233
  133CHL1   H1716053   1.508   1.336   4.181 -0.9787  0.7361  0.0414
  133CHL1   C1316054   1.383   1.211   4.064 -0.6260  0.1327  0.6488
  133CHL1   C1816055   1.309   1.076   4.090 -0.3010  0.4178 -0.0426
  133CHL1  H18A16056   1.351   0.999   4.157 -1.3638 -1.5967 -1.5954
  133CHL1  H18B16057   1.210   1.093   4.138 -0.3476 -1.5351  0.6061
  133CHL1  H18C16058   1.304   1.005   4.005  2.9250 -0.2152  0.1575
  133CHL1   C1216059   1.314   1.316   3.984  0.6825 -0.2616 -0.6442
  133CHL1  H12A16060   1.225   1.355   4.039  0.0371 -0.4642 -1.5217
  133CHL1  H12B16061   1.382   1.404   3.983 -1.3116  1.3512 -1.3076
  133CHL1   C1116062   1.277   1.283   3.838  0.3964  0.1617  0.0138
  133CHL1  H11A16063   1.211   1.194   3.842 -0.1025  0.5486  0.5354
  133CHL1  H11B16064   1.217   1.370   3.804 -1.5668 -0.5718  1.4013
  133CHL1    C916065   1.400   1.236   3.749 -0.4880  0.0667 -0.2757
  133CHL1    H916066   1.469   1.323   3.752 -1.0200  0.4505  1.6261
  133CHL1   C1016067   1.375   1.189   3.598  0.3743 -0.2318 -0.5522
  133CHL1   C1916068   1.237   1.109   3.597 -0.4975 -0.5535  0.2347
  133CHL1  H19A16069   1.220   1.075   3.492  1.7325 -0.8515 -0.0846
  133CHL1  H19B16070   1.257   1.021   3.661  0.6431  0.0243  0.6909
  133CHL1  H19C16071   1.159   1.184   3.622 -1.0545 -1.6086  1.8415
  133CHL1    C116072   1.354   1.316   3.513 -0.2528 -0.7069 -0.4268
  133CHL1   H1A16073   1.274   1.377   3.561  1.7375  1.5792  0.1822
  133CHL1   H1B16074   1.449   1.373   3.521 -1.1182  0.6097  1.0186
  133CHL1    C216075   1.345   1.291   3.361 -0.2137 -0.6569 -0.3805
  133CHL1   H2A16076   1.328   1.385   3.304 -0.6760 -1.1628 -1.0993
  133CHL1   H2B16077   1.247   1.239   3.350 -0.6133  0.3738 -1.9076
  133CHL1   C2016078   1.370   1.257   4.330  0.3370  0.4006 -0.8906
  133CHL1   H2016079   1.305   1.170   4.354  1.9297 -0.5053  0.3078
  133CHL1   C2116080   1.279   1.383   4.312 -1.0995  0.9277  0.2174
  133CHL1  H21A16081   1.243   1.420   4.410  0.8515  1.5206  0.7518
  133CHL1  H21B16082   1.194   1.340   4.255  0.6598 -1.0331 -1.1032
  133CHL1  H21C16083   1.342   1.457   4.258  2.1432 -0.7381  1.4410
  133CHL1   C2216084   1.460   1.289   4.453 -0.3900  0.5706 -0.4511
  133CHL1  H22A16085   1.559   1.252   4.419 -0.8274  0.3110 -1.4769
  133CHL1  H22B16086   1.477   1.398   4.468 -1.4688  0.6522  0.2858
  133CHL1   C2316087   1.413   1.231   4.583  0.5804  0.6091  0.3551
  133CHL1  H23A16088   1.319   1.280   4.616 -1.0839 -1.2055 -1.4436
  133CHL1  H23B16089   1.389   1.125   4.564  0.0253  1.1574 -2.4057
  133CHL1   C2416090   1.509   1.232   4.708  0.5824 -0.2320  0.0268
  133CHL1  H24A16091   1.602   1.181   4.673  1.0203 -0.5510  1.5734
  133CHL1  H24B16092   1.535   1.338   4.730 -0.6880 -0.1898  1.4727
  133CHL1   C2516093   1.461   1.168   4.839  0.0031  0.5334 -0.4705
  133CHL1   H2516094   1.404   1.075   4.817  0.7409 -0.0241 -0.0654
  133CHL1   C2616095   1.576   1.116   4.922  0.2006  0.2526 -0.0967
  133CHL1  H26A16096   1.637   1.035   4.877 -1.2839 -0.9000 -0.0911
  133CHL1  H26B16097   1.643   1.199   4.954  2.0395 -1.8267  1.8396
  133CHL1  H26C16098   1.538   1.060   5.010 -0.8517 -2.8237 -2.3430
  133CHL1   C2716099   1.372   1.262   4.917  0.0242  0.2202 -0.3832
  133CHL1  H27A16100   1.347   1.211   5.012  1.7141  0.8537  0.4405
  133CHL1  H27B16101   1.425   1.356   4.945 -0.3959  0.5217 -0.5799
  133CHL1  H27C16102   1.275   1.291   4.870  0.8156  1.9010 -1.0838
  134CHL1    C316103   5.309   4.291   2.661 -0.1746  0.5145  0.6020
  134CHL1    H316104   5.408   4.248   2.685  0.5498  2.5112  1.4374
  134CHL1    O316105   5.314   4.356   2.528  0.0809  0.1444 -0.4090
  134CHL1   H3'16106   5.231   4.327   2.489  0.3269 -1.6435  0.3051
  134CHL1    C416107   5.206   4.177   2.668 -0.8543 -0.0150  0.1216
  134CHL1   H4A16108   5.109   4.222   2.637 -1.1283 -0.6393  0.0567
  134CHL1   H4B16109   5.221   4.095   2.594 -1.5238 -1.0379  1.0801
  134CHL1    C516110   5.212   4.122   2.806  0.5171 -0.7560 -0.6176
  134CHL1    C616111   5.243   4.000   2.822  0.0631  0.9816 -0.7217
  134CHL1    H616112   5.282   3.938   2.739  3.8663  1.7576  0.2870
  134CHL1    C716113   5.241   3.930   2.950 -0.3336 -0.2757 -0.5541
  134CHL1   H7A16114   5.192   3.831   2.937 -1.4746  0.1910  0.0212
  134CHL1   H7B16115   5.334   3.928   3.010  1.0983  0.7191 -2.6398
  134CHL1    C816116   5.139   4.000   3.040 -0.0270 -0.0682 -0.4323
  134CHL1    H816117   5.041   3.972   2.996 -1.5261 -0.5497  2.9175
  134CHL1   C1416118   5.142   3.943   3.185 -0.0606 -0.2321  0.4336
  134CHL1   H1416119   5.246   3.957   3.220 -0.1838 -1.8690  1.5688
  134CHL1   C1516120   5.110   3.793   3.195 -0.3219 -0.5722 -1.1347
  134CHL1  H15A16121   5.020   3.772   3.132 -2.1956  0.4208  1.0520
  134CHL1  H15B16122   5.195   3.722   3.182 -2.8744 -3.8740 -1.3058
  134CHL1   C1616123   5.063   3.778   3.350 -0.0341 -0.5098  0.9163
  134CHL1  H16A16124   4.964   3.730   3.371  0.2471 -0.8306  1.5337
  134CHL1  H16B16125   5.148   3.717   3.386  1.5871  1.2982  0.2910
  134CHL1   C1716126   5.064   3.923   3.401  0.1777  0.5202 -0.3261
  134CHL1   H1716127   5.171   3.933   3.430  0.6761 -1.9292 -1.1366
  134CHL1   C1316128   5.047   4.014   3.281 -0.5496 -0.3862  0.5344
  134CHL1   C1816129   4.896   4.010   3.243 -0.0605  0.6885  0.6610
  134CHL1  H18A16130   4.831   4.057   3.320 -0.4682  2.5809 -0.7719
  134CHL1  H18B16131   4.878   4.051   3.141  0.0802  0.1054  0.3949
  134CHL1  H18C16132   4.865   3.903   3.242 -0.3504  0.7017  2.8607
  134CHL1   C1216133   5.084   4.158   3.297  0.7801 -0.0096 -0.5143
  134CHL1  H12A16134   5.009   4.207   3.362 -0.9531 -3.8066  0.6251
  134CHL1  H12B16135   5.180   4.171   3.351  0.0730  1.3073  0.4739
  134CHL1   C1116136   5.082   4.232   3.156 -0.3845  0.1802 -0.6691
  134CHL1  H11A16137   4.975   4.247   3.133 -0.1501  0.3275 -1.7135
  134CHL1  H11B16138   5.119   4.337   3.166  0.2797 -0.2427  2.0915
  134CHL1    C916139   5.164   4.158   3.044 -0.5895 -0.1694 -0.0569
  134CHL1    H916140   5.269   4.172   3.079 -0.3475  0.1522 -0.8959
  134CHL1   C1016141   5.155   4.229   2.907 -0.0064  0.4109  0.1932
  134CHL1   C1916142   5.015   4.281   2.882  0.7830  0.4490  0.2325
  134CHL1  H19A16143   4.945   4.195   2.887  0.4639  0.4896 -2.3432
  134CHL1  H19B16144   4.986   4.353   2.962  0.4640  0.7286 -0.1316
  134CHL1  H19C16145   4.991   4.313   2.778  1.0717 -1.0691 -0.3204
  134CHL1    C116146   5.251   4.348   2.905 -0.5499  0.6841  0.2229
  134CHL1   H1A16147   5.202   4.432   2.959 -1.6491  0.4553 -0.3839
  134CHL1   H1B16148   5.351   4.317   2.941  0.0318 -2.3338 -3.4097
  134CHL1    C216149   5.272   4.402   2.765  0.4849 -0.0773  1.2250
  134CHL1   H2A16150   5.343   4.487   2.768  1.6547 -0.9706  0.0791
  134CHL1   H2B16151   5.179   4.445   2.722  1.1864 -1.2623 -1.7235
  134CHL1   C2016152   4.990   3.947   3.527 -0.1341  0.8027 -0.7959
  134CHL1   H2016153   4.880   3.944   3.510 -0.2066  1.4574 -0.4466
  134CHL1   C2116154   5.035   4.080   3.605 -0.3741  0.3310  0.5016
  134CHL1  H21A16155   4.978   4.096   3.699  0.4477  0.7021  0.9396
  134CHL1  H21B16156   5.024   4.169   3.539 -0.6332 -1.1920 -1.6198
  134CHL1  H21C16157   5.143   4.068   3.626 -0.4820 -0.5303  0.5816
  134CHL1   C2216158   5.008   3.815   3.622  0.0677  0.3882 -0.7980
  134CHL1  H22A16159   4.960   3.725   3.578  2.6508 -0.6223 -1.7500
  134CHL1  H22B16160   5.118   3.805   3.625  0.1917  1.7113 -0.5213
  134CHL1   C2316161   4.946   3.833   3.763 -0.1846  0.4367  0.0215
  134CHL1  H23A16162   5.015   3.901   3.819  0.5298 -0.9131  0.8658
  134CHL1  H23B16163   4.845   3.878   3.756  0.0583  1.0830  0.5878
  134CHL1   C2416164   4.943   3.694   3.836 -0.1068  0.1818 -0.2733
  134CHL1  H24A16165   4.876   3.638   3.769  0.6974 -1.1226 -0.0193
  134CHL1  H24B16166   5.045   3.652   3.827  0.7430  2.3249 -1.5356
  134CHL1   C2516167   4.881   3.706   3.975  0.1806  0.4650  0.0255
  134CHL1   H2516168   4.943   3.779   4.030  2.5578 -0.8478 -0.7693
  134CHL1   C2616169   4.732   3.751   3.976 -0.0902  0.2453 -0.1264
  134CHL1  H26A16170   4.691   3.717   4.074  0.4910 -0.3182 -0.0737
  134CHL1  H26B16171   4.718   3.860   3.957 -2.9967  0.1511  0.8188
  134CHL1  H26C16172   4.681   3.698   3.893  0.5283  1.0671 -1.0429
  134CHL1   C2716173   4.888   3.564   4.037 -0.0078  0.0675 -0.1602
  134CHL1  H27A16174   4.857   3.567   4.144 -0.8963 -2.8876 -0.2283
  134CHL1  H27B16175   4.820   3.501   3.975  0.4936 -0.2069 -0.4328
  134CHL1  H27C16176   4.994   3.533   4.028  0.3911  1.8261 -2.4257
  135CHL1    C316177   5.631   3.154   2.708  0.7874 -0.6401 -0.0720
  135CHL1    H316178   5.668   3.255   2.736 -1.5009 -0.1953  1.6537
  135CHL1    O316179   5.597   3.161   2.563  0.0925  0.4811  0.1996
  135CHL1   H3'16180   5.673   3.139   2.507  0.0031 -2.1802  0.9978
  135CHL1    C416181   5.735   3.044   2.748 -0.4847  1.0850 -0.5742
  135CHL1   H4A16182   5.683   2.948   2.724 -0.8678  0.5650  2.0284
  135CHL1   H4B16183   5.831   3.048   2.693 -0.2469 -1.4655 -0.4408
  135CHL1    C516184   5.764   3.038   2.901 -0.0190  0.1645 -0.5278
  135CHL1    C616185   5.886   3.042   2.965 -0.1169  0.8388 -0.3169
  135CHL1    H616186   5.971   3.053   2.896 -0.7085 -0.3613 -1.2696
  135CHL1    C716187   5.913   3.029   3.117 -0.0983 -0.2382  0.3657
  135CHL1   H7A16188   5.982   2.947   3.148 -0.9948 -0.8746  0.7403
  135CHL1   H7B16189   5.943   3.125   3.162  1.0418  0.0897 -1.0191
  135CHL1    C816190   5.777   2.981   3.190 -0.0498 -0.4120 -0.1955
  135CHL1    H816191   5.765   2.872   3.174  1.9438 -0.8210  0.8277
  135CHL1   C1416192   5.793   3.005   3.342  0.2358  0.5132 -0.5042
  135CHL1   H1416193   5.806   3.115   3.347  0.6414  0.5059 -1.2464
  135CHL1   C1516194   5.913   2.938   3.408  0.0263 -0.6409 -1.0046
  135CHL1  H15A16195   5.910   2.839   3.359 -1.2623 -0.6781 -0.9073
  135CHL1  H15B16196   6.006   2.998   3.396  0.5372 -0.6413  2.0694
  135CHL1   C1616197   5.877   2.939   3.560  0.7041  0.8869 -0.0943
  135CHL1  H16A16198   5.858   2.831   3.581  1.9567  0.9380  1.5765
  135CHL1  H16B16199   5.948   2.982   3.634  0.9599  0.7951 -0.2842
  135CHL1   C1716200   5.728   3.001   3.573 -0.9076  0.6203 -0.3083
  135CHL1   H1716201   5.745   3.111   3.579  0.1607  0.4366  0.4896
  135CHL1   C1316202   5.668   2.975   3.430  0.2000 -0.3461  0.6248
  135CHL1   C1816203   5.612   2.830   3.418 -0.4016 -0.0270 -0.2850
  135CHL1  H18A16204   5.508   2.826   3.456 -0.0961 -2.1425  0.4261
  135CHL1  H18B16205   5.620   2.793   3.313  1.8802  0.7369 -0.4246
  135CHL1  H18C16206   5.675   2.769   3.485 -1.5829  1.5848  2.4369
  135CHL1   C1216207   5.563   3.078   3.384  0.0140 -0.1653  0.8484
  135CHL1  H12A16208   5.473   3.070   3.449  1.3134  1.8562  3.0253
  135CHL1  H12B16209   5.593   3.183   3.405 -1.1117  0.1674  0.8675
  135CHL1   C1116210   5.525   3.055   3.227 -0.1607  0.2241  0.2316
  135CHL1  H11A16211   5.473   2.957   3.226  2.7016 -1.4009 -0.5922
  135CHL1  H11B16212   5.464   3.141   3.191  2.1347  1.9475  0.2008
  135CHL1    C916213   5.659   3.059   3.131 -0.2440 -0.1862 -1.0392
  135CHL1    H916214   5.682   3.167   3.125 -0.0051 -0.2780 -1.9260
  135CHL1   C1016215   5.628   3.027   2.982 -0.1528  0.3443 -0.2096
  135CHL1   C1916216   5.581   2.886   2.974 -0.2381 -0.4970 -0.0225
  135CHL1  H19A16217   5.535   2.874   2.873  0.4396  0.4003 -0.4509
  135CHL1  H19B16218   5.656   2.805   2.986  0.4668 -0.1231 -1.6671
  135CHL1  H19C16219   5.501   2.866   3.048  1.9021 -0.8133  2.3160
  135CHL1    C116220   5.529   3.136   2.935 -0.5031  0.6940 -0.0459
  135CHL1   H1A16221   5.428   3.131   2.981  0.0300  0.3429  1.1203
  135CHL1   H1B16222   5.571   3.233   2.969 -0.3812  0.0531  1.7417
  135CHL1    C216223   5.495   3.136   2.778 -0.2898 -0.1928 -0.9052
  135CHL1   H2A16224   5.421   3.217   2.761 -0.3813 -0.2144 -0.6203
  135CHL1   H2B16225   5.457   3.037   2.742  0.5718 -1.1055  0.5818
  135CHL1   C2016226   5.661   2.955   3.704  0.5352 -0.2090  0.8263
  135CHL1   H2016227   5.661   2.845   3.690  1.3621  0.0038 -1.3033
  135CHL1   C2116228   5.511   2.995   3.704  0.3919  0.1039  0.1098
  135CHL1  H21A16229   5.502   3.103   3.681  2.0729  0.1817 -0.2897
  135CHL1  H21B16230   5.455   2.989   3.800  0.2895  0.7847  0.0974
  135CHL1  H21C16231   5.454   2.934   3.632  0.3173 -0.9877  1.0616
  135CHL1   C2216232   5.726   2.983   3.838 -0.5240  0.3851 -0.1523
  135CHL1  H22A16233   5.687   2.932   3.928  2.0356  0.7949  1.2712
  135CHL1  H22B16234   5.829   2.942   3.835  0.0546  0.9124  4.5587
  135CHL1   C2316235   5.741   3.132   3.877  0.4955 -0.3744  0.0350
  135CHL1  H23A16236   5.767   3.194   3.788 -0.5121 -1.7631 -1.2829
  135CHL1  H23B16237   5.636   3.168   3.888  0.0634 -0.8407 -2.0815
  135CHL1   C2416238   5.836   3.165   3.992  0.1848  0.5813  0.0490
  135CHL1  H24A16239   5.800   3.248   4.056 -0.2815 -0.2808  0.9266
  135CHL1  H24B16240   5.821   3.080   4.063 -1.0184  0.5000 -0.2865
  135CHL1   C2516241   5.987   3.191   3.964 -0.4081  0.4570 -0.1432
  135CHL1   H2516242   6.016   3.121   3.883  0.3570  0.9181 -0.2830
  135CHL1   C2616243   6.009   3.331   3.922  0.3840 -0.2298  0.1471
  135CHL1  H26A16244   5.936   3.372   3.849  0.5314 -0.0850  0.0791
  135CHL1  H26B16245   6.006   3.407   4.003 -0.6912  1.4475 -1.3858
  135CHL1  H26C16246   6.108   3.336   3.871  0.7270 -0.9818  0.7233
  135CHL1   C2716247   6.066   3.165   4.097 -0.5983  0.4100  0.2842
  135CHL1  H27A16248   6.059   3.258   4.158 -0.0341 -1.0369  2.6457
  135CHL1  H27B16249   6.028   3.075   4.149 -0.4452  0.6914  0.9004
  135CHL1  H27C16250   6.172   3.140   4.075 -1.2141 -1.5363 -0.6594
  136CHL1    C316251   4.139   2.259   3.019 -0.4496 -0.4192 -0.8868
  136CHL1    H316252   4.030   2.270   2.996 -0.7078 -1.1689 -0.0801
  136CHL1    O316253   4.190   2.203   2.903  0.2969  0.2810 -0.3870
  136CHL1   H3'16254   4.162   2.264   2.834  0.9762  0.6310 -0.3671
  136CHL1    C416255   4.200   2.400   3.050 -0.7361  0.5033  0.9715
  136CHL1   H4A16256   4.310   2.382   3.054 -0.9577 -0.8316  1.7724
  136CHL1   H4B16257   4.185   2.466   2.962  1.1426  0.0342  0.2569
  136CHL1    C516258   4.155   2.462   3.180  0.3465 -0.5445  0.5187
  136CHL1    C616259   4.092   2.585   3.185 -0.5422 -0.5789  0.2130
  136CHL1    H616260   4.098   2.649   3.095 -1.1592 -1.1110 -0.2203
  136CHL1    C716261   4.049   2.651   3.315 -0.1279 -0.1236  0.6470
  136CHL1   H7A16262   4.068   2.760   3.313 -1.5768  0.1446  0.8157
  136CHL1   H7B16263   3.940   2.638   3.327 -0.0418 -0.6763  0.8548
  136CHL1    C816264   4.124   2.582   3.435 -0.4995  0.6244 -0.1716
  136CHL1    H816265   4.233   2.602   3.422 -0.0088 -2.1971 -1.0721
  136CHL1   C1416266   4.073   2.636   3.571  0.1208 -0.8882 -0.0807
  136CHL1   H1416267   3.963   2.621   3.563 -0.0012 -0.0780  0.0375
  136CHL1   C1516268   4.082   2.784   3.583 -0.2011 -0.6797 -0.0978
  136CHL1  H15A16269   4.177   2.815   3.535 -0.2927 -2.3300 -1.4465
  136CHL1  H15B16270   4.005   2.832   3.518  0.1032 -1.4108 -1.0255
  136CHL1   C1616271   4.065   2.812   3.732 -0.4426  0.6735  0.1718
  136CHL1  H16A16272   4.161   2.855   3.765  1.3752 -0.4611 -3.2116
  136CHL1  H16B16273   3.980   2.876   3.765  1.8770  3.6996  0.6482
  136CHL1   C1716274   4.054   2.667   3.799  0.6161  0.1017  0.1702
  136CHL1   H1716275   3.948   2.637   3.789  0.5830 -0.1300  1.0924
  136CHL1   C1316276   4.122   2.576   3.698 -0.0396  0.0689 -0.3605
  136CHL1   C1816277   4.277   2.592   3.710 -0.0631  0.4007  0.0921
  136CHL1  H18A16278   4.316   2.516   3.781 -0.4735  0.1632  0.0679
  136CHL1  H18B16279   4.320   2.582   3.609 -0.0266  2.3063 -0.1155
  136CHL1  H18C16280   4.299   2.695   3.746 -1.5365  0.5355  0.7040
  136CHL1   C1216281   4.089   2.428   3.688  0.4599 -0.2165 -0.9436
  136CHL1  H12A16282   4.123   2.374   3.778 -1.5863 -2.0029 -1.1468
  136CHL1  H12B16283   3.978   2.433   3.678  0.5793  1.5634 -1.8524
  136CHL1   C1116284   4.152   2.353   3.565  0.3165  0.1528  0.6107
  136CHL1  H11A16285   4.262   2.346   3.580  0.7150  2.6823 -0.6603
  136CHL1  H11B16286   4.108   2.251   3.559  2.4525 -0.7776 -0.2183
  136CHL1    C916287   4.108   2.422   3.434  0.0117 -0.2802  0.0970
  136CHL1    H916288   3.998   2.412   3.426  0.1848 -1.0597 -2.0261
  136CHL1   C1016289   4.173   2.369   3.306 -0.4274 -0.5528 -0.3867
  136CHL1   C1916290   4.326   2.354   3.327 -0.0342 -0.2746  0.6541
  136CHL1  H19A16291   4.366   2.447   3.373 -0.9146  0.9061 -0.9045
  136CHL1  H19B16292   4.348   2.267   3.394 -0.5002 -1.1523 -0.3133
  136CHL1  H19C16293   4.382   2.345   3.232 -1.7797 -0.3828 -0.3940
  136CHL1    C116294   4.118   2.228   3.274  0.6858  0.9609 -0.1986
  136CHL1   H1A16295   4.132   2.155   3.357 -3.0660 -0.1098 -0.3081
  136CHL1   H1B16296   4.007   2.234   3.263  0.8454  1.5943 -1.6173
  136CHL1    C216297   4.164   2.166   3.143  0.7642 -0.4233 -0.6271
  136CHL1   H2A16298   4.116   2.068   3.123  0.0952 -0.4270  0.8368
  136CHL1   H2B16299   4.273   2.142   3.145  0.4703 -1.8403 -0.1284
  136CHL1   C2016300   4.101   2.670   3.947  0.0493  0.2139  0.3384
  136CHL1   H2016301   4.210   2.693   3.944  0.1243 -0.2736 -2.6115
  136CHL1   C2116302   4.061   2.531   3.998 -0.3183  0.4756 -0.0268
  136CHL1  H21A16303   4.134   2.458   3.957 -0.7091 -2.0715  3.2755
  136CHL1  H21B16304   3.965   2.492   3.958  0.2296 -0.2670 -0.6718
  136CHL1  H21C16305   4.067   2.520   4.109  1.1515  0.2497 -0.1153
  136CHL1   C2216306   4.037   2.784   4.035 -0.4194  1.4950  0.0381
  136CHL1  H22A16307   4.067   2.886   4.002  1.2529  0.8252 -0.6295
  136CHL1  H22B16308   3.928   2.771   4.020 -0.2214 -0.8065  0.2972
  136CHL1   C2316309   4.070   2.775   4.189  0.3302  0.3610 -0.7300
  136CHL1  H23A16310   4.010   2.853   4.241  0.9567  0.3854 -0.0221
  136CHL1  H23B16311   4.039   2.678   4.233  0.9537 -0.4616 -2.0252
  136CHL1   C2416312   4.215   2.810   4.242 -0.8333 -0.7226 -0.4802
  136CHL1  H24A16313   4.240   2.750   4.332 -1.6117  0.8827  0.8579
  136CHL1  H24B16314   4.290   2.770   4.170  0.2158 -0.6414  0.5485
  136CHL1   C2516315   4.247   2.966   4.253 -0.2826 -0.3564 -0.0721
  136CHL1   H2516316   4.198   3.011   4.163  1.6573  2.4763  0.1469
  136CHL1   C2616317   4.177   3.021   4.379  0.2391  0.1577 -0.3612
  136CHL1  H26A16318   4.215   2.980   4.476 -0.6397 -0.7317 -0.3793
  136CHL1  H26B16319   4.181   3.132   4.389 -1.9978  0.1306  1.7583
  136CHL1  H26C16320   4.069   2.998   4.364  0.3734 -0.2925 -0.6712
  136CHL1   C2716321   4.399   2.998   4.255 -0.3787 -0.8773 -0.0707
  136CHL1  H27A16322   4.460   2.933   4.189  1.7986  1.7833 -0.8643
  136CHL1  H27B16323   4.415   3.106   4.236 -0.3785 -0.6266  1.2631
  136CHL1  H27C16324   4.436   2.970   4.356  0.8065  0.2755 -0.1533
  137CHL1    C316325   0.745   3.267   3.224 -0.4736 -0.3116 -0.2591
  137CHL1    H316326   0.773   3.166   3.186  3.4974  0.6896 -0.4227
  137CHL1    O316327   0.782   3.350   3.114  0.1989  0.4583  0.0190
  137CHL1   H3'16328   0.767   3.435   3.155 -0.3253 -0.1088  1.0416
  137CHL1    C416329   0.594   3.276   3.268 -0.1878 -0.5842 -0.1698
  137CHL1   H4A16330   0.569   3.384   3.270 -0.1147 -0.5782  0.4499
  137CHL1   H4B16331   0.540   3.242   3.177  0.0875  1.2520 -1.0625
  137CHL1    C516332   0.547   3.201   3.393  0.3622 -0.4342 -0.2634
  137CHL1    C616333   0.445   3.114   3.391  0.2251  0.4177 -0.0062
  137CHL1    H616334   0.392   3.086   3.299 -0.9823  1.3422  0.3847
  137CHL1    C716335   0.405   3.037   3.511  0.3740  0.1422 -0.7911
  137CHL1   H7A16336   0.295   3.024   3.512  0.5050 -1.0235 -0.1427
  137CHL1   H7B16337   0.440   2.933   3.496  0.8350  0.0339  0.8415
  137CHL1    C816338   0.454   3.108   3.638 -0.0687  0.4916  0.5583
  137CHL1    H816339   0.402   3.205   3.652  0.5436  0.6935  1.6060
  137CHL1   C1416340   0.442   3.020   3.759 -0.1364  0.3413  0.1336
  137CHL1   H1416341   0.514   2.937   3.741  0.2347  0.9173 -1.1346
  137CHL1   C1516342   0.299   2.952   3.778  0.4803  0.0929 -0.0627
  137CHL1  H15A16343   0.216   3.023   3.758  0.2687 -0.4916 -1.3790
  137CHL1  H15B16344   0.297   2.866   3.707  3.3976 -0.0925 -0.0666
  137CHL1   C1616345   0.299   2.910   3.924  0.5860  0.2222  0.0712
  137CHL1  H16A16346   0.210   2.945   3.981  1.2172 -0.6855  1.6726
  137CHL1  H16B16347   0.300   2.801   3.942  0.4729  0.0437 -0.9362
  137CHL1   C1716348   0.428   2.972   3.988 -0.1760 -0.1476 -0.2260
  137CHL1   H1716349   0.509   2.896   3.987  0.4424  0.4508  1.0452
  137CHL1   C1316350   0.482   3.079   3.894 -0.2828 -0.1017  0.5482
  137CHL1   C1816351   0.400   3.213   3.915 -0.0095  0.0599  0.1456
  137CHL1  H18A16352   0.291   3.199   3.902  0.4281 -0.7499 -5.6504
  137CHL1  H18B16353   0.416   3.254   4.017  0.2364  2.6271 -0.8514
  137CHL1  H18C16354   0.436   3.289   3.842  2.0877 -0.7327  0.2849
  137CHL1   C1216355   0.634   3.109   3.885  0.6801  0.5878  0.0951
  137CHL1  H12A16356   0.672   3.139   3.985  0.6389 -1.0776  0.6287
  137CHL1  H12B16357   0.682   3.016   3.848 -0.0441  0.7686 -1.4020
  137CHL1   C1116358   0.665   3.201   3.768  0.1530 -0.3706 -0.0141
  137CHL1  H11A16359   0.628   3.303   3.795  0.6626  0.0031 -0.6920
  137CHL1  H11B16360   0.775   3.213   3.760  0.3239 -1.0270  1.1217
  137CHL1    C916361   0.603   3.145   3.633  0.0974 -1.2098  0.9838
  137CHL1    H916362   0.658   3.048   3.626  0.0035 -1.2725  1.1038
  137CHL1   C1016363   0.640   3.230   3.511 -0.0371 -0.6992  0.3874
  137CHL1   C1916364   0.614   3.377   3.549  0.0842  0.3829  0.2711
  137CHL1  H19A16365   0.515   3.388   3.598 -1.0168 -2.2301 -1.1960
  137CHL1  H19B16366   0.692   3.416   3.618  1.6977 -0.8093 -0.8030
  137CHL1  H19C16367   0.614   3.454   3.469 -0.4833  0.9513  0.8068
  137CHL1    C116368   0.793   3.216   3.472 -0.3460  0.2465 -0.2956
  137CHL1   H1A16369   0.862   3.252   3.551  1.7184  1.0647 -2.3617
  137CHL1   H1B16370   0.810   3.108   3.452 -1.2869  0.4858 -2.6392
  137CHL1    C216371   0.842   3.294   3.340 -0.1845  0.8093 -0.0954
  137CHL1   H2A16372   0.944   3.267   3.304 -0.2052 -0.2825  0.5828
  137CHL1   H2B16373   0.840   3.401   3.369  0.8616  1.1123 -1.0861
  137CHL1   C2016374   0.390   3.017   4.138 -0.9195  0.3005 -0.2672
  137CHL1   H2016375   0.294   3.074   4.144  0.6526  3.1189 -0.1942
  137CHL1   C2116376   0.502   3.081   4.215 -0.3256 -0.1003  0.3497
  137CHL1  H21A16377   0.591   3.019   4.240 -0.9604 -0.8765  0.7119
  137CHL1  H21B16378   0.452   3.119   4.307  1.0102  0.6482  0.7910
  137CHL1  H21C16379   0.540   3.165   4.152 -0.5930 -2.5051 -3.3050
  137CHL1   C2216380   0.353   2.888   4.223 -0.3995 -0.4796 -0.3550
  137CHL1  H22A16381   0.288   2.813   4.173 -0.4003 -2.0884  1.9237
  137CHL1  H22B16382   0.448   2.830   4.231  0.2032  0.5203  0.0358
  137CHL1   C2316383   0.286   2.911   4.362  0.0906 -0.9826  0.3043
  137CHL1  H23A16384   0.358   2.961   4.430 -0.8443 -0.3460  0.8575
  137CHL1  H23B16385   0.193   2.972   4.361  0.0139 -1.0667  1.3654
  137CHL1   C2416386   0.249   2.781   4.438 -0.5757 -0.4752  0.1300
  137CHL1  H24A16387   0.166   2.743   4.375  0.1778  1.5452 -2.2406
  137CHL1  H24B16388   0.320   2.696   4.437 -0.2640 -0.2164 -0.8643
  137CHL1   C2516389   0.191   2.790   4.583  0.2463 -0.4105 -0.3323
  137CHL1   H2516390   0.107   2.860   4.565 -1.0084 -2.3159 -2.4835
  137CHL1   C2616391   0.144   2.656   4.630  0.1500  0.5610  0.5151
  137CHL1  H26A16392   0.237   2.596   4.643 -1.8189 -3.3562 -1.8027
  137CHL1  H26B16393   0.085   2.659   4.724  0.9968  1.0143  1.0483
  137CHL1  H26C16394   0.077   2.609   4.556  0.9247 -0.0537  0.1912
  137CHL1   C2716395   0.279   2.859   4.690 -0.3150  0.0057 -0.2676
  137CHL1  H27A16396   0.253   2.845   4.797  3.5072  0.3187  0.8595
  137CHL1  H27B16397   0.384   2.823   4.684  0.2901  1.7155 -0.6116
  137CHL1  H27C16398   0.276   2.969   4.677 -0.5348  0.4160  2.6268
  138CHL1    C316399   5.847   1.564   2.801  0.1842 -0.7971  0.7390
  138CHL1    H316400   5.937   1.629   2.804  0.4633 -1.1554  0.3849
  138CHL1    O316401   5.807   1.515   2.673 -1.2177  0.6833 -0.3784
  138CHL1   H3'16402   5.728   1.461   2.685 -0.7481  0.2393  0.8303
  138CHL1    C416403   5.872   1.443   2.891 -0.1070 -0.6577 -0.0493
  138CHL1   H4A16404   5.788   1.370   2.886 -1.5555  0.9382  0.1651
  138CHL1   H4B16405   5.966   1.400   2.851 -0.2379  0.2648 -1.4101
  138CHL1    C516406   5.889   1.483   3.043  0.1720  0.3021  0.3859
  138CHL1    C616407   6.006   1.468   3.118 -1.0133  0.3732  0.4727
  138CHL1    H616408   6.099   1.433   3.072 -0.6995  1.7945 -0.0286
  138CHL1    C716409   6.022   1.514   3.258 -0.1345 -0.4776  0.1057
  138CHL1   H7A16410   6.074   1.435   3.316 -1.0338 -1.4157 -0.3256
  138CHL1   H7B16411   6.087   1.604   3.254 -1.7944  0.7309 -1.8215
  138CHL1    C816412   5.887   1.546   3.327 -0.3580 -0.3873 -0.6493
  138CHL1    H816413   5.834   1.452   3.351  1.2549 -1.1290  0.1296
  138CHL1   C1416414   5.908   1.631   3.456 -0.5940  0.5801 -0.0870
  138CHL1   H1416415   5.953   1.728   3.424  0.3845 -0.3753 -1.7775
  138CHL1   C1516416   6.010   1.576   3.562 -0.5887 -0.6484 -0.7037
  138CHL1  H15A16417   5.991   1.467   3.564 -2.0374 -0.4348 -1.4988
  138CHL1  H15B16418   6.114   1.594   3.526 -1.1031  0.2509 -1.8000
  138CHL1   C1616419   5.971   1.634   3.688 -1.1413 -0.3603 -0.9686
  138CHL1  H16A16420   5.947   1.555   3.762 -0.7560  1.7230  1.5089
  138CHL1  H16B16421   6.055   1.688   3.738 -1.7870 -1.1034  1.0018
  138CHL1   C1716422   5.847   1.722   3.665  0.2117 -0.1552  0.3681
  138CHL1   H1716423   5.882   1.823   3.633 -2.5945  0.4580 -1.0297
  138CHL1   C1316424   5.784   1.662   3.534 -0.1156  0.5751  0.0583
  138CHL1   C1816425   5.723   1.530   3.583  0.1060  0.7222 -0.2455
  138CHL1  H18A16426   5.774   1.488   3.673  0.0602  0.5554 -0.2971
  138CHL1  H18B16427   5.618   1.546   3.615 -0.4063 -1.1827 -0.8217
  138CHL1  H18C16428   5.732   1.444   3.514 -0.0490 -0.4605  1.1687
  138CHL1   C1216429   5.697   1.749   3.441  0.3473  0.2897  0.9456
  138CHL1  H12A16430   5.599   1.760   3.492 -0.3277  1.4167 -0.4910
  138CHL1  H12B16431   5.740   1.849   3.416 -1.5285  0.9544  0.1685
  138CHL1   C1116432   5.667   1.676   3.313 -0.4798  0.2416 -0.3248
  138CHL1  H11A16433   5.609   1.586   3.344 -3.0563  2.1820  0.9136
  138CHL1  H11B16434   5.597   1.737   3.251 -2.2394 -3.0687 -1.8651
  138CHL1    C916435   5.792   1.627   3.234 -0.0786 -0.5089 -0.2146
  138CHL1    H916436   5.850   1.719   3.211  0.2637 -1.3048 -2.9576
  138CHL1   C1016437   5.769   1.563   3.096  0.1520  0.2737  0.4083
  138CHL1   C1916438   5.652   1.465   3.104  0.6950  0.2810 -0.4439
  138CHL1  H19A16439   5.555   1.500   3.146  0.6217 -0.1938 -0.2155
  138CHL1  H19B16440   5.625   1.413   3.010  2.3699  0.9407 -1.3258
  138CHL1  H19C16441   5.669   1.385   3.179 -2.3444 -0.3051 -0.2339
  138CHL1    C116442   5.743   1.683   2.999  0.6194  0.2595  0.2370
  138CHL1   H1A16443   5.647   1.732   3.028 -0.0964 -1.3307  0.6318
  138CHL1   H1B16444   5.823   1.759   3.007  0.1512  1.1520 -2.3596
  138CHL1    C216445   5.733   1.647   2.848  0.0020  0.0972  0.3229
  138CHL1   H2A16446   5.712   1.746   2.801 -1.8844  0.8998  2.6082
  138CHL1   H2B16447   5.644   1.581   2.836  1.3860 -1.3099 -3.8970
  138CHL1   C2016448   5.769   1.743   3.799  0.1768  0.2315 -0.6098
  138CHL1   H2016449   5.739   1.644   3.840  2.4250 -0.3270 -0.1904
  138CHL1   C2116450   5.637   1.826   3.782 -0.0227  0.4043  0.5873
  138CHL1  H21A16451   5.642   1.911   3.709  0.4993 -0.5885 -0.5797
  138CHL1  H21B16452   5.600   1.856   3.882 -0.4902  1.0440  0.2321
  138CHL1  H21C16453   5.553   1.761   3.751 -0.8630  1.0415  1.4826
  138CHL1   C2216454   5.865   1.803   3.912  0.4189  0.0399 -0.0093
  138CHL1  H22A16455   5.950   1.733   3.925  0.7860  0.7075  1.4196
  138CHL1  H22B16456   5.890   1.910   3.894  0.5090  0.1205  0.5575
  138CHL1   C2316457   5.804   1.817   4.056  0.2385  0.0855 -0.9990
  138CHL1  H23A16458   5.879   1.872   4.116  1.0405 -1.1601 -0.8318
  138CHL1  H23B16459   5.716   1.885   4.070  1.8744  1.7188  2.7580
  138CHL1   C2416460   5.763   1.686   4.127  0.0062  0.0075  0.3634
  138CHL1  H24A16461   5.732   1.609   4.053 -0.0431  0.1769  0.2067
  138CHL1  H24B16462   5.848   1.647   4.186  0.0516  0.4551  0.5989
  138CHL1   C2516463   5.649   1.713   4.231  0.0277 -0.2642  0.2006
  138CHL1   H2516464   5.567   1.767   4.179 -0.9813  0.3348  2.3012
  138CHL1   C2616465   5.587   1.586   4.291  0.1451 -0.4814 -0.6324
  138CHL1  H26A16466   5.577   1.505   4.216  1.7147 -0.0401 -1.3476
  138CHL1  H26B16467   5.644   1.542   4.375 -0.8403  2.3966  1.7291
  138CHL1  H26C16468   5.498   1.598   4.357  2.0040  2.1430  1.6040
  138CHL1   C2716469   5.692   1.803   4.350  0.0460 -0.4814 -0.4438
  138CHL1  H27A16470   5.597   1.859   4.369 -0.7059 -0.9906 -2.4536
  138CHL1  H27B16471   5.716   1.735   4.434 -0.8289 -1.4089 -0.9256
  138CHL1  H27C16472   5.781   1.866   4.331 -0.0447  0.3350  1.5331
  139CHL1    C316473   0.219   5.893   2.813  0.0497  0.9726 -0.0035
  139CHL1    H316474   0.222   5.783   2.832 -0.5464  1.2236  1.7296
  139CHL1    O316475   0.262   5.919   2.687 -0.4875  0.1737  0.2433
  139CHL1   H3'16476   0.248   6.014   2.677  0.9773  0.5687  1.4781
  139CHL1    C416477   0.077   5.950   2.825  0.4168  0.1930  0.8188
  139CHL1   H4A16478   0.086   6.055   2.792  0.3880  0.4177  1.5209
  139CHL1   H4B16479   0.022   5.901   2.741  0.6338  1.7442 -0.2726
  139CHL1    C516480   0.010   5.940   2.961 -0.4993 -0.2815 -0.2379
  139CHL1    C616481  -0.101   5.883   2.970  0.3591 -0.0469  0.0411
  139CHL1    H616482  -0.146   5.839   2.880 -0.7120  0.9997  0.0394
  139CHL1    C716483  -0.172   5.870   3.106 -0.4251 -0.3637  0.8520
  139CHL1   H7A16484  -0.280   5.894   3.095 -0.0895  0.8964  0.0868
  139CHL1   H7B16485  -0.162   5.763   3.134 -1.5785 -0.5144  0.7435
  139CHL1    C816486  -0.119   5.957   3.215 -0.8259 -0.0410 -0.5638
  139CHL1    H816487  -0.149   6.063   3.201 -1.2099  0.0829  0.9567
  139CHL1   C1416488  -0.179   5.916   3.353 -0.2537  0.6195 -0.2600
  139CHL1   H1416489  -0.142   5.813   3.372  0.4534  0.5382 -1.8931
  139CHL1   C1516490  -0.331   5.920   3.370 -0.2445  0.5601  0.1591
  139CHL1  H15A16491  -0.365   6.017   3.326 -0.3675  1.5053  2.2121
  139CHL1  H15B16492  -0.375   5.836   3.312  1.2016  0.9452 -1.5910
  139CHL1   C1616493  -0.336   5.916   3.524  0.5954  0.3063 -0.6651
  139CHL1  H16A16494  -0.393   6.003   3.563 -1.7427  0.0657 -3.2219
  139CHL1  H16B16495  -0.372   5.820   3.566  1.5158  0.4549  0.4913
  139CHL1   C1716496  -0.194   5.925   3.591 -0.4958 -0.3887  0.3852
  139CHL1   H1716497  -0.165   5.821   3.618 -2.2942 -1.5764 -1.8967
  139CHL1   C1316498  -0.113   5.979   3.474 -0.9183 -0.7596  0.9115
  139CHL1   C1816499  -0.126   6.126   3.466 -0.0908 -0.4833  0.3603
  139CHL1  H18A16500  -0.070   6.173   3.550  1.9342 -1.4833 -0.3516
  139CHL1  H18B16501  -0.073   6.156   3.373  0.4483  1.0748  1.1441
  139CHL1  H18C16502  -0.229   6.165   3.456  0.0022 -0.5031 -0.9155
  139CHL1   C1216503   0.040   5.943   3.466  0.4025 -0.2183 -0.2271
  139CHL1  H12A16504   0.083   5.978   3.562 -1.9095 -1.5976  1.4189
  139CHL1  H12B16505   0.036   5.832   3.474 -3.0949 -0.2159 -0.6472
  139CHL1   C1116506   0.109   5.994   3.337 -0.4092  1.0719  0.0527
  139CHL1  H11A16507   0.126   6.104   3.344 -1.3518  1.1186  3.2591
  139CHL1  H11B16508   0.212   5.954   3.329 -0.6316  0.5433 -0.2117
  139CHL1    C916509   0.035   5.944   3.211  1.1721 -0.7387 -0.1839
  139CHL1    H916510   0.044   5.833   3.209 -1.2711 -0.9885 -0.9925
  139CHL1   C1016511   0.094   5.993   3.073  0.6099 -0.1399 -0.8559
  139CHL1   C1916512   0.096   6.148   3.073  0.5098  0.2006  0.6888
  139CHL1  H19A16513  -0.010   6.174   3.091  0.3805 -0.1662  0.4841
  139CHL1  H19B16514   0.165   6.195   3.146  1.6182  0.1136 -0.2766
  139CHL1  H19C16515   0.123   6.193   2.975 -1.3831 -1.6594 -0.7895
  139CHL1    C116516   0.236   5.939   3.059 -0.5755  0.2900 -0.2483
  139CHL1   H1A16517   0.310   5.983   3.130 -0.3427  0.2262 -0.4497
  139CHL1   H1B16518   0.228   5.834   3.095 -2.2060 -0.0199 -1.4237
  139CHL1    C216519   0.302   5.959   2.928 -0.3088 -0.2892  0.7957
  139CHL1   H2A16520   0.409   5.931   2.920  0.0414  1.1176  0.1082
  139CHL1   H2B16521   0.311   6.067   2.903 -1.0179 -0.7309 -1.5135
  139CHL1   C2016522  -0.198   5.998   3.720  0.6776  0.2534 -0.3957
  139CHL1   H2016523  -0.233   6.102   3.702 -0.6992 -0.4248 -1.9072
  139CHL1   C2116524  -0.056   6.012   3.776  0.1369  0.1504 -0.0900
  139CHL1  H21A16525  -0.043   6.052   3.878 -2.4064 -0.3687  0.5308
  139CHL1  H21B16526   0.010   6.082   3.722 -0.1642  2.0000  1.8327
  139CHL1  H21C16527  -0.013   5.909   3.771 -0.2715 -0.1005  1.2169
  139CHL1   C2216528  -0.295   5.934   3.827 -0.1443 -0.2798 -0.0189
  139CHL1  H22A16529  -0.396   5.909   3.786  0.3351  1.4673 -2.5732
  139CHL1  H22B16530  -0.256   5.838   3.866 -0.8060 -0.7671 -0.5341
  139CHL1   C2316531  -0.316   6.031   3.948  1.0695  0.4368 -0.3397
  139CHL1  H23A16532  -0.216   6.039   3.995  1.4107 -0.1138 -0.9653
  139CHL1  H23B16533  -0.335   6.136   3.917 -0.2013 -0.1006 -1.4830
  139CHL1   C2416534  -0.425   5.969   4.035 -0.1904 -0.1869 -0.1490
  139CHL1  H24A16535  -0.511   5.945   3.969 -0.6969  2.3801 -0.5279
  139CHL1  H24B16536  -0.377   5.875   4.071  0.4219 -0.1422 -0.8195
  139CHL1   C2516537  -0.468   6.047   4.162 -0.2961  0.5070 -0.2256
  139CHL1   H2516538  -0.472   6.155   4.135 -1.0459  0.6940  0.5826
  139CHL1   C2616539  -0.600   6.004   4.231 -0.6171  0.2721 -0.0424
  139CHL1  H26A16540  -0.602   5.994   4.341 -3.0193  1.6600  0.1046
  139CHL1  H26B16541  -0.671   6.088   4.214  0.8817  2.0305  1.9369
  139CHL1  H26C16542  -0.643   5.911   4.188  0.2913  0.3095 -1.0649
  139CHL1   C2716543  -0.353   6.037   4.265 -0.1515  0.4986 -0.9846
  139CHL1  H27A16544  -0.388   6.077   4.363 -0.0143  1.4330 -1.3000
  139CHL1  H27B16545  -0.329   5.930   4.280  0.4100  0.7947  0.3759
  139CHL1  H27C16546  -0.260   6.093   4.238  2.6067 -2.2780  1.9342
  140CHL1    C316547   0.325   7.417   3.050  0.3010  0.1940 -0.2318
  140CHL1    H316548   0.410   7.482   3.081  0.2949  0.4049 -0.6446
  140CHL1    O316549   0.326   7.399   2.911 -0.0574  0.3586  0.5082
  140CHL1   H3'16550   0.416   7.370   2.892 -0.6352 -0.5552 -1.0175
  140CHL1    C416551   0.340   7.281   3.124  0.0101 -0.5446 -0.1075
  140CHL1   H4A16552   0.258   7.215   3.089 -1.9624  1.8155 -0.1967
  140CHL1   H4B16553   0.433   7.246   3.074 -0.9460  0.0511 -2.4197
  140CHL1    C516554   0.338   7.293   3.277  0.4417  0.6386  0.2167
  140CHL1    C616555   0.443   7.250   3.353 -0.1011  0.0928  0.6390
  140CHL1    H616556   0.524   7.205   3.293 -1.3518 -1.8097  0.3132
  140CHL1    C716557   0.447   7.252   3.504  0.3003  0.1313  0.5898
  140CHL1   H7A16558   0.468   7.152   3.547  1.2233  0.4201  0.8413
  140CHL1   H7B16559   0.527   7.322   3.536  0.6983 -0.4243  0.8267
  140CHL1    C816560   0.313   7.300   3.569  0.5747 -0.2825  0.0164
  140CHL1    H816561   0.249   7.210   3.576  0.2996 -0.1739 -0.9075
  140CHL1   C1416562   0.329   7.370   3.710  0.1076  0.1106 -0.2503
  140CHL1   H1416563   0.400   7.453   3.689  1.0001 -0.4343  0.5378
  140CHL1   C1516564   0.408   7.297   3.820 -0.8858  0.1985 -0.1819
  140CHL1  H15A16565   0.376   7.191   3.830 -1.2157  0.4875  2.2845
  140CHL1  H15B16566   0.517   7.312   3.804 -0.7596  0.5591  0.9649
  140CHL1   C1616567   0.375   7.369   3.947  0.3425  0.0034  0.0741
  140CHL1  H16A16568   0.327   7.298   4.019 -1.6407  1.5062  0.2979
  140CHL1  H16B16569   0.462   7.409   4.004 -0.3154  1.9482 -0.2292
  140CHL1   C1716570   0.270   7.475   3.901 -0.0302  0.3211 -0.4982
  140CHL1   H1716571   0.334   7.559   3.865  0.4954  0.7498  1.2903
  140CHL1   C1316572   0.201   7.411   3.781 -0.4584  0.2450  0.7325
  140CHL1   C1816573   0.118   7.282   3.818 -0.0523  0.6426  0.9292
  140CHL1  H18A16574   0.170   7.197   3.867 -3.6361 -3.1394 -1.1215
  140CHL1  H18B16575   0.036   7.324   3.880  0.4899  2.6872  0.3221
  140CHL1  H18C16576   0.069   7.238   3.728 -2.1372  1.4941  1.5832
  140CHL1   C1216577   0.124   7.506   3.691 -0.1122 -0.2046  1.0247
  140CHL1  H12A16578   0.025   7.529   3.735 -1.3046  3.0025 -2.7771
  140CHL1  H12B16579   0.179   7.602   3.680 -1.3773  0.5778  1.2802
  140CHL1   C1116580   0.100   7.450   3.547  0.4350 -0.3211 -1.0293
  140CHL1  H11A16581   0.028   7.365   3.545  1.2713 -1.0507 -0.8442
  140CHL1  H11B16582   0.052   7.533   3.490 -0.9476 -0.8557 -0.6699
  140CHL1    C916583   0.233   7.398   3.480  0.5910 -0.2659  0.0960
  140CHL1    H916584   0.293   7.492   3.484  0.8280 -0.2959 -1.7751
  140CHL1   C1016585   0.214   7.359   3.336 -0.4153 -0.5728  0.4277
  140CHL1   C1916586   0.092   7.257   3.323  0.1486  0.2517 -0.2356
  140CHL1  H19A16587  -0.003   7.313   3.335 -1.3480 -2.4739  1.5772
  140CHL1  H19B16588   0.087   7.212   3.221 -0.5413  0.6243 -0.3698
  140CHL1  H19C16589   0.103   7.170   3.390  0.7942  0.9272  0.5457
  140CHL1    C116590   0.185   7.490   3.244  0.2360  0.2963  0.2096
  140CHL1   H1A16591   0.085   7.525   3.275  0.0196 -0.6562  0.6254
  140CHL1   H1B16592   0.260   7.564   3.281 -0.6227  1.1173  0.3394
  140CHL1    C216593   0.185   7.474   3.090 -0.0548 -1.0818 -0.0164
  140CHL1   H2A16594   0.170   7.569   3.034 -0.7322 -1.8985 -1.2631
  140CHL1   H2B16595   0.105   7.405   3.058 -1.0300 -0.2311  0.5479
  140CHL1   C2016596   0.185   7.539   4.013 -0.4814  0.3714 -0.3784
  140CHL1   H2016597   0.098   7.585   3.962 -0.8522 -0.2734 -0.3391
  140CHL1   C2116598   0.265   7.660   4.063  0.0309  0.0777  0.1554
  140CHL1  H21A16599   0.204   7.716   4.137 -1.4735  0.3244 -1.2336
  140CHL1  H21B16600   0.274   7.727   3.975  0.2803 -2.8382 -2.1589
  140CHL1  H21C16601   0.363   7.635   4.110 -0.3491  1.3289  1.7327
  140CHL1   C2216602   0.130   7.457   4.131 -0.1473 -0.4649 -0.0030
  140CHL1  H22A16603   0.098   7.353   4.107  0.9632 -0.8235  0.0113
  140CHL1  H22B16604   0.215   7.457   4.202  1.8097 -0.4576 -2.2213
  140CHL1   C2316605  -0.005   7.519   4.184 -0.1157 -0.0894 -0.0849
  140CHL1  H23A16606   0.028   7.617   4.224  0.7585 -0.8828  1.2247
  140CHL1  H23B16607  -0.075   7.534   4.098 -2.1466  1.3381  1.7205
  140CHL1   C2416608  -0.082   7.420   4.284  0.0684  0.0863  0.1755
  140CHL1  H24A16609  -0.100   7.324   4.231  0.7547 -0.4960  0.9663
  140CHL1  H24B16610  -0.015   7.398   4.370  0.0935 -1.6020 -0.2349
  140CHL1   C2516611  -0.213   7.486   4.343 -0.4117  0.2405  0.0532
  140CHL1   H2516612  -0.264   7.519   4.249 -1.0915 -1.1987 -0.1127
  140CHL1   C2616613  -0.183   7.605   4.429  0.1864  0.3767  0.4519
  140CHL1  H26A16614  -0.116   7.680   4.383 -0.4479  2.7211  3.0755
  140CHL1  H26B16615  -0.273   7.662   4.462  0.9220  2.4644 -0.9628
  140CHL1  H26C16616  -0.128   7.571   4.519 -1.0688 -0.8200  0.8084
  140CHL1   C2716617  -0.299   7.384   4.418 -0.0767  0.6176  0.0672
  140CHL1  H27A16618  -0.329   7.293   4.362 -1.3749 -0.4536  2.3467
  140CHL1  H27B16619  -0.239   7.350   4.505  0.1680 -0.5661 -0.5346
  140CHL1  H27C16620  -0.393   7.430   4.454  0.0609  2.4012 -1.6905
  141DOPC     N16621   3.886   5.150   7.234 -0.3980 -0.0183  0.0595
  141DOPC   C1216622   3.783   5.064   7.307 -0.2376 -0.3572  0.1867
  141DOPC  H12A16623   3.682   5.085   7.275 -0.5246  2.2162  2.3921
  141DOPC  H12B16624   3.783   5.092   7.411 -1.3814 -0.4001  0.2067
  141DOPC   C1316625   4.010   5.154   7.323 -0.1522 -0.0439  0.4470
  141DOPC  H13A16626   4.045   5.056   7.352  2.9824  0.9365  0.3023
  141DOPC  H13B16627   4.094   5.206   7.280 -0.7774 -0.2272 -1.0769
  141DOPC  H13C16628   3.980   5.210   7.410 -2.7557 -1.1482  0.3788
  141DOPC   C1416629   3.843   5.293   7.233  0.0245 -0.3131  0.3875
  141DOPC  H14A16630   3.935   5.346   7.215 -0.6719  0.6189 -0.5995
  141DOPC  H14B16631   3.780   5.306   7.146  0.7326 -1.2498 -0.2961
  141DOPC  H14C16632   3.785   5.329   7.316 -0.3551  0.2805 -0.1255
  141DOPC   C1516633   3.914   5.098   7.093 -0.2052  0.1570  0.0413
  141DOPC  H15A16634   3.825   5.102   7.032  0.2879 -1.1103 -0.7940
  141DOPC  H15B16635   3.958   5.000   7.101  0.0256  0.3919  2.2944
  141DOPC  H15C16636   3.990   5.155   7.042  0.3066 -0.1557  0.4408
  141DOPC   C1116637   3.804   4.910   7.299 -0.2625  0.8411 -0.1221
  141DOPC  H11A16638   3.910   4.900   7.333 -0.5075  1.3819  0.8649
  141DOPC  H11B16639   3.734   4.865   7.372  3.9108 -3.0279  2.0136
  141DOPC     P16640   3.630   4.821   7.137 -0.1624  0.4216  0.4085
  141DOPC   O1316641   3.537   4.925   7.188  0.0842 -0.3208 -0.1513
  141DOPC   O1416642   3.611   4.675   7.177  0.0784 -0.1494 -0.3056
  141DOPC   O1216643   3.779   4.863   7.173 -0.0626  0.7006  0.1606
  141DOPC   O1116644   3.631   4.827   6.976  0.4601 -0.1103 -1.0303
  141DOPC    C116645   3.757   4.811   6.903  0.5419  0.0681 -0.5327
  141DOPC    HA16646   3.816   4.725   6.941 -2.2651 -2.2780 -1.2015
  141DOPC    HB16647   3.825   4.899   6.910  2.8101 -1.5672 -0.9020
  141DOPC    C216648   3.740   4.783   6.751 -0.5008 -0.0123  0.1419
  141DOPC    HS16649   3.840   4.774   6.705  0.2907  1.9129  1.3968
  141DOPC   O2116650   3.664   4.881   6.686 -0.2104 -0.0788 -0.0681
  141DOPC   C2116651   3.731   4.987   6.662  0.3455  0.0420  0.4202
  141DOPC   O2216652   3.846   5.016   6.698  0.3089 -0.7940  0.4246
  141DOPC   C2216653   3.658   5.073   6.555  0.0695  0.6874  0.4535
  141DOPC   H2R16654   3.733   5.148   6.523  2.2749 -1.2865  0.7601
  141DOPC   H2S16655   3.560   5.116   6.586 -0.1052  0.3121  0.4208
  141DOPC    C316656   3.671   4.644   6.729  0.1036  0.5464  0.1894
  141DOPC    HX16657   3.582   4.638   6.795 -0.5222  1.1911 -0.5662
  141DOPC    HY16658   3.744   4.571   6.770  2.0100  0.9568 -2.2579
  141DOPC   O3116659   3.614   4.617   6.593  0.4788 -0.5352 -0.3367
  141DOPC   C3116660   3.711   4.587   6.511  0.4592  0.2791 -0.4100
  141DOPC   O3216661   3.830   4.591   6.535 -0.0831  0.7180 -0.7175
  141DOPC   C3216662   3.652   4.555   6.372  0.2489  0.2779  0.1876
  141DOPC   H2X16663   3.543   4.577   6.377  0.0185 -0.9918  1.4876
  141DOPC   H2Y16664   3.706   4.622   6.302 -0.8516 -0.4818 -1.4685
  141DOPC   C2316665   3.626   4.998   6.422  0.2574 -0.2575 -0.2110
  141DOPC   H3R16666   3.570   5.066   6.354  1.7431  0.0530 -1.1600
  141DOPC   H3S16667   3.561   4.911   6.446  2.5791 -2.3114 -1.0541
  141DOPC   C2416668   3.745   4.947   6.336 -0.5751 -0.8322  0.8364
  141DOPC   H4R16669   3.802   4.873   6.395  0.7224  1.4543  2.6016
  141DOPC   H4S16670   3.806   5.038   6.318 -1.0209 -0.4214  1.3802
  141DOPC   C2516671   3.700   4.894   6.201 -0.6118 -0.2017 -0.5860
  141DOPC   H5R16672   3.592   4.866   6.203 -0.7002  0.1138 -0.9912
  141DOPC   H5S16673   3.760   4.807   6.167  0.1573  0.0121  0.1804
  141DOPC   C2616674   3.716   4.995   6.083 -0.5005  0.4974 -0.1265
  141DOPC   H6R16675   3.820   5.007   6.046 -0.8093  0.5748 -0.9853
  141DOPC   H6S16676   3.697   5.093   6.132  0.5905  0.5454  0.2221
  141DOPC   C2716677   3.626   4.956   5.960 -0.1924  0.2236 -0.2667
  141DOPC   H7R16678   3.515   4.963   5.971 -0.2479  1.3858 -1.2748
  141DOPC   H7S16679   3.650   4.850   5.941  3.7653  1.0313 -0.6145
  141DOPC   C2816680   3.664   5.020   5.829  0.4609 -0.7158  1.0542
  141DOPC   H8R16681   3.608   4.961   5.754  1.5614  2.6573 -2.8156
  141DOPC   H8S16682   3.773   5.006   5.811  0.2457 -0.3844 -0.7757
  141DOPC   C2916683   3.625   5.171   5.816 -0.1315 -0.4029  0.1712
  141DOPC   H9R16684   3.679   5.232   5.891 -0.6453 -0.0603  0.2663
  141DOPC  C21016685   3.542   5.225   5.722  0.3186  0.7824  0.2889
  141DOPC  H10R16686   3.512   5.331   5.716 -1.6563  0.3271  1.3344
  141DOPC  C21116687   3.472   5.147   5.611  0.0063  0.6319  0.4693
  141DOPC  H11R16688   3.372   5.193   5.592  0.6356  2.0095  0.3685
  141DOPC  H11S16689   3.443   5.044   5.638 -2.4264  0.8590 -0.9278
  141DOPC  C21216690   3.553   5.129   5.482  0.2738 -0.0120 -0.2534
  141DOPC  H12R16691   3.656   5.101   5.511  0.0853  1.7684  2.5423
  141DOPC  H12S16692   3.579   5.226   5.434 -0.2907  0.4160  0.2807
  141DOPC  C21316693   3.475   5.043   5.381  0.4195  0.1999 -0.5951
  141DOPC  H13R16694   3.369   5.076   5.379  1.1170  2.8136  0.7021
  141DOPC  H13S16695   3.466   4.938   5.419  0.5730  0.2453 -0.4304
  141DOPC  C21416696   3.540   5.042   5.243 -0.3117  0.0256 -0.1572
  141DOPC  H14R16697   3.648   5.016   5.250 -0.0511  1.3243  0.9099
  141DOPC  H14S16698   3.542   5.146   5.205 -0.9728  0.5571  1.2040
  141DOPC  C21516699   3.476   4.950   5.146  0.5405  0.1747  0.5813
  141DOPC  H15R16700   3.505   4.966   5.041 -2.1516  3.0626  0.1134
  141DOPC  H15S16701   3.365   4.962   5.152  0.3775 -0.6212 -0.4660
  141DOPC  C21616702   3.506   4.805   5.179 -0.0393  0.1545 -0.4472
  141DOPC  H16R16703   3.520   4.791   5.289  1.7591  3.0943 -0.1864
  141DOPC  H16S16704   3.611   4.793   5.145  0.4158  3.2196 -0.4167
  141DOPC  C21716705   3.418   4.702   5.104 -0.3480  0.4262 -0.1579
  141DOPC  H17R16706   3.453   4.701   4.999  1.9711 -1.6939  0.5221
  141DOPC  H17S16707   3.312   4.735   5.105 -0.6702 -0.4089  2.5035
  141DOPC  C21816708   3.432   4.558   5.162  0.2777  0.1336 -0.3298
  141DOPC  H18R16709   3.539   4.537   5.180 -0.3850 -3.0625  0.4964
  141DOPC  H18S16710   3.388   4.479   5.098 -1.4020  0.7115  0.0587
  141DOPC  H18T16711   3.382   4.568   5.261 -2.5028 -1.0368 -1.4932
  141DOPC   C3316712   3.684   4.407   6.333 -0.0563 -0.4922 -0.6643
  141DOPC   H3X16713   3.615   4.334   6.382 -2.3316  0.5301 -2.2055
  141DOPC   H3Y16714   3.791   4.387   6.356 -0.3826 -1.7491 -0.1031
  141DOPC   C3416715   3.664   4.386   6.180 -0.1937  0.5113  0.1444
  141DOPC   H4X16716   3.720   4.294   6.150 -0.2259  1.5655 -3.5926
  141DOPC   H4Y16717   3.721   4.467   6.131  2.1902 -0.4617  1.1580
  141DOPC   C3516718   3.518   4.377   6.121 -0.1129 -0.1650 -0.1432
  141DOPC   H5X16719   3.449   4.425   6.193  1.0831  0.0234  0.9174
  141DOPC   H5Y16720   3.494   4.269   6.130  1.3212 -0.3751  1.9910
  141DOPC   C3616721   3.483   4.417   5.976  0.1505  0.7692 -0.5950
  141DOPC   H6X16722   3.554   4.382   5.898 -0.5618  2.6341 -2.1325
  141DOPC   H6Y16723   3.394   4.354   5.956  0.6583 -2.1887  4.6905
  141DOPC   C3716724   3.447   4.559   5.960  0.9474 -0.7693  0.4150
  141DOPC   H7X16725   3.374   4.588   6.039  0.0995  0.8299 -0.8898
  141DOPC   H7Y16726   3.539   4.620   5.973  0.2376 -0.0836  2.7280
  141DOPC   C3816727   3.387   4.581   5.820 -0.2147 -0.2635 -0.6141
  141DOPC   H8X16728   3.288   4.529   5.821 -0.1910 -0.3475 -1.5562
  141DOPC   H8Y16729   3.451   4.531   5.744  4.0109  0.7228  1.9749
  141DOPC   C3916730   3.375   4.728   5.783 -0.6777 -0.2699 -0.0066
  141DOPC   H9X16731   3.454   4.768   5.718 -1.4192  1.8625  0.3268
  141DOPC  C31016732   3.281   4.816   5.819 -0.2360  1.0875 -0.3053
  141DOPC  H10X16733   3.298   4.921   5.788 -2.0483  1.7649  0.8363
  141DOPC  C31116734   3.153   4.789   5.901 -0.0006  0.0301  0.2867
  141DOPC  H11X16735   3.130   4.879   5.960  0.7692 -1.4189  2.9417
  141DOPC  H11Y16736   3.177   4.712   5.977  1.8485 -1.0094 -1.2536
  141DOPC  C31216737   3.029   4.757   5.810  0.3876  0.3542  0.1079
  141DOPC  H12X16738   3.048   4.655   5.771  1.9978 -0.4544  2.7260
  141DOPC  H12Y16739   3.018   4.826   5.723 -1.9231  0.5412  0.4988
  141DOPC  C31316740   2.895   4.741   5.882  0.6794  0.5381 -0.0182
  141DOPC  H13X16741   2.890   4.688   5.980  0.0937  0.5161 -0.0540
  141DOPC  H13Y16742   2.861   4.842   5.914 -1.1878  0.3779 -1.3162
  141DOPC  C31416743   2.776   4.668   5.810  0.3376 -0.4519  0.4553
  141DOPC  H14X16744   2.794   4.562   5.783 -0.6439 -0.3096 -0.8426
  141DOPC  H14Y16745   2.683   4.659   5.870 -0.3858  0.4838 -0.4862
  141DOPC  C31516746   2.740   4.734   5.671  0.5895  0.4801  0.0971
  141DOPC  H15X16747   2.806   4.718   5.583  0.9755  0.7422  0.3343
  141DOPC  H15Y16748   2.735   4.845   5.680  1.0339  0.4964  0.1381
  141DOPC  C31616749   2.598   4.693   5.633 -0.0885  0.8160  0.3075
  141DOPC  H16X16750   2.600   4.585   5.606 -0.3995  0.9802 -0.3951
  141DOPC  H16Y16751   2.525   4.723   5.711 -0.0476  1.2162  0.1916
  141DOPC  C31716752   2.562   4.756   5.493  0.3437 -0.2660 -0.1465
  141DOPC  H17X16753   2.564   4.866   5.507  0.7512 -0.4796  1.8112
  141DOPC  H17Y16754   2.642   4.731   5.420  1.4778  1.8597  0.2659
  141DOPC  C31816755   2.415   4.711   5.455  0.4802  0.7997 -0.0896
  141DOPC  H18X16756   2.349   4.750   5.535  1.5423  0.7353  0.8464
  141DOPC  H18Y16757   2.389   4.769   5.364 -1.2169 -0.8000 -0.6732
  141DOPC  H18Z16758   2.396   4.605   5.431 -0.5270  0.8950  0.2498
  142DOPC     N16759   6.285   3.919   8.106  0.2763  0.5025  0.2473
  142DOPC   C1216760   6.304   3.891   7.960 -0.0741  0.9533  0.0148
  142DOPC  H12A16761   6.410   3.891   7.937 -0.5031 -1.5259 -2.6760
  142DOPC  H12B16762   6.260   3.975   7.909 -0.1030  0.5894 -0.5824
  142DOPC   C1316763   6.319   3.800   8.188 -0.6365 -0.4443  0.7549
  142DOPC  H13A16764   6.423   3.776   8.173 -0.2755  1.2641  0.2907
  142DOPC  H13B16765   6.302   3.829   8.290 -1.0935  1.2326  0.2441
  142DOPC  H13C16766   6.270   3.707   8.163  0.3783 -0.4005 -1.7094
  142DOPC   C1416767   6.137   3.942   8.138  0.1865 -0.1079  0.4827
  142DOPC  H14A16768   6.123   3.969   8.242 -1.3818 -0.1997  0.3298
  142DOPC  H14B16769   6.098   4.024   8.079  0.6004  0.2879  0.7503
  142DOPC  H14C16770   6.075   3.855   8.122 -3.7676  2.4177  0.6590
  142DOPC   C1516771   6.358   4.043   8.151  0.3267  0.6388 -0.0597
  142DOPC  H15A16772   6.462   4.040   8.123  0.4578 -0.9086  0.4894
  142DOPC  H15B16773   6.339   4.062   8.256 -0.2702  1.1609 -0.2541
  142DOPC  H15C16774   6.305   4.124   8.103 -1.3936 -1.5444 -2.1214
  142DOPC   C1116775   6.243   3.764   7.900 -0.4591 -0.0795 -0.5791
  142DOPC  H11A16776   6.275   3.750   7.794  1.5468 -1.0519  0.1000
  142DOPC  H11B16777   6.288   3.682   7.960 -0.0723  0.2611 -0.4034
  142DOPC     P16778   6.016   3.846   7.782  0.4095  0.2419 -0.0124
  142DOPC   O1316779   6.044   3.986   7.799  0.4540 -0.4158 -0.1747
  142DOPC   O1416780   5.880   3.796   7.799  0.1389  0.6777 -0.6632
  142DOPC   O1216781   6.102   3.770   7.893 -0.7129  0.4414 -0.0535
  142DOPC   O1116782   6.066   3.811   7.641 -0.6425 -0.5513 -1.0092
  142DOPC    C116783   6.047   3.681   7.580 -0.4189  0.3927  0.6588
  142DOPC    HA16784   6.052   3.604   7.660  3.7123  0.7150  0.9342
  142DOPC    HB16785   6.122   3.670   7.499 -0.6409  0.1661  0.4833
  142DOPC    C216786   5.911   3.678   7.499 -0.2112 -0.1881 -0.1306
  142DOPC    HS16787   5.830   3.678   7.575  0.3378 -0.7640  0.4701
  142DOPC   O2116788   5.912   3.560   7.423  0.3657  0.3094 -0.2568
  142DOPC   C2116789   5.800   3.489   7.427  0.1147  0.5838  0.8836
  142DOPC   O2216790   5.701   3.509   7.487 -0.2221  0.2510  0.3740
  142DOPC   C2216791   5.820   3.351   7.363  0.0197 -0.8725  0.0599
  142DOPC   H2R16792   5.787   3.273   7.435 -0.3844  1.0554  2.0719
  142DOPC   H2S16793   5.926   3.338   7.333 -0.4398 -0.9888 -1.6398
  142DOPC    C316794   5.896   3.804   7.414 -0.0719  0.4481  0.0393
  142DOPC    HX16795   5.996   3.822   7.369 -0.2161  0.4067 -0.2946
  142DOPC    HY16796   5.871   3.886   7.484 -0.5710  0.9381 -0.6959
  142DOPC   O3116797   5.794   3.777   7.312  0.3540  0.0480 -0.2532
  142DOPC   C3116798   5.707   3.880   7.291  0.1879 -0.6605  0.8953
  142DOPC   O3216799   5.725   3.997   7.327  0.7129  0.3243 -0.2948
  142DOPC   C3216800   5.574   3.825   7.228 -0.7736  0.1164 -0.4042
  142DOPC   H2X16801   5.610   3.744   7.161  1.4784 -0.0735  0.9368
  142DOPC   H2Y16802   5.517   3.790   7.316 -0.1005  0.5692  0.2350
  142DOPC   C2316803   5.719   3.324   7.252  0.2868  0.0658  0.4342
  142DOPC   H3R16804   5.618   3.313   7.297  0.1352  0.2467  0.1355
  142DOPC   H3S16805   5.752   3.224   7.216 -1.4872 -0.7126  0.8877
  142DOPC   C2416806   5.727   3.415   7.130  0.0639 -0.1947 -0.2078
  142DOPC   H4R16807   5.831   3.451   7.117 -0.4397  1.8047  0.8204
  142DOPC   H4S16808   5.675   3.511   7.148  0.7704  0.1513  0.0351
  142DOPC   C2516809   5.681   3.361   6.997  0.1319  0.3294 -1.0212
  142DOPC   H5R16810   5.580   3.317   7.012  0.8914 -1.2006 -0.1797
  142DOPC   H5S16811   5.758   3.288   6.965  1.9627  2.3131 -1.2935
  142DOPC   C2616812   5.662   3.465   6.890  0.8041 -0.1672 -0.7994
  142DOPC   H6R16813   5.758   3.516   6.866  0.9224  0.9651  1.7116
  142DOPC   H6S16814   5.596   3.541   6.937  1.4927 -1.1261  1.9409
  142DOPC   C2716815   5.594   3.409   6.766  0.0934 -0.1381  1.0050
  142DOPC   H7R16816   5.490   3.385   6.796 -0.4066  0.5901 -0.0572
  142DOPC   H7S16817   5.648   3.317   6.733  1.8343  0.8445  0.9733
  142DOPC   C2816818   5.582   3.504   6.645 -0.0338 -0.3393  0.4532
  142DOPC   H8R16819   5.680   3.550   6.622  0.1160 -1.2671 -0.8941
  142DOPC   H8S16820   5.506   3.585   6.650 -0.8504 -0.7252 -3.2145
  142DOPC   C2916821   5.535   3.418   6.529 -0.8397  0.6793 -0.3985
  142DOPC   H9R16822   5.442   3.364   6.555 -0.8640  1.6333  1.7836
  142DOPC  C21016823   5.587   3.411   6.413  0.1835 -0.0024  0.3477
  142DOPC  H10R16824   5.542   3.336   6.346 -0.8099  0.0068  0.9749
  142DOPC  C21116825   5.701   3.492   6.363  0.0488  0.3216 -0.1229
  142DOPC  H11R16826   5.790   3.464   6.423  0.0236  0.5158  0.0062
  142DOPC  H11S16827   5.677   3.599   6.373  0.9099  0.3317  2.5176
  142DOPC  C21216828   5.741   3.455   6.223 -0.4314  0.5576 -0.3849
  142DOPC  H12R16829   5.798   3.536   6.172  0.7087  0.0036 -0.0438
  142DOPC  H12S16830   5.651   3.429   6.164  1.3459 -0.6740 -2.7043
  142DOPC  C21316831   5.837   3.331   6.200 -0.4338  0.6867  0.0597
  142DOPC  H13R16832   5.794   3.252   6.265  0.3449  0.1671 -0.0350
  142DOPC  H13S16833   5.938   3.355   6.239  0.2106 -1.9207  0.2105
  142DOPC  C21416834   5.848   3.297   6.049 -0.3189  0.5827 -0.0796
  142DOPC  H14R16835   5.747   3.317   6.006 -0.1008 -0.1129 -0.9735
  142DOPC  H14S16836   5.874   3.189   6.037 -0.4201 -0.0030  3.7037
  142DOPC  C21516837   5.953   3.387   5.990 -0.1316 -0.4250 -0.0707
  142DOPC  H15R16838   6.056   3.345   5.995 -0.1389 -0.5767 -1.0165
  142DOPC  H15S16839   5.968   3.477   6.053  2.5283 -0.8988  0.0667
  142DOPC  C21616840   5.922   3.423   5.842 -0.1089  0.3059 -0.7723
  142DOPC  H16R16841   5.833   3.489   5.837 -0.0726  0.4494  0.2469
  142DOPC  H16S16842   5.905   3.325   5.792 -0.4194  0.6767 -1.3955
  142DOPC  C21716843   6.034   3.488   5.766  0.2797 -0.3186  0.4064
  142DOPC  H17R16844   6.129   3.431   5.765  0.9531  0.7460 -1.2470
  142DOPC  H17S16845   6.049   3.583   5.822 -1.8745 -0.3734  1.1617
  142DOPC  C21816846   5.990   3.511   5.622  0.4127 -0.2358  0.4179
  142DOPC  H18R16847   6.064   3.577   5.572  1.7092 -0.8300  1.4789
  142DOPC  H18S16848   5.890   3.559   5.613  0.2143 -0.2643  2.0615
  142DOPC  H18T16849   5.985   3.417   5.563  0.9647 -0.0222  0.0219
  142DOPC   C3316850   5.481   3.918   7.154  0.1220 -0.6834 -0.5384
  142DOPC   H3X16851   5.491   4.018   7.202 -1.0150 -0.6039 -0.4282
  142DOPC   H3Y16852   5.374   3.899   7.179  0.0099  0.1329 -0.3642
  142DOPC   C3416853   5.505   3.941   7.007 -0.3458  0.5614 -0.5396
  142DOPC   H4X16854   5.478   3.846   6.955  3.5051 -0.3967 -1.0797
  142DOPC   H4Y16855   5.613   3.937   6.982 -0.0788  0.4414  0.5940
  142DOPC   C3516856   5.430   4.056   6.937  0.9234  0.0197 -0.0455
  142DOPC   H5X16857   5.462   4.143   6.999 -0.0541  0.5617 -0.2791
  142DOPC   H5Y16858   5.325   4.035   6.965  1.1470 -1.4442 -0.2316
  142DOPC   C3616859   5.461   4.084   6.794 -0.1400  0.9212 -0.3033
  142DOPC   H6X16860   5.572   4.084   6.800 -0.0681 -3.0681  1.0543
  142DOPC   H6Y16861   5.435   4.004   6.722 -0.5224  2.1981 -1.6509
  142DOPC   C3716862   5.410   4.222   6.755  0.1492 -0.3229 -0.4546
  142DOPC   H7X16863   5.300   4.214   6.767  0.3170 -3.7151 -0.0941
  142DOPC   H7Y16864   5.445   4.293   6.833 -1.0507 -1.1749  0.8935
  142DOPC   C3816865   5.447   4.275   6.615 -0.4396  0.5744 -0.5438
  142DOPC   H8X16866   5.558   4.265   6.607 -0.5132  0.2407 -1.2659
  142DOPC   H8Y16867   5.424   4.384   6.610 -1.1229  0.4307 -0.5373
  142DOPC   C3916868   5.392   4.186   6.508 -0.1187  0.3089  0.2334
  142DOPC   H9X16869   5.320   4.107   6.532 -0.6040  0.2598 -1.2496
  142DOPC  C31016870   5.406   4.208   6.378  0.4409  0.2119  0.1827
  142DOPC  H10X16871   5.353   4.132   6.318 -0.2905 -0.3434  1.4849
  142DOPC  C31116872   5.474   4.322   6.314 -0.9385 -0.2831  0.2099
  142DOPC  H11X16873   5.574   4.291   6.278 -0.4985 -1.1398  2.0829
  142DOPC  H11Y16874   5.478   4.397   6.395 -1.6732  0.6770 -0.6108
  142DOPC  C31216875   5.397   4.375   6.202  0.3503  0.2654 -0.1421
  142DOPC  H12X16876   5.443   4.473   6.178  1.6272  0.1717  1.7524
  142DOPC  H12Y16877   5.301   4.408   6.247  0.4934  2.4800 -1.3013
  142DOPC  C31316878   5.385   4.289   6.073  0.4044 -0.0408 -0.5975
  142DOPC  H13X16879   5.334   4.194   6.099  1.0973 -1.4624 -3.8320
  142DOPC  H13Y16880   5.305   4.340   6.015 -0.7477  0.9210  1.7273
  142DOPC  C31416881   5.520   4.262   6.005 -0.1582 -0.2122  0.5836
  142DOPC  H14X16882   5.571   4.360   5.993 -0.1090 -0.4004 -0.8359
  142DOPC  H14Y16883   5.578   4.194   6.071 -1.7314 -2.7391 -0.4787
  142DOPC  C31516884   5.515   4.189   5.867 -0.6267  0.6310 -0.1664
  142DOPC  H15X16885   5.450   4.101   5.885  1.0380 -0.3465  1.4015
  142DOPC  H15Y16886   5.621   4.163   5.844 -0.3005 -0.7834  2.5874
  142DOPC  C31616887   5.450   4.278   5.755 -0.4100 -0.2908 -0.2114
  142DOPC  H16X16888   5.344   4.299   5.779 -0.9887 -2.1365 -0.9964
  142DOPC  H16Y16889   5.512   4.369   5.740 -0.8574 -0.1768 -1.4647
  142DOPC  C31716890   5.431   4.208   5.616  0.8983 -0.0057 -0.7779
  142DOPC  H17X16891   5.371   4.282   5.559 -0.0911 -1.0396 -1.1174
  142DOPC  H17Y16892   5.528   4.194   5.564  0.6412  0.8688 -1.5268
  142DOPC  C31816893   5.341   4.078   5.623  0.5578 -0.4265  0.2834
  142DOPC  H18X16894   5.325   4.040   5.520 -1.4603 -0.7648  0.6696
  142DOPC  H18Y16895   5.380   3.996   5.685  1.7199  0.5744  0.9204
  142DOPC  H18Z16896   5.247   4.118   5.667 -1.8934 -2.1701 -2.9222
  143DOPC     N16897   2.355   4.617   6.446 -0.3445  0.5011  0.0657
  143DOPC   C1216898   2.506   4.603   6.449  0.1597  0.3725 -0.7184
  143DOPC  H12A16899   2.550   4.690   6.403  0.3398  0.2971 -0.6905
  143DOPC  H12B16900   2.524   4.517   6.386  0.7700 -1.5615  1.9454
  143DOPC   C1316901   2.309   4.718   6.542 -0.4162  0.0909 -0.1511
  143DOPC  H13A16902   2.202   4.729   6.550 -0.1116  4.2135  0.8230
  143DOPC  H13B16903   2.350   4.712   6.641  2.3807 -1.3583 -1.2667
  143DOPC  H13C16904   2.342   4.815   6.505 -0.6500 -1.0006 -3.5961
  143DOPC   C1416905   2.289   4.489   6.481  0.2333  0.5336 -0.3419
  143DOPC  H14A16906   2.328   4.412   6.417 -2.0732  0.6073 -1.9519
  143DOPC  H14B16907   2.334   4.467   6.577  0.7353  0.9156 -0.4828
  143DOPC  H14C16908   2.181   4.485   6.483  0.2156  0.9091 -0.3943
  143DOPC   C1516909   2.302   4.654   6.312  0.5943 -0.4058  0.4636
  143DOPC  H15A16910   2.352   4.738   6.265 -2.9902  1.2856 -0.6789
  143DOPC  H15B16911   2.199   4.685   6.325  0.1998 -0.1309 -2.5374
  143DOPC  H15C16912   2.298   4.576   6.238 -2.9235 -1.5352  1.6552
  143DOPC   C1116913   2.580   4.566   6.578 -0.1302 -0.1334 -0.4931
  143DOPC  H11A16914   2.688   4.564   6.551 -0.0359 -2.6928 -0.2230
  143DOPC  H11B16915   2.562   4.638   6.660 -1.4671  0.3718 -1.1940
  143DOPC     P16916   2.612   4.294   6.580 -0.5572 -0.5379 -0.0479
  143DOPC   O1316917   2.499   4.200   6.595 -0.8608 -0.1477 -0.1922
  143DOPC   O1416918   2.728   4.273   6.664  0.0658 -0.8914  0.1460
  143DOPC   O1216919   2.549   4.436   6.620  0.7869  0.0359  0.5802
  143DOPC   O1116920   2.652   4.303   6.428 -0.4838 -0.0852  0.2611
  143DOPC    C116921   2.714   4.184   6.366 -0.1418  0.1571 -0.4149
  143DOPC    HA16922   2.679   4.089   6.411  0.0251 -0.5043 -1.6383
  143DOPC    HB16923   2.822   4.180   6.390 -0.1138 -0.5250 -0.6346
  143DOPC    C216924   2.697   4.191   6.209  0.6510 -0.1431  0.2430
  143DOPC    HS16925   2.597   4.150   6.181  1.3591 -1.5909 -0.2191
  143DOPC   O2116926   2.800   4.116   6.135 -0.3309 -0.2819 -0.8817
  143DOPC   C2116927   2.784   3.983   6.145  0.4569  1.1011  0.5313
  143DOPC   O2216928   2.696   3.925   6.208 -0.4817  0.9756  0.1389
  143DOPC   C2216929   2.895   3.918   6.058  0.0083 -0.6247  0.3551
  143DOPC   H2R16930   2.987   3.898   6.118  1.4380 -1.7475 -2.0561
  143DOPC   H2S16931   2.921   3.985   5.974  1.7819 -0.7229  0.7871
  143DOPC    C316932   2.709   4.338   6.156 -0.2102  0.0969  0.0406
  143DOPC    HX16933   2.817   4.364   6.163 -0.5579  3.3077 -3.3795
  143DOPC    HY16934   2.650   4.401   6.226 -0.3322 -1.1516  1.1104
  143DOPC   O3116935   2.668   4.352   6.021 -0.8279  0.4431 -0.0410
  143DOPC   C3116936   2.543   4.368   5.999  0.1504 -0.6000 -1.1943
  143DOPC   O3216937   2.455   4.361   6.088  0.1000 -0.1640 -0.5266
  143DOPC   C3216938   2.518   4.381   5.849  0.7305  0.5759  0.2937
  143DOPC   H2X16939   2.582   4.460   5.804  0.8657  0.2568 -0.0821
  143DOPC   H2Y16940   2.528   4.279   5.806  0.8401  0.9552 -0.6002
  143DOPC   C2316941   2.863   3.783   6.002  0.6835  0.5194  0.2210
  143DOPC   H3R16942   2.929   3.759   5.916 -1.5048 -0.0353 -1.4077
  143DOPC   H3S16943   2.756   3.768   5.975  0.2209 -1.1858  2.6266
  143DOPC   C2416944   2.916   3.670   6.105 -0.3723 -0.6825  0.0804
  143DOPC   H4R16945   2.861   3.675   6.201  1.7729 -1.7884  1.4271
  143DOPC   H4S16946   3.024   3.690   6.121 -0.2944  0.6211 -1.7278
  143DOPC   C2516947   2.901   3.523   6.048  0.1268  0.0374  0.3872
  143DOPC   H5R16948   2.947   3.525   5.947  0.4635  2.2916  0.5240
  143DOPC   H5S16949   2.792   3.513   6.029  0.2437  1.3187 -1.0956
  143DOPC   C2616950   2.964   3.412   6.139  0.3588 -0.1691 -0.3732
  143DOPC   H6R16951   2.926   3.429   6.242  0.3276  4.9022 -0.9866
  143DOPC   H6S16952   3.074   3.422   6.144  0.5918 -1.5511 -1.9733
  143DOPC   C2716953   2.922   3.279   6.093  0.2501 -0.4774  0.5183
  143DOPC   H7R16954   2.970   3.272   5.992 -1.9847 -0.5244 -0.5888
  143DOPC   H7S16955   2.813   3.269   6.078  0.2256  0.5069  0.0119
  143DOPC   C2816956   2.986   3.156   6.172 -0.0250 -0.0682  0.4188
  143DOPC   H8R16957   3.094   3.177   6.158  0.4991  0.2756  3.9720
  143DOPC   H8S16958   2.956   3.064   6.118 -2.4508  0.2905  1.0477
  143DOPC   C2916959   2.954   3.153   6.318 -0.6010 -0.0926  0.0024
  143DOPC   H9R16960   2.851   3.122   6.344 -0.3201 -0.7186  0.3965
  143DOPC  C21016961   3.041   3.172   6.421  0.9351  0.2754 -0.2436
  143DOPC  H10R16962   2.993   3.185   6.520  1.6138  0.9265  0.0097
  143DOPC  C21116963   3.192   3.199   6.410 -0.3412 -1.1989 -0.8760
  143DOPC  H11R16964   3.223   3.184   6.304 -2.2072 -2.3772 -1.2919
  143DOPC  H11S16965   3.248   3.121   6.466 -1.4656 -0.0061  2.1380
  143DOPC  C21216966   3.250   3.333   6.461  0.3205 -0.2310  0.3946
  143DOPC  H12R16967   3.207   3.352   6.562 -0.3109 -0.0950  0.1039
  143DOPC  H12S16968   3.212   3.414   6.396 -2.8485 -2.4186 -0.6938
  143DOPC  C21316969   3.403   3.344   6.469 -0.3437 -0.0905 -0.6583
  143DOPC  H13R16970   3.448   3.341   6.367  0.6345 -0.5702 -0.2286
  143DOPC  H13S16971   3.447   3.256   6.520 -0.8349 -0.7714 -1.3908
  143DOPC  C21416972   3.446   3.483   6.529  0.0999 -0.2735 -0.2745
  143DOPC  H14R16973   3.399   3.498   6.628  0.1613 -3.4568  0.3561
  143DOPC  H14S16974   3.411   3.555   6.452  0.2037 -1.2863 -1.3046
  143DOPC  C21516975   3.603   3.493   6.530 -0.3362 -0.5452 -0.0578
  143DOPC  H15R16976   3.632   3.456   6.429 -1.4032 -1.1046 -0.1787
  143DOPC  H15S16977   3.644   3.427   6.609  0.4205  0.1859  0.1668
  143DOPC  C21616978   3.646   3.632   6.554 -0.5017  0.2326  0.0527
  143DOPC  H16R16979   3.585   3.708   6.500 -0.3858  1.0525  1.0512
  143DOPC  H16S16980   3.752   3.646   6.524 -0.0335  1.1162  1.9288
  143DOPC  C21716981   3.637   3.659   6.709  0.1007 -0.0950 -0.3045
  143DOPC  H17R16982   3.702   3.587   6.763 -0.1647 -0.1862 -0.1076
  143DOPC  H17S16983   3.531   3.655   6.743 -0.3488  0.2717 -1.6024
  143DOPC  C21816984   3.692   3.800   6.742 -0.9344 -0.3875  0.4624
  143DOPC  H18R16985   3.677   3.826   6.849 -0.0257 -0.0312  0.5104
  143DOPC  H18S16986   3.629   3.871   6.685  1.9398  2.1464  0.1757
  143DOPC  H18T16987   3.797   3.796   6.706 -0.9014 -0.9045  0.5932
  143DOPC   C3316988   2.365   4.418   5.822 -0.1642  0.2269  0.3395
  143DOPC   H3X16989   2.358   4.529   5.818  0.3563  0.2460 -0.2883
  143DOPC   H3Y16990   2.299   4.386   5.905  2.8793  0.1602  2.9360
  143DOPC   C3416991   2.317   4.365   5.678  0.1815  0.1729 -0.0438
  143DOPC   H4X16992   2.404   4.382   5.612  0.9629  0.5305  1.0590
  143DOPC   H4Y16993   2.227   4.421   5.644  1.1346  1.1559 -1.0250
  143DOPC   C3516994   2.276   4.216   5.670  0.0477 -0.2871  0.0587
  143DOPC   H5X16995   2.353   4.148   5.713 -0.1939 -1.1794 -0.8570
  143DOPC   H5Y16996   2.269   4.194   5.561  1.6602 -1.3739  0.1265
  143DOPC   C3616997   2.151   4.178   5.753  0.2100  0.1607 -0.4852
  143DOPC   H6X16998   2.178   4.204   5.858  0.1433 -0.6042 -0.2783
  143DOPC   H6Y16999   2.068   4.242   5.717  2.1980  1.9456 -2.2055
  143DOPC   C3717000   2.125   4.025   5.759 -0.4168  0.1722  0.0030
  143DOPC   H7X17001   2.106   3.974   5.662  0.1086 -2.1465  1.0515
  143DOPC   H7Y17002   2.224   3.984   5.789  0.5222 -0.6433 -3.6616
  143DOPC   C3817003   2.020   3.989   5.863  0.1226 -0.4029 -0.1091
  143DOPC   H8X17004   1.943   4.069   5.860  1.0956  0.5430 -3.1402
  143DOPC   H8Y17005   2.070   4.005   5.961  0.1727  2.5636 -0.5480
  143DOPC   C3917006   1.963   3.852   5.842  0.1809 -0.3839 -0.3194
  143DOPC   H9X17007   2.027   3.777   5.891 -0.0047 -0.9336 -0.9088
  143DOPC  C31017008   1.842   3.806   5.801 -0.5437 -0.0523 -0.3641
  143DOPC  H10X17009   1.827   3.699   5.818  0.3851  0.2436  3.0843
  143DOPC  C31117010   1.728   3.896   5.768 -0.1223  0.0218 -0.4020
  143DOPC  H11X17011   1.719   3.983   5.836 -2.4178 -0.3723 -0.1469
  143DOPC  H11Y17012   1.632   3.842   5.776 -0.7405  1.0433 -0.7306
  143DOPC  C31217013   1.742   3.948   5.625  0.2963  0.4270  0.1118
  143DOPC  H12X17014   1.743   3.863   5.552  0.3373  2.1120 -1.9371
  143DOPC  H12Y17015   1.837   4.001   5.607  1.0027 -0.5400  0.8781
  143DOPC  C31317016   1.622   4.036   5.579 -0.0028 -0.2610 -0.1022
  143DOPC  H13X17017   1.533   3.973   5.601  1.2382 -2.3179 -0.6369
  143DOPC  H13Y17018   1.609   4.125   5.644  0.4511  1.1781 -1.9240
  143DOPC  C31417019   1.622   4.077   5.431  0.4040 -0.1213 -0.1000
  143DOPC  H14X17020   1.705   4.147   5.409 -2.1983  2.8847 -1.0237
  143DOPC  H14Y17021   1.637   3.985   5.370 -1.1335  1.0543 -2.3729
  143DOPC  C31517022   1.488   4.143   5.388  0.1464 -0.5195  0.1004
  143DOPC  H15X17023   1.504   4.248   5.421  0.2342  0.1614 -1.9665
  143DOPC  H15Y17024   1.406   4.093   5.445  0.7531  0.6840  2.1306
  143DOPC  C31617025   1.467   4.157   5.247  0.2421 -0.7118  0.1967
  143DOPC  H16X17026   1.561   4.189   5.198 -0.1571 -2.2716 -1.6684
  143DOPC  H16Y17027   1.455   4.063   5.189  1.3563  0.1407 -1.4919
  143DOPC  C31717028   1.349   4.251   5.214  0.0138 -0.0135  0.5301
  143DOPC  H17X17029   1.255   4.196   5.236  0.0859 -0.2040  0.3631
  143DOPC  H17Y17030   1.345   4.342   5.278  0.6953 -0.4266  1.1910
  143DOPC  C31817031   1.336   4.299   5.069 -0.2135 -0.1019 -0.6500
  143DOPC  H18X17032   1.414   4.376   5.048 -0.5034  0.4066  0.0711
  143DOPC  H18Y17033   1.343   4.219   4.993  2.5166 -0.9914  0.4261
  143DOPC  H18Z17034   1.238   4.351   5.057 -0.8425 -0.0542  3.3614
  144DOPC     N17035   1.939   2.548   6.762  0.2397 -0.3009 -0.0778
  144DOPC   C1217036   2.083   2.550   6.818  0.0401  0.3562 -0.4850
  144DOPC  H12A17037   2.082   2.486   6.905  2.6043 -2.2171 -2.1798
  144DOPC  H12B17038   2.113   2.648   6.854  1.5110 -0.1224 -0.3625
  144DOPC   C1317039   1.847   2.580   6.873 -0.2211 -0.8383 -0.4651
  144DOPC  H13A17040   1.820   2.495   6.933 -0.1812 -0.0286  0.7202
  144DOPC  H13B17041   1.881   2.671   6.920 -1.4210  0.2775 -1.6703
  144DOPC  H13C17042   1.756   2.614   6.826  0.7444  1.7765 -0.6082
  144DOPC   C1417043   1.914   2.410   6.707 -0.6025 -0.0769  0.5856
  144DOPC  H14A17044   1.960   2.406   6.609  0.0042 -0.1914  0.8741
  144DOPC  H14B17045   1.956   2.322   6.753  0.3276  0.0065 -0.0779
  144DOPC  H14C17046   1.807   2.398   6.691 -0.3923 -1.3506 -0.0418
  144DOPC   C1517047   1.920   2.661   6.664  0.2409 -0.4135 -0.0588
  144DOPC  H15A17048   1.938   2.756   6.712  0.1192 -0.8940  0.9751
  144DOPC  H15B17049   1.826   2.657   6.612  0.3796 -2.7162 -0.2263
  144DOPC  H15C17050   1.998   2.651   6.589 -1.1928 -0.2997 -1.6165
  144DOPC   C1117051   2.200   2.503   6.738  0.1084 -0.2558 -0.9499
  144DOPC  H11A17052   2.182   2.395   6.719 -0.2967 -0.4144  0.2623
  144DOPC  H11B17053   2.200   2.558   6.641 -0.6874 -0.8032 -1.2643
  144DOPC     P17054   2.402   2.380   6.856  0.2120 -0.0016 -0.0467
  144DOPC   O1317055   2.313   2.285   6.931  0.0202 -0.4027  0.4179
  144DOPC   O1417056   2.526   2.411   6.925 -0.0648  0.0171 -0.1242
  144DOPC   O1217057   2.320   2.517   6.823 -0.2482  0.1474  0.4797
  144DOPC   O1117058   2.429   2.318   6.720  0.5189  0.3664 -0.5351
  144DOPC    C117059   2.488   2.381   6.601 -0.1540  0.0851 -0.1412
  144DOPC    HA17060   2.547   2.471   6.629  0.4057  0.2760 -1.8224
  144DOPC    HB17061   2.411   2.432   6.540  1.1604  3.3221  0.7007
  144DOPC    C217062   2.559   2.276   6.509 -0.2530 -0.2502  0.7455
  144DOPC    HS17063   2.583   2.329   6.414  2.0087 -0.0592  1.3529
  144DOPC   O2117064   2.473   2.163   6.481  0.1893  0.2159  0.1435
  144DOPC   C2117065   2.373   2.183   6.398  0.8665  0.0257  1.0909
  144DOPC   O2217066   2.341   2.286   6.343  0.5016 -0.1054 -0.3783
  144DOPC   C2217067   2.305   2.048   6.371 -0.7768  0.0305 -0.2250
  144DOPC   H2R17068   2.201   2.055   6.408 -1.1010 -0.5287 -0.9974
  144DOPC   H2S17069   2.354   1.968   6.429  0.9264  0.9071 -0.3920
  144DOPC    C317070   2.690   2.229   6.570 -0.2147 -0.3853  0.5474
  144DOPC    HX17071   2.690   2.194   6.676  1.3665 -2.0202  0.0544
  144DOPC    HY17072   2.747   2.323   6.588 -0.8941 -0.0505  1.0282
  144DOPC   O3117073   2.768   2.140   6.487  0.0021 -0.1087 -0.3311
  144DOPC   C3117074   2.731   2.006   6.494 -0.3387  0.1586 -0.4013
  144DOPC   O3217075   2.646   1.966   6.571  0.2446  0.0229 -0.7378
  144DOPC   C3217076   2.813   1.928   6.397  0.0497 -0.0814  0.2352
  144DOPC   H2X17077   2.891   1.993   6.352 -0.4438 -0.3527 -1.0565
  144DOPC   H2Y17078   2.860   1.850   6.461 -0.7468  0.9309  2.1374
  144DOPC   C2317079   2.292   2.017   6.225 -0.9631  0.8744  0.9371
  144DOPC   H3R17080   2.390   1.998   6.178 -1.9081 -1.7545 -0.1889
  144DOPC   H3S17081   2.239   2.107   6.188  1.3362  1.7202 -0.4740
  144DOPC   C2417082   2.205   1.897   6.197  0.3112 -0.0227  1.5072
  144DOPC   H4R17083   2.106   1.914   6.243 -0.9751  1.5699 -1.5329
  144DOPC   H4S17084   2.248   1.802   6.236  2.5746 -1.0983 -2.9060
  144DOPC   C2517085   2.179   1.867   6.050 -0.3319 -0.0573  0.6962
  144DOPC   H5R17086   2.125   1.953   6.006 -0.4005  0.0613  1.0075
  144DOPC   H5S17087   2.120   1.773   6.041  1.2847 -0.9217 -2.3802
  144DOPC   C2617088   2.309   1.848   5.980 -0.3654 -0.6521 -1.0531
  144DOPC   H6R17089   2.379   1.783   6.037  0.2392  0.1872 -0.8225
  144DOPC   H6S17090   2.353   1.948   5.964 -0.1806 -0.5461  0.0175
  144DOPC   C2717091   2.298   1.798   5.837  0.0256 -0.0660  0.0026
  144DOPC   H7R17092   2.230   1.870   5.786 -0.4913 -2.1788 -2.5689
  144DOPC   H7S17093   2.252   1.697   5.837  1.3422 -0.6841  0.4854
  144DOPC   C2817094   2.434   1.788   5.758 -0.3045  0.0929 -0.7377
  144DOPC   H8R17095   2.500   1.712   5.805 -0.6817  0.4326  0.3808
  144DOPC   H8S17096   2.480   1.889   5.767  1.1595 -0.6371  0.3603
  144DOPC   C2917097   2.394   1.746   5.618  0.3123  0.3218  0.0953
  144DOPC   H9R17098   2.373   1.639   5.605  0.3450  0.4397 -1.1238
  144DOPC  C21017099   2.394   1.826   5.506  0.1924 -0.0808  0.1847
  144DOPC  H10R17100   2.349   1.778   5.417 -0.5159  0.5745  0.1759
  144DOPC  C21117101   2.425   1.975   5.511 -0.0777 -0.4713  0.3020
  144DOPC  H11R17102   2.534   1.988   5.523 -0.0109 -2.3773  2.4445
  144DOPC  H11S17103   2.377   2.024   5.599  1.3080 -1.3912  1.6265
  144DOPC  C21217104   2.382   2.055   5.387  0.7389  0.7547 -0.8878
  144DOPC  H12R17105   2.275   2.032   5.366  0.2533  2.0690  0.0057
  144DOPC  H12S17106   2.445   2.019   5.303  0.5754  0.6236 -0.9542
  144DOPC  C21317107   2.384   2.212   5.383 -0.3686 -0.1795  0.3598
  144DOPC  H13R17108   2.344   2.234   5.281 -2.0836 -1.8425  0.6083
  144DOPC  H13S17109   2.489   2.248   5.386 -1.0406  1.8102  1.0423
  144DOPC  C21417110   2.307   2.280   5.496 -0.3759 -0.5652 -0.4715
  144DOPC  H14R17111   2.296   2.386   5.465 -1.2329 -0.7769 -0.9090
  144DOPC  H14S17112   2.367   2.277   5.589 -2.2988 -1.1971  0.7948
  144DOPC  C21517113   2.159   2.233   5.529 -0.2555  0.5822 -0.0658
  144DOPC  H15R17114   2.157   2.121   5.525  0.6615  0.5871 -2.5445
  144DOPC  H15S17115   2.099   2.259   5.439  0.0838 -0.8535 -0.7574
  144DOPC  C21617116   2.104   2.284   5.662 -0.0593  0.4520 -0.0029
  144DOPC  H16R17117   1.999   2.254   5.680 -0.3180  1.3459  0.0454
  144DOPC  H16S17118   2.117   2.394   5.667 -1.2682  0.6670 -0.9165
  144DOPC  C21717119   2.182   2.230   5.794  0.8090  0.0585  0.1120
  144DOPC  H17R17120   2.280   2.283   5.801  0.0482  1.3795  1.2839
  144DOPC  H17S17121   2.194   2.120   5.792 -0.2693 -0.0550 -0.7341
  144DOPC  C21817122   2.103   2.272   5.920  0.4247 -0.0983 -0.5066
  144DOPC  H18R17123   2.155   2.253   6.017  1.0462  0.5327 -0.7034
  144DOPC  H18S17124   2.005   2.222   5.925 -0.3920  1.4248 -0.5663
  144DOPC  H18T17125   2.079   2.380   5.912 -0.0636 -0.2563 -1.2173
  144DOPC   C3317126   2.738   1.870   6.270 -0.5856 -0.5255 -0.4355
  144DOPC   H3X17127   2.670   1.792   6.309 -0.9001 -1.1606 -2.1611
  144DOPC   H3Y17128   2.798   1.822   6.189 -2.2356  0.8552 -2.5750
  144DOPC   C3417129   2.650   1.975   6.207 -0.5951 -0.5186  0.1686
  144DOPC   H4X17130   2.590   2.025   6.286  0.4974  0.8959  0.1475
  144DOPC   H4Y17131   2.585   1.926   6.131 -1.3570 -0.9037  1.0479
  144DOPC   C3517132   2.725   2.081   6.124 -0.2755 -0.6102 -0.4935
  144DOPC   H5X17133   2.816   2.041   6.074 -0.6398 -0.6248 -1.1630
  144DOPC   H5Y17134   2.754   2.160   6.197 -1.1500 -1.2589  0.5864
  144DOPC   C3617135   2.628   2.153   6.023 -0.0780 -0.1696  0.3845
  144DOPC   H6X17136   2.608   2.082   5.940  1.0584  1.2447 -1.1655
  144DOPC   H6Y17137   2.528   2.181   6.064 -0.2739 -1.8168  1.1538
  144DOPC   C3717138   2.698   2.269   5.961 -0.6822  0.1944 -0.6234
  144DOPC   H7X17139   2.729   2.334   6.046 -0.7330 -0.4402 -0.1036
  144DOPC   H7Y17140   2.788   2.237   5.905 -0.2768 -1.2271  0.7673
  144DOPC   C3817141   2.606   2.345   5.859  0.2754  0.0673  0.0400
  144DOPC   H8X17142   2.649   2.447   5.857  1.7860 -0.5488 -0.9717
  144DOPC   H8Y17143   2.502   2.356   5.897 -0.0223  0.9814 -0.9870
  144DOPC   C3917144   2.601   2.269   5.724  0.6220 -0.6900  0.5987
  144DOPC   H9X17145   2.539   2.178   5.717 -0.8516  0.1667  1.7566
  144DOPC  C31017146   2.675   2.300   5.617 -0.3306 -0.2437  0.1857
  144DOPC  H10X17147   2.670   2.240   5.525 -0.9416  1.4713 -0.9356
  144DOPC  C31117148   2.769   2.419   5.621  0.3525  0.1686 -0.1807
  144DOPC  H11X17149   2.853   2.396   5.690  1.3098 -1.1377 -1.7080
  144DOPC  H11Y17150   2.714   2.509   5.654  0.3923  0.7337 -1.5880
  144DOPC  C31217151   2.840   2.442   5.477 -0.9980 -0.3239 -0.0505
  144DOPC  H12X17152   2.911   2.359   5.459 -1.3384 -0.8388  0.8822
  144DOPC  H12Y17153   2.914   2.524   5.487  0.1029 -1.4199  1.2000
  144DOPC  C31317154   2.738   2.469   5.363  0.2485  0.4133 -0.1334
  144DOPC  H13X17155   2.675   2.379   5.352  1.8735 -0.7399 -0.3299
  144DOPC  H13Y17156   2.682   2.562   5.387 -0.9935  0.2422 -2.2323
  144DOPC  C31417157   2.813   2.494   5.234 -0.7077  0.0748 -0.1893
  144DOPC  H14X17158   2.841   2.602   5.228  0.4282  0.0885  3.2319
  144DOPC  H14Y17159   2.910   2.440   5.229 -1.5320 -1.6394  1.2540
  144DOPC  C31517160   2.733   2.467   5.111 -0.3497  0.6633 -0.2054
  144DOPC  H15X17161   2.705   2.359   5.105 -1.6646  0.8494  1.6172
  144DOPC  H15Y17162   2.796   2.486   5.021  0.9744 -2.5856 -0.1258
  144DOPC  C31617163   2.591   2.536   5.102 -1.0992 -0.3376 -0.1920
  144DOPC  H16X17164   2.536   2.525   5.197  0.0258  2.0621  0.8234
  144DOPC  H16Y17165   2.609   2.646   5.103 -3.0335  0.0214  0.7996
  144DOPC  C31717166   2.498   2.506   4.984 -0.7600  0.1586  0.8160
  144DOPC  H17X17167   2.556   2.495   4.890 -0.6056 -0.7004  1.0040
  144DOPC  H17Y17168   2.462   2.404   5.009  1.4825 -0.9436 -0.1927
  144DOPC  C31817169   2.377   2.604   4.975  0.3137 -0.4633  0.1083
  144DOPC  H18X17170   2.406   2.711   4.967 -2.1708  0.1702 -1.6559
  144DOPC  H18Y17171   2.311   2.578   4.890 -0.4360 -0.2409  0.6096
  144DOPC  H18Z17172   2.315   2.594   5.067 -1.2007  0.0565 -0.8183
  145DOPC     N17173   4.816   4.974   7.315  0.0650  0.3478  0.0184
  145DOPC   C1217174   4.797   5.073   7.211 -0.5475 -0.8223  0.5116
  145DOPC  H12A17175   4.695   5.107   7.208 -0.8952 -1.8846 -1.0699
  145DOPC  H12B17176   4.806   5.010   7.124  0.4201  1.7702 -1.3815
  145DOPC   C1317177   4.707   4.871   7.305 -0.0795  0.6630 -0.0322
  145DOPC  H13A17178   4.611   4.920   7.320  0.0021  1.1245 -0.9698
  145DOPC  H13B17179   4.697   4.831   7.205 -2.7319 -0.4789  0.5839
  145DOPC  H13C17180   4.734   4.793   7.374  1.9597  1.4138  0.0690
  145DOPC   C1417181   4.798   5.038   7.446 -0.5456 -0.1391  0.0993
  145DOPC  H14A17182   4.878   5.110   7.455  0.1982 -1.2453  3.8466
  145DOPC  H14B17183   4.696   5.068   7.458 -1.1551 -1.0640 -2.1727
  145DOPC  H14C17184   4.832   4.972   7.524  1.2629 -0.9411 -1.2775
  145DOPC   C1517185   4.945   4.907   7.302 -0.5431  0.3456 -0.7027
  145DOPC  H15A17186   5.034   4.967   7.310 -1.0567  1.0154  0.2059
  145DOPC  H15B17187   4.953   4.843   7.215 -0.8814  0.3841 -0.7642
  145DOPC  H15C17188   4.957   4.840   7.386 -0.2509  0.4872 -0.6309
  145DOPC   C1117189   4.898   5.196   7.219 -0.1219  0.3107  0.1830
  145DOPC  H11A17190   5.005   5.166   7.215 -0.2574 -0.0394 -2.5459
  145DOPC  H11B17191   4.879   5.259   7.130 -0.6307 -0.4273 -0.2381
  145DOPC     P17192   4.794   5.414   7.320 -0.1635  0.5803  0.3023
  145DOPC   O1317193   4.748   5.467   7.444  0.7225 -0.2606 -0.1113
  145DOPC   O1417194   4.694   5.391   7.217 -0.3463 -0.3424 -0.0140
  145DOPC   O1217195   4.881   5.281   7.332  0.5104 -0.1750 -0.2087
  145DOPC   O1117196   4.901   5.522   7.269 -0.1247  0.3617 -0.5064
  145DOPC    C117197   4.860   5.617   7.177  0.2026  0.1317  0.7965
  145DOPC    HA17198   4.917   5.711   7.191 -1.9878  1.7705 -0.7592
  145DOPC    HB17199   4.757   5.652   7.197  0.3828  0.3194  1.4223
  145DOPC    C217200   4.876   5.563   7.028  0.2513  0.0424 -0.5788
  145DOPC    HS17201   4.802   5.481   7.022 -0.6948  0.7881  0.5653
  145DOPC   O2117202   5.011   5.521   7.002 -0.5263  0.0218 -0.3633
  145DOPC   C2117203   5.019   5.416   6.917  0.3014 -0.0610 -0.1243
  145DOPC   O2217204   4.924   5.345   6.894  0.9320  0.1379  0.3647
  145DOPC   C2217205   5.163   5.396   6.871  0.2142 -0.0985 -0.4432
  145DOPC   H2R17206   5.185   5.289   6.892 -0.0454 -0.0698 -0.0137
  145DOPC   H2S17207   5.237   5.458   6.924 -0.1652  1.1839 -1.3638
  145DOPC    C317208   4.837   5.683   6.933 -0.1259 -0.1181 -0.3667
  145DOPC    HX17209   4.918   5.759   6.941 -1.5703  1.4070  0.4142
  145DOPC    HY17210   4.756   5.741   6.981 -1.3981 -1.6679 -0.5528
  145DOPC   O3117211   4.813   5.640   6.797 -0.2899  0.1184 -0.2173
  145DOPC   C3117212   4.702   5.578   6.777  0.5560 -0.4007  0.7418
  145DOPC   O3217213   4.614   5.556   6.854 -0.6509 -0.4541  0.3448
  145DOPC   C3217214   4.699   5.537   6.632  0.5209 -0.4801 -0.2910
  145DOPC   H2X17215   4.605   5.480   6.612  0.9096 -1.1595 -0.2205
  145DOPC   H2Y17216   4.705   5.622   6.561  0.0036 -0.4406 -0.2918
  145DOPC   C2317217   5.184   5.418   6.716 -0.3859 -0.2161 -0.4774
  145DOPC   H3R17218   5.293   5.440   6.717 -0.7373  1.7084  1.0262
  145DOPC   H3S17219   5.133   5.509   6.679 -0.9970 -1.0158 -1.6704
  145DOPC   C2417220   5.156   5.296   6.625  0.4118  0.2009 -0.6662
  145DOPC   H4R17221   5.048   5.272   6.619 -0.0918  2.1671 -0.1018
  145DOPC   H4S17222   5.212   5.217   6.679  0.4743 -0.6376 -1.8981
  145DOPC   C2517223   5.207   5.314   6.477  0.1662  0.1400 -0.1341
  145DOPC   H5R17224   5.316   5.334   6.472  0.0233  0.7576 -1.2274
  145DOPC   H5S17225   5.149   5.395   6.427 -3.2244 -2.0735 -0.0965
  145DOPC   C2617226   5.182   5.194   6.384  0.5368  0.6708 -0.3382
  145DOPC   H6R17227   5.079   5.165   6.415  1.5339  0.2534  3.0234
  145DOPC   H6S17228   5.257   5.115   6.401 -0.7747 -0.4328  0.5297
  145DOPC   C2717229   5.191   5.222   6.232 -0.2482 -0.0641 -0.2877
  145DOPC   H7R17230   5.294   5.252   6.205 -0.2904  0.4569  0.1072
  145DOPC   H7S17231   5.119   5.305   6.215 -2.2359 -1.1245  2.2747
  145DOPC   C2817232   5.141   5.098   6.162  0.7640  0.2894 -0.3515
  145DOPC   H8R17233   5.031   5.107   6.168  0.2521 -4.2900  1.6798
  145DOPC   H8S17234   5.178   5.008   6.215  0.3924  0.4135  0.1137
  145DOPC   C2917235   5.199   5.095   6.021 -0.2709 -0.0466 -0.0432
  145DOPC   H9R17236   5.307   5.113   6.016 -0.1315 -1.0103 -0.9641
  145DOPC  C21017237   5.123   5.062   5.916  0.4302  0.5242 -0.0304
  145DOPC  H10R17238   5.166   5.044   5.817 -0.3186 -0.8606 -0.1147
  145DOPC  C21117239   4.976   5.027   5.920 -0.7748 -0.0586 -0.2936
  145DOPC  H11R17240   4.918   5.119   5.946  0.5280  1.0276 -1.0746
  145DOPC  H11S17241   4.957   4.949   5.996  1.6957 -0.6395 -0.2103
  145DOPC  C21217242   4.927   4.976   5.787  0.1203  0.3472  0.7798
  145DOPC  H12R17243   4.823   4.938   5.795  0.5091 -1.2895 -1.0784
  145DOPC  H12S17244   4.979   4.883   5.753 -0.1981  0.7977 -1.0879
  145DOPC  C21317245   4.924   5.080   5.670  0.2228 -0.2137 -0.3876
  145DOPC  H13R17246   5.031   5.104   5.653  0.1683 -0.6799 -1.4503
  145DOPC  H13S17247   4.891   5.181   5.704  3.0150  0.4978  0.4266
  145DOPC  C21417248   4.855   5.028   5.539  0.2843  0.0508  0.1080
  145DOPC  H14R17249   4.745   5.040   5.553  0.2579  3.5893 -1.8710
  145DOPC  H14S17250   4.892   4.924   5.525  2.4410  1.0459 -2.6541
  145DOPC  C21517251   4.902   5.118   5.415 -0.2618  0.1208  0.1478
  145DOPC  H15R17252   5.010   5.096   5.403 -0.3865  0.5260 -2.2698
  145DOPC  H15S17253   4.884   5.227   5.431 -1.1053  0.2748 -1.6271
  145DOPC  C21617254   4.829   5.065   5.291  0.0637 -0.4382 -0.5315
  145DOPC  H16R17255   4.722   5.096   5.293 -0.1583 -1.2479  0.6761
  145DOPC  H16S17256   4.832   4.954   5.293  0.9660 -0.5457 -3.4044
  145DOPC  C21717257   4.904   5.101   5.161 -0.2231 -0.4919  0.1296
  145DOPC  H17R17258   5.009   5.066   5.179 -0.2895 -0.1226  1.3057
  145DOPC  H17S17259   4.903   5.212   5.150 -2.4516 -0.3392  1.3224
  145DOPC  C21817260   4.848   5.046   5.040 -0.5725  0.8134 -0.1468
  145DOPC  H18R17261   4.882   4.944   5.015  2.4089  1.8176 -0.6188
  145DOPC  H18S17262   4.885   5.105   4.953 -0.3679 -3.4225 -3.2071
  145DOPC  H18T17263   4.738   5.055   5.045 -0.6361 -0.0135  0.0316
  145DOPC   C3317264   4.820   5.442   6.602  0.0218  0.5556 -0.6239
  145DOPC   H3X17265   4.812   5.354   6.669  1.2159  1.5903  0.9463
  145DOPC   H3Y17266   4.917   5.490   6.628 -0.5593  2.0195 -1.0399
  145DOPC   C3417267   4.829   5.400   6.458 -0.6496  0.4585  0.3298
  145DOPC   H4X17268   4.742   5.336   6.432 -0.6047  1.6367 -3.0964
  145DOPC   H4Y17269   4.914   5.329   6.444 -1.2241 -0.1122 -0.3484
  145DOPC   C3517270   4.841   5.517   6.363 -0.5621 -0.2621  0.1387
  145DOPC   H5X17271   4.931   5.577   6.388  1.7645 -3.5348  0.2263
  145DOPC   H5Y17272   4.750   5.580   6.374  0.0954  0.5408  1.1463
  145DOPC   C3617273   4.849   5.477   6.213 -0.2956 -0.0791  0.7936
  145DOPC   H6X17274   4.930   5.402   6.198 -0.2541  0.5066 -2.9075
  145DOPC   H6Y17275   4.753   5.429   6.188 -0.8580  1.4759 -0.1902
  145DOPC   C3717276   4.867   5.592   6.106 -1.3574  0.4213 -0.4653
  145DOPC   H7X17277   4.803   5.677   6.138  0.1000  1.2311  0.3881
  145DOPC   H7Y17278   4.971   5.629   6.115 -0.9459 -0.9641  1.2009
  145DOPC   C3817279   4.842   5.546   5.956  0.1414 -0.8095 -0.0994
  145DOPC   H8X17280   4.837   5.638   5.893  2.5621  1.1702  2.3467
  145DOPC   H8Y17281   4.739   5.505   5.965 -0.0400 -0.2000  0.7321
  145DOPC   C3917282   4.939   5.444   5.899 -1.0166  0.0111 -0.1742
  145DOPC   H9X17283   4.925   5.340   5.932  3.0502 -0.6753 -0.0111
  145DOPC  C31017284   5.037   5.457   5.809 -0.3381 -0.5493  0.0362
  145DOPC  H10X17285   5.093   5.366   5.781  0.2522 -0.5109  1.0635
  145DOPC  C31117286   5.081   5.586   5.734 -0.3490  0.2343  0.1408
  145DOPC  H11X17287   5.016   5.674   5.752 -2.7602 -1.3085 -0.6048
  145DOPC  H11Y17288   5.095   5.568   5.625 -0.8828  0.8258 -0.0323
  145DOPC  C31217289   5.228   5.633   5.772  0.0529  0.3775 -0.1880
  145DOPC  H12X17290   5.230   5.706   5.855  0.1319  1.8727 -1.4633
  145DOPC  H12Y17291   5.256   5.700   5.688 -0.3912  1.0596  0.2000
  145DOPC  C31317292   5.332   5.518   5.787 -0.3201 -0.1988 -0.2644
  145DOPC  H13X17293   5.303   5.478   5.887 -0.2688  1.6204  0.5149
  145DOPC  H13Y17294   5.309   5.448   5.703  0.8247 -1.3846  0.3778
  145DOPC  C31417295   5.477   5.568   5.784 -0.0305  0.6298 -0.2535
  145DOPC  H14X17296   5.503   5.630   5.696 -0.5701  0.6368 -0.4091
  145DOPC  H14Y17297   5.493   5.630   5.875 -0.2529 -0.3903  0.5119
  145DOPC  C31517298   5.591   5.459   5.805 -0.0225 -0.5159  0.7309
  145DOPC  H15X17299   5.692   5.502   5.826 -0.7305  1.3724  0.5404
  145DOPC  H15Y17300   5.608   5.409   5.708 -0.0650  1.2593 -0.2474
  145DOPC  C31617301   5.545   5.352   5.905  0.2702  0.1380  0.3832
  145DOPC  H16X17302   5.511   5.408   5.995 -1.4047 -1.0856  0.5428
  145DOPC  H16Y17303   5.463   5.293   5.859  1.1764 -1.4566  0.7448
  145DOPC  C31717304   5.661   5.269   5.952 -1.1722  0.0557  0.0759
  145DOPC  H17X17305   5.724   5.244   5.864 -1.6370  0.8686 -0.5010
  145DOPC  H17Y17306   5.733   5.339   6.001 -1.1246  0.4222 -0.5100
  145DOPC  C31817307   5.617   5.154   6.046 -0.5668  0.1207  0.3338
  145DOPC  H18X17308   5.708   5.111   6.093 -0.4813  0.2845  0.3183
  145DOPC  H18Y17309   5.542   5.196   6.118 -0.3519 -0.1410  0.7133
  145DOPC  H18Z17310   5.569   5.069   5.993 -2.5222  0.1991  1.8369
  146DOPC     N17311   5.470   2.465   7.881  0.0655 -0.5253  0.3156
  146DOPC   C1217312   5.609   2.485   7.945 -0.4110 -0.2891  0.4101
  146DOPC  H12A17313   5.614   2.583   7.990  2.1645  0.4345 -1.2492
  146DOPC  H12B17314   5.679   2.495   7.863 -0.9056  1.4251  0.1589
  146DOPC   C1317315   5.369   2.484   7.990 -0.0730 -0.8125  0.5291
  146DOPC  H13A17316   5.272   2.446   7.963  0.4948 -0.5777 -2.0932
  146DOPC  H13B17317   5.409   2.427   8.073 -1.1308 -0.6821  1.1488
  146DOPC  H13C17318   5.350   2.587   8.019 -0.9696 -0.6799 -0.5148
  146DOPC   C1417319   5.457   2.327   7.818  0.3345 -0.0898  0.5733
  146DOPC  H14A17320   5.421   2.254   7.889  1.5680 -0.2675  1.0404
  146DOPC  H14B17321   5.386   2.323   7.737 -0.6957 -1.2221  1.4840
  146DOPC  H14C17322   5.550   2.283   7.788  0.5605  1.3340 -0.9571
  146DOPC   C1517323   5.447   2.566   7.774  0.7544 -0.1560  0.1003
  146DOPC  H15A17324   5.507   2.561   7.685  1.1231  2.5355  0.1189
  146DOPC  H15B17325   5.448   2.670   7.800 -1.2042  0.0734 -0.5164
  146DOPC  H15C17326   5.344   2.554   7.741  0.8407 -0.9589  0.1025
  146DOPC   C1117327   5.670   2.380   8.042  0.0048 -0.3690  0.2157
  146DOPC  H11A17328   5.758   2.440   8.072  0.3316 -0.5720 -0.3095
  146DOPC  H11B17329   5.610   2.368   8.135 -0.4119  1.9687  0.3020
  146DOPC     P17330   5.816   2.229   7.880  0.0198  0.4623 -0.0766
  146DOPC   O1317331   5.766   2.124   7.786 -0.2868 -0.6352 -0.5120
  146DOPC   O1417332   5.930   2.190   7.972 -0.1534 -0.1982  0.1070
  146DOPC   O1217333   5.698   2.253   7.979 -0.6371 -0.2408  0.5788
  146DOPC   O1117334   5.845   2.368   7.812 -0.1197  0.2654  0.7691
  146DOPC    C117335   5.963   2.388   7.737 -0.4559 -0.2806  1.1121
  146DOPC    HA17336   5.991   2.304   7.669  1.5507 -0.2064  1.7874
  146DOPC    HB17337   6.047   2.428   7.798 -0.4894 -1.7276  2.1578
  146DOPC    C217338   5.932   2.485   7.613  0.4854 -0.5250  0.9962
  146DOPC    HS17339   5.911   2.582   7.662 -4.4870 -0.5768 -0.5095
  146DOPC   O2117340   5.817   2.437   7.547  0.0088  0.1257 -0.0356
  146DOPC   C2117341   5.717   2.531   7.531 -0.7991  0.3383  0.6811
  146DOPC   O2217342   5.714   2.640   7.579 -0.7795  0.2801  0.4888
  146DOPC   C2217343   5.613   2.478   7.438  0.5475  0.1945  0.3427
  146DOPC   H2R17344   5.512   2.491   7.484  1.5471  1.6153  2.2992
  146DOPC   H2S17345   5.636   2.373   7.415 -0.0967  0.3642 -1.1863
  146DOPC    C317346   6.047   2.491   7.515 -0.1623 -0.1943 -0.9542
  146DOPC    HX17347   6.062   2.390   7.471  0.9698 -0.2816 -0.4116
  146DOPC    HY17348   6.132   2.531   7.575 -2.0173  2.0706  0.3297
  146DOPC   O3117349   6.023   2.580   7.399 -0.2556  0.6722 -0.6771
  146DOPC   C3117350   6.039   2.708   7.427  0.0638  0.4866  0.4372
  146DOPC   O3217351   6.085   2.750   7.530 -0.1728  0.6709 -0.8594
  146DOPC   C3217352   5.992   2.785   7.299  0.5730 -0.1449 -0.2878
  146DOPC   H2X17353   6.037   2.735   7.211 -1.1379  0.1952 -1.4109
  146DOPC   H2Y17354   5.881   2.782   7.300  0.4943  1.7092  0.0955
  146DOPC   C2317355   5.616   2.554   7.304 -0.3143  0.4909  0.2075
  146DOPC   H3R17356   5.615   2.663   7.323  1.8840  0.2018  2.6338
  146DOPC   H3S17357   5.522   2.526   7.251  0.6947 -1.6486 -0.5718
  146DOPC   C2417358   5.736   2.515   7.206  0.2882 -0.5855 -0.5722
  146DOPC   H4R17359   5.730   2.407   7.180 -1.8276 -0.4016 -1.0236
  146DOPC   H4S17360   5.832   2.539   7.255  0.0098 -0.5180 -0.0478
  146DOPC   C2517361   5.734   2.596   7.083  0.0115  0.5911  0.4409
  146DOPC   H5R17362   5.734   2.705   7.103  2.0144  0.9073 -0.9951
  146DOPC   H5S17363   5.636   2.584   7.032  0.8864  0.6586 -1.3282
  146DOPC   C2617364   5.863   2.588   6.985  0.1796 -0.2037  0.0100
  146DOPC   H6R17365   5.882   2.482   6.961 -2.2444 -0.3839 -1.4427
  146DOPC   H6S17366   5.948   2.633   7.041 -1.7549  1.9588  1.3874
  146DOPC   C2717367   5.849   2.666   6.853  0.7277  0.3537 -0.3968
  146DOPC   H7R17368   5.815   2.770   6.872  0.3142 -0.1093  1.6881
  146DOPC   H7S17369   5.772   2.614   6.792  0.8826 -0.7128  0.3057
  146DOPC   C2817370   5.964   2.660   6.762  0.3234 -0.7940  0.7788
  146DOPC   H8R17371   6.048   2.695   6.825 -0.5290 -0.5699  1.8250
  146DOPC   H8S17372   5.948   2.743   6.689  1.0844  0.3080  1.8389
  146DOPC   C2917373   5.990   2.522   6.695  0.4955  0.9762  0.1203
  146DOPC   H9R17374   6.063   2.455   6.742  0.4961  1.3379  0.6388
  146DOPC  C21017375   5.936   2.477   6.579  0.0393 -0.0057 -0.7700
  146DOPC  H10R17376   5.970   2.377   6.546 -1.1155 -1.3768  1.8933
  146DOPC  C21117377   5.835   2.551   6.494  0.7775 -0.2115  0.1103
  146DOPC  H11R17378   5.772   2.619   6.555 -0.3831 -1.0125 -0.1644
  146DOPC  H11S17379   5.776   2.470   6.446 -1.5016  1.4110 -0.0115
  146DOPC  C21217380   5.885   2.638   6.373  0.1321  0.0281 -0.3991
  146DOPC  H12R17381   5.922   2.577   6.288  0.4213 -0.1486 -0.1515
  146DOPC  H12S17382   5.977   2.686   6.412  0.2626 -0.0352 -0.6282
  146DOPC  C21317383   5.778   2.729   6.316 -0.3060  0.1594  0.0075
  146DOPC  H13R17384   5.703   2.762   6.390 -1.6970 -3.4559  0.3972
  146DOPC  H13S17385   5.724   2.666   6.241  1.6223  1.6897 -2.8564
  146DOPC  C21417386   5.843   2.855   6.261  0.0330 -0.1193  0.1122
  146DOPC  H14R17387   5.933   2.828   6.202 -1.1012 -2.1191 -0.7815
  146DOPC  H14S17388   5.879   2.921   6.343 -1.7669  0.0257  0.8443
  146DOPC  C21517389   5.739   2.928   6.168 -0.0379  0.5867  0.2949
  146DOPC  H15R17390   5.794   3.023   6.151 -0.3010  0.4236 -1.6639
  146DOPC  H15S17391   5.647   2.967   6.216 -2.5226 -1.3746 -2.5316
  146DOPC  C21617392   5.697   2.866   6.037 -0.3241  0.6209 -0.5903
  146DOPC  H16R17393   5.638   2.773   6.052 -3.1167  2.2988 -0.5163
  146DOPC  H16S17394   5.789   2.827   5.988 -1.8619 -0.9030 -2.4355
  146DOPC  C21717395   5.632   2.963   5.941  0.1812 -0.1021 -0.2097
  146DOPC  H17R17396   5.690   3.057   5.939 -0.2699  0.1725 -0.6446
  146DOPC  H17S17397   5.539   2.984   5.997  0.8207 -2.0768  1.7358
  146DOPC  C21817398   5.581   2.906   5.810 -0.0872 -0.0882 -0.3291
  146DOPC  H18R17399   5.667   2.886   5.742  0.7226  0.7525  0.4212
  146DOPC  H18S17400   5.517   2.979   5.756 -1.1773 -1.4516 -0.9416
  146DOPC  H18T17401   5.527   2.813   5.837 -2.2188  1.4690  1.0476
  146DOPC   C3317402   6.035   2.933   7.300  0.1379  0.2581  0.4576
  146DOPC   H3X17403   6.144   2.937   7.319 -0.0793  2.0317  1.6203
  146DOPC   H3Y17404   5.983   2.978   7.388  0.9079 -0.8664  1.5328
  146DOPC   C3417405   5.977   3.004   7.177  0.4240 -0.3594  0.8334
  146DOPC   H4X17406   5.970   3.114   7.196  0.1549 -0.1287 -0.4881
  146DOPC   H4Y17407   5.871   2.975   7.164  0.3230  0.6691 -0.9428
  146DOPC   C3517408   6.042   2.978   7.044  0.1951 -0.5164 -0.1354
  146DOPC   H5X17409   6.063   2.872   7.020  1.9451  0.0054 -1.1286
  146DOPC   H5Y17410   6.142   3.026   7.050  0.9031 -2.1505  1.9684
  146DOPC   C3617411   5.972   3.054   6.931  0.8562  0.3646  0.3947
  146DOPC   H6X17412   5.863   3.032   6.930  1.0557 -0.7740  1.0917
  146DOPC   H6Y17413   5.987   3.162   6.951  0.1292  0.4820  0.3110
  146DOPC   C3717414   6.024   3.050   6.782 -0.2779  0.4648  0.0924
  146DOPC   H7X17415   6.135   3.059   6.783 -0.2335  0.1950 -1.0122
  146DOPC   H7Y17416   5.995   2.948   6.749 -1.1102  0.1651  1.6256
  146DOPC   C3817417   5.963   3.151   6.689  0.2837  0.0710  0.0524
  146DOPC   H8X17418   5.853   3.144   6.700  0.2317 -0.2195 -0.6252
  146DOPC   H8Y17419   6.001   3.132   6.586 -0.5567 -0.6248 -0.1381
  146DOPC   C3917420   5.999   3.301   6.720 -0.6110  0.7507 -0.2486
  146DOPC   H9X17421   5.956   3.334   6.816 -1.1924  1.1643 -0.6464
  146DOPC  C31017422   6.067   3.388   6.640 -0.0288  0.2354 -0.9160
  146DOPC  H10X17423   6.100   3.476   6.697 -2.3662 -0.7360  2.2215
  146DOPC  C31117424   6.124   3.361   6.497  0.0741  0.7914 -1.0734
  146DOPC  H11X17425   6.050   3.296   6.445 -2.9488 -0.1325  3.7740
  146DOPC  H11Y17426   6.219   3.303   6.496  0.3784  1.2655 -2.2119
  146DOPC  C31217427   6.158   3.491   6.412 -0.0435 -0.5486 -0.4239
  146DOPC  H12X17428   6.199   3.571   6.477 -2.1651  1.8734 -1.8758
  146DOPC  H12Y17429   6.062   3.537   6.380 -0.4088 -0.4743  0.7283
  146DOPC  C31317430   6.238   3.445   6.292  0.4871  0.2399 -0.8212
  146DOPC  H13X17431   6.343   3.420   6.318  0.2600  1.2577  1.3310
  146DOPC  H13Y17432   6.179   3.355   6.267  1.6046 -0.8513  0.3243
  146DOPC  C31417433   6.233   3.540   6.168 -0.1630  0.5078 -0.5143
  146DOPC  H14X17434   6.274   3.492   6.076 -1.8072 -0.9443 -0.5445
  146DOPC  H14Y17435   6.124   3.559   6.160 -0.2423  0.4624  0.4044
  146DOPC  C31517436   6.310   3.667   6.190  0.0432  0.4315 -0.4178
  146DOPC  H15X17437   6.417   3.657   6.159 -0.2507  0.0415 -1.3211
  146DOPC  H15Y17438   6.318   3.682   6.300  1.4959 -0.7008 -0.3360
  146DOPC  C31617439   6.245   3.789   6.117 -0.2999 -0.7033  0.1138
  146DOPC  H16X17440   6.224   3.767   6.010 -2.2330  0.6094  0.1834
  146DOPC  H16Y17441   6.145   3.819   6.154  0.1117 -0.3652  0.9781
  146DOPC  C31717442   6.332   3.915   6.137  0.8805 -1.0569 -0.3391
  146DOPC  H17X17443   6.316   3.966   6.234 -2.8198 -1.1610 -0.7288
  146DOPC  H17Y17444   6.441   3.901   6.120  0.9087 -0.0167 -1.1142
  146DOPC  C31817445   6.285   4.028   6.041 -0.5295 -0.2692  0.1975
  146DOPC  H18X17446   6.332   4.122   6.079 -0.3436 -1.1372  2.2468
  146DOPC  H18Y17447   6.330   4.008   5.942 -0.6733  1.4689 -0.2638
  146DOPC  H18Z17448   6.176   4.023   6.024 -0.4441  2.1981 -1.6318
  147DOPC     N17449   0.091   2.343   7.468 -0.3257 -0.0738  0.1922
  147DOPC   C1217450   0.228   2.405   7.457 -0.4322 -0.0405 -0.1128
  147DOPC  H12A17451   0.299   2.327   7.434 -1.1269 -0.5465 -0.5839
  147DOPC  H12B17452   0.266   2.430   7.555  0.7608  1.0308 -0.8123
  147DOPC   C1317453  -0.007   2.441   7.515 -0.7957  0.2257 -0.6987
  147DOPC  H13A17454  -0.013   2.523   7.444  1.3169  2.0105  1.0510
  147DOPC  H13B17455  -0.108   2.403   7.517 -1.3853  1.7493  0.1807
  147DOPC  H13C17456   0.024   2.477   7.612  1.4542  0.1346 -1.3320
  147DOPC   C1417457   0.098   2.224   7.564 -0.8735  0.1176 -0.2996
  147DOPC  H14A17458   0.009   2.162   7.562  0.6342 -2.1393 -1.7292
  147DOPC  H14B17459   0.172   2.155   7.528 -0.6673  0.5029 -0.6136
  147DOPC  H14C17460   0.132   2.259   7.660  0.2490 -2.0107  0.1322
  147DOPC   C1517461   0.056   2.281   7.336 -0.6158  0.6756  0.3041
  147DOPC  H15A17462   0.051   2.360   7.262  1.8869  0.8900  0.3028
  147DOPC  H15B17463  -0.032   2.218   7.334 -0.5099  0.5030  0.9818
  147DOPC  H15C17464   0.139   2.218   7.309 -0.6660  1.0827 -0.8692
  147DOPC   C1117465   0.244   2.537   7.379 -0.4866  0.3684  0.3307
  147DOPC  H11A17466   0.167   2.610   7.413 -1.6074  0.0576 -1.3814
  147DOPC  H11B17467   0.347   2.576   7.387  1.1927 -3.6749  1.1753
  147DOPC     P17468   0.310   2.453   7.136  0.0061  0.0212 -0.0077
  147DOPC   O1317469   0.420   2.381   7.202 -0.8350 -0.0132  0.6420
  147DOPC   O1417470   0.345   2.567   7.055  0.1136 -0.3073  0.6312
  147DOPC   O1217471   0.205   2.509   7.242  0.2386  0.6529  0.2475
  147DOPC   O1117472   0.221   2.350   7.053  0.5395  0.4417 -0.3516
  147DOPC    C117473   0.240   2.209   7.054  0.5351 -0.0020 -0.3485
  147DOPC    HA17474   0.140   2.161   7.045 -0.7414  2.5647 -0.7454
  147DOPC    HB17475   0.299   2.170   7.140 -0.6055 -0.9391  0.0335
  147DOPC    C217476   0.317   2.162   6.922  0.1045 -0.3526 -0.0620
  147DOPC    HS17477   0.419   2.207   6.929 -0.9219  2.2868 -1.0089
  147DOPC   O2117478   0.250   2.196   6.797 -0.1383  0.7781  0.2874
  147DOPC   C2117479   0.297   2.286   6.718  0.8620  0.8137  0.7187
  147DOPC   O2217480   0.401   2.345   6.728 -0.2277 -0.4625 -0.1698
  147DOPC   C2217481   0.194   2.308   6.607  0.4921  0.1354 -0.5034
  147DOPC   H2R17482   0.147   2.408   6.624  0.0830 -0.0789 -0.3645
  147DOPC   H2S17483   0.119   2.227   6.609  1.2088 -0.5345 -0.4489
  147DOPC    C317484   0.325   2.006   6.922  0.1035 -0.2783 -0.5917
  147DOPC    HX17485   0.219   1.973   6.924  0.3475 -1.0760  1.1704
  147DOPC    HY17486   0.363   1.970   7.020  1.1497  1.4838 -0.2900
  147DOPC   O3117487   0.385   1.947   6.805 -0.0155  0.2493  0.0238
  147DOPC   C3117488   0.512   1.965   6.793  0.3008 -0.0552 -0.3393
  147DOPC   O3217489   0.585   2.028   6.873  0.0050  0.1595  0.0821
  147DOPC   C3217490   0.557   1.890   6.664  0.5046  0.0453 -0.0426
  147DOPC   H2X17491   0.665   1.903   6.640  0.3520 -0.1203 -0.8132
  147DOPC   H2Y17492   0.531   1.784   6.682 -0.9708  0.3786 -0.0407
  147DOPC   C2317493   0.252   2.313   6.463  0.1598 -1.0950  0.2889
  147DOPC   H3R17494   0.333   2.242   6.434  0.4204 -1.0977  0.9976
  147DOPC   H3S17495   0.308   2.410   6.455 -0.9610 -0.4424  0.1884
  147DOPC   C2417496   0.132   2.314   6.368 -0.3567  0.1605 -0.3661
  147DOPC   H4R17497   0.066   2.401   6.388  0.3346  0.5308  0.3359
  147DOPC   H4S17498   0.071   2.223   6.391 -2.0542  1.7443  1.9003
  147DOPC   C2517499   0.179   2.317   6.227  0.0945 -0.4685  0.0570
  147DOPC   H5R17500   0.254   2.237   6.213  0.3753 -0.1895 -0.0306
  147DOPC   H5S17501   0.229   2.413   6.205 -0.2019  0.0238  1.4238
  147DOPC   C2617502   0.062   2.294   6.135 -0.3146 -0.4363  0.0443
  147DOPC   H6R17503  -0.007   2.380   6.137 -0.7340 -0.6747 -1.9574
  147DOPC   H6S17504   0.014   2.196   6.156  1.0244 -1.3539 -1.0087
  147DOPC   C2717505   0.096   2.277   5.987 -0.1441  0.1972  0.1704
  147DOPC   H7R17506   0.163   2.188   5.984 -0.6757 -0.1834 -0.7351
  147DOPC   H7S17507   0.151   2.370   5.961 -0.6896  1.2419  2.4913
  147DOPC   C2817508  -0.021   2.259   5.888 -0.4968 -0.1491 -1.5321
  147DOPC   H8R17509  -0.068   2.360   5.880 -1.0250 -0.1294  1.0413
  147DOPC   H8S17510  -0.099   2.192   5.930 -0.2323  0.7079  0.3911
  147DOPC   C2917511   0.045   2.210   5.760  0.4204 -0.2244 -0.1569
  147DOPC   H9R17512   0.136   2.265   5.734  1.7450 -2.2065  0.0255
  147DOPC  C21017513   0.007   2.108   5.676 -0.1566  0.2297  0.0687
  147DOPC  H10R17514   0.072   2.082   5.591 -0.4057 -2.7036  0.6823
  147DOPC  C21117515  -0.116   2.014   5.696  0.0417  0.3923  0.8413
  147DOPC  H11R17516  -0.158   2.027   5.798 -1.5398 -0.9649  0.4055
  147DOPC  H11S17517  -0.089   1.906   5.688 -0.9217  0.0774  1.7205
  147DOPC  C21217518  -0.224   2.038   5.587 -0.3995 -0.4282 -0.0292
  147DOPC  H12R17519  -0.245   2.146   5.572 -0.5884 -0.3852  0.5125
  147DOPC  H12S17520  -0.319   1.998   5.630 -1.1918  1.6483  0.2656
  147DOPC  C21317521  -0.197   1.976   5.447 -0.5217  0.0442  1.2607
  147DOPC  H13R17522  -0.159   1.876   5.477 -0.5350 -0.2986  0.1801
  147DOPC  H13S17523  -0.113   2.036   5.407 -1.3329 -1.0025 -2.3518
  147DOPC  C21417524  -0.317   1.973   5.352  0.1135 -0.0379  0.0316
  147DOPC  H14R17525  -0.340   2.077   5.320  2.3398  0.8469  1.1563
  147DOPC  H14S17526  -0.399   1.933   5.415  0.7929  0.9866  1.6050
  147DOPC  C21517527  -0.293   1.889   5.226  0.7449 -0.6923  0.2306
  147DOPC  H15R17528  -0.307   1.784   5.260 -0.7281 -0.2684  1.0337
  147DOPC  H15S17529  -0.191   1.903   5.184  0.3772  1.1905 -0.1445
  147DOPC  C21617530  -0.398   1.933   5.114  0.8185  0.4781  0.2049
  147DOPC  H16R17531  -0.402   2.044   5.117 -0.9067  0.4166  1.8608
  147DOPC  H16S17532  -0.499   1.894   5.142  1.8669 -3.3316 -0.7142
  147DOPC  C21717533  -0.374   1.880   4.970 -0.7799 -0.2802 -0.2830
  147DOPC  H17R17534  -0.356   1.770   4.965 -0.1399 -0.1373 -1.5971
  147DOPC  H17S17535  -0.278   1.928   4.942  0.3809 -0.8722  2.4213
  147DOPC  C21817536  -0.482   1.931   4.867 -0.3402 -0.3585  0.1028
  147DOPC  H18R17537  -0.492   2.041   4.859  0.6816 -0.0311  2.3726
  147DOPC  H18S17538  -0.577   1.874   4.877  0.8128 -3.1200 -2.8853
  147DOPC  H18T17539  -0.450   1.900   4.765  2.7222 -1.4543  1.2858
  147DOPC   C3317540   0.479   1.937   6.543  0.1718  0.4002  0.4358
  147DOPC   H3X17541   0.479   2.047   6.527  1.0070  0.6030  1.6497
  147DOPC   H3Y17542   0.375   1.902   6.556  0.4959 -1.5594 -1.6680
  147DOPC   C3417543   0.542   1.883   6.414  0.9088 -0.2117 -0.7057
  147DOPC   H4X17544   0.563   1.775   6.428 -2.4218 -0.8085  0.6950
  147DOPC   H4Y17545   0.630   1.941   6.378  0.9797 -0.3270 -0.7152
  147DOPC   C3517546   0.432   1.888   6.299  0.4056 -0.0035  0.1982
  147DOPC   H5X17547   0.404   1.993   6.279  1.1317 -0.2634 -2.5579
  147DOPC   H5Y17548   0.336   1.835   6.320 -0.5302  0.7169 -2.0043
  147DOPC   C3617549   0.490   1.838   6.170 -0.7239 -0.6185 -0.4118
  147DOPC   H6X17550   0.578   1.900   6.142 -0.6753 -0.2355  0.5543
  147DOPC   H6Y17551   0.522   1.732   6.175  1.2252 -0.0173  1.3645
  147DOPC   C3717552   0.392   1.852   6.061 -0.1460 -0.2794  0.2691
  147DOPC   H7X17553   0.302   1.789   6.078 -0.2193 -0.2291  0.0714
  147DOPC   H7Y17554   0.360   1.958   6.056  0.7607 -0.0537 -1.2842
  147DOPC   C3817555   0.435   1.810   5.923 -0.3350  0.3274 -0.0485
  147DOPC   H8X17556   0.438   1.700   5.912 -0.4368  0.2154  0.9598
  147DOPC   H8Y17557   0.543   1.836   5.916 -0.0448 -0.7137  0.3431
  147DOPC   C3917558   0.367   1.859   5.798 -0.8251 -0.4572 -0.4186
  147DOPC   H9X17559   0.260   1.832   5.795 -1.8616  3.1701 -1.2158
  147DOPC  C31017560   0.410   1.933   5.691 -0.8630 -0.2276  0.2547
  147DOPC  H10X17561   0.336   1.962   5.615 -0.9251 -0.8458  0.0710
  147DOPC  C31117562   0.544   1.997   5.660  0.1462 -0.2351  0.0047
  147DOPC  H11X17563   0.593   1.944   5.576 -0.4022 -0.5954 -0.0933
  147DOPC  H11Y17564   0.604   2.004   5.753  1.2139 -0.1124 -0.6700
  147DOPC  C31217565   0.502   2.141   5.605  0.0192  0.0277 -0.1535
  147DOPC  H12X17566   0.431   2.123   5.522 -1.2195 -2.2948  1.3002
  147DOPC  H12Y17567   0.598   2.183   5.567 -0.0471 -0.8013 -1.2728
  147DOPC  C31317568   0.453   2.241   5.710 -0.2678  0.7765  1.2890
  147DOPC  H13X17569   0.366   2.204   5.768 -1.2269  0.5579 -0.2148
  147DOPC  H13Y17570   0.533   2.271   5.780  0.1346  2.5442  0.1485
  147DOPC  C31417571   0.393   2.372   5.649  0.4101  0.7571  0.3247
  147DOPC  H14X17572   0.304   2.357   5.584  1.1503 -1.7826 -0.2105
  147DOPC  H14Y17573   0.362   2.446   5.725 -1.3390 -1.0353  1.4450
  147DOPC  C31517574   0.496   2.454   5.573 -0.2159  1.0171 -0.4933
  147DOPC  H15X17575   0.548   2.397   5.493  2.0824  0.5640  1.2332
  147DOPC  H15Y17576   0.575   2.477   5.648 -0.6360 -1.8662  0.9848
  147DOPC  C31617577   0.441   2.580   5.513 -0.3749 -0.0835  0.4888
  147DOPC  H16X17578   0.363   2.554   5.438  0.1113 -0.2216  0.0188
  147DOPC  H16Y17579   0.398   2.650   5.587  2.8462  0.7641  1.7349
  147DOPC  C31717580   0.542   2.665   5.432 -0.5706 -0.3109  0.6747
  147DOPC  H17X17581   0.605   2.606   5.363 -2.1404  0.5542 -1.6239
  147DOPC  H17Y17582   0.478   2.726   5.364  0.2631 -0.8154 -0.5806
  147DOPC  C31817583   0.633   2.766   5.513  0.0293  0.0064 -0.0338
  147DOPC  H18X17584   0.709   2.812   5.447  0.2711 -2.3766 -1.5552
  147DOPC  H18Y17585   0.566   2.839   5.563 -0.2527 -0.9267  0.9771
  147DOPC  H18Z17586   0.693   2.707   5.585  0.1332 -0.2425 -0.3189
  148DOPC     N17587   1.333   6.278   6.861 -0.6870  0.2172  0.4347
  148DOPC   C1217588   1.457   6.201   6.823 -0.1382  0.7549 -0.1939
  148DOPC  H12A17589   1.428   6.098   6.813  1.3966  0.1823  1.0255
  148DOPC  H12B17590   1.533   6.202   6.899 -0.8994  1.1515  0.5760
  148DOPC   C1317591   1.366   6.420   6.893 -0.0958  0.1439  0.6650
  148DOPC  H13A17592   1.400   6.470   6.803 -0.9823 -1.4382 -0.5988
  148DOPC  H13B17593   1.276   6.473   6.920 -0.8009 -1.1403  0.9191
  148DOPC  H13C17594   1.439   6.431   6.972  0.2022  1.8085  0.2027
  148DOPC   C1417595   1.268   6.219   6.979  0.1649 -0.1917  0.3344
  148DOPC  H14A17596   1.223   6.124   6.954  1.3615 -1.1391  1.5574
  148DOPC  H14B17597   1.327   6.210   7.070  2.4184  3.3749 -0.5485
  148DOPC  H14C17598   1.188   6.290   6.994  1.1424  1.0120  0.0011
  148DOPC   C1517599   1.230   6.264   6.760  0.2931  0.7605  0.2639
  148DOPC  H15A17600   1.203   6.160   6.769  0.1041  0.7767 -0.1148
  148DOPC  H15B17601   1.262   6.282   6.659 -1.4023  0.1393 -0.4130
  148DOPC  H15C17602   1.145   6.324   6.788  0.3793  0.3425  1.4975
  148DOPC   C1117603   1.534   6.250   6.693 -0.0381  0.0781 -0.5499
  148DOPC  H11A17604   1.456   6.257   6.615 -1.7497  1.8166  1.1734
  148DOPC  H11B17605   1.567   6.353   6.718 -2.4705  0.7499  0.1706
  148DOPC     P17606   1.642   6.022   6.642 -0.5104 -0.2154 -0.2513
  148DOPC   O1317607   1.529   5.950   6.705  0.0680 -0.2596 -0.1012
  148DOPC   O1417608   1.773   5.954   6.657 -0.1425  0.1156  0.0444
  148DOPC   O1217609   1.652   6.176   6.675  0.1014  0.0101 -0.2734
  148DOPC   O1117610   1.613   6.029   6.493  0.2402  0.3127  0.2522
  148DOPC    C117611   1.592   5.910   6.411  0.6722  0.6048 -0.3865
  148DOPC    HA17612   1.507   5.845   6.443  2.0998 -0.3316  1.7556
  148DOPC    HB17613   1.680   5.843   6.413  0.5490  0.4535 -0.0371
  148DOPC    C217614   1.570   5.939   6.259 -0.7396 -0.2828  0.7786
  148DOPC    HS17615   1.540   5.842   6.214  0.8902 -0.7333  0.5924
  148DOPC   O2117616   1.694   5.999   6.201 -0.4123 -0.6982  0.1115
  148DOPC   C2117617   1.778   5.911   6.161 -0.1633  0.7431 -0.2668
  148DOPC   O2217618   1.772   5.789   6.176  0.3198 -0.8241 -0.5917
  148DOPC   C2217619   1.879   5.981   6.079 -0.1275  0.2024  0.2979
  148DOPC   H2R17620   1.975   5.961   6.131 -0.2124 -2.7801 -0.4873
  148DOPC   H2S17621   1.857   6.090   6.083  0.4082  0.4092 -1.4122
  148DOPC    C317622   1.448   6.030   6.249 -0.5596 -0.3894 -0.6333
  148DOPC    HX17623   1.479   6.130   6.288 -1.0795 -0.1499 -0.8234
  148DOPC    HY17624   1.373   5.978   6.312 -0.5936  1.1516  0.6652
  148DOPC   O3117625   1.401   6.036   6.112  1.2508 -0.4140 -0.4489
  148DOPC   C3117626   1.297   6.119   6.094 -0.1720  0.2922 -0.8628
  148DOPC   O3217627   1.241   6.177   6.185 -0.2671  0.4316  0.4009
  148DOPC   C3217628   1.260   6.130   5.952 -0.3609  0.7744 -0.2316
  148DOPC   H2X17629   1.352   6.168   5.904 -0.2073  0.0118 -0.5496
  148DOPC   H2Y17630   1.244   6.028   5.910  0.9608 -0.0646  1.1828
  148DOPC   C2317631   1.888   5.927   5.926 -0.7228 -0.0301 -0.0690
  148DOPC   H3R17632   1.890   5.818   5.906  0.2365 -0.2916  1.2971
  148DOPC   H3S17633   1.990   5.954   5.891 -0.0846  0.7791  2.2586
  148DOPC   C2417634   1.793   6.006   5.831  0.2310  0.7845  0.1627
  148DOPC   H4R17635   1.842   6.104   5.814 -0.0787  1.4084  2.4845
  148DOPC   H4S17636   1.703   6.025   5.894 -0.0197 -0.2958  0.1583
  148DOPC   C2517637   1.772   5.944   5.695 -0.2130  0.5487 -0.7436
  148DOPC   H5R17638   1.854   5.963   5.622 -0.4206 -0.8619 -1.3890
  148DOPC   H5S17639   1.694   5.996   5.635  2.7760  0.9497 -4.7153
  148DOPC   C2617640   1.742   5.798   5.700  0.5552  1.1375  0.2854
  148DOPC   H6R17641   1.661   5.796   5.776 -0.2387 -1.5605 -0.5260
  148DOPC   H6S17642   1.822   5.735   5.745  1.0308  0.9310 -0.7986
  148DOPC   C2717643   1.686   5.732   5.573  0.5015 -0.3799  0.4825
  148DOPC   H7R17644   1.757   5.764   5.494 -0.2922 -1.6078 -0.7655
  148DOPC   H7S17645   1.583   5.766   5.550  0.0710 -0.9784  1.4565
  148DOPC   C2817646   1.691   5.578   5.583 -0.4124 -0.1379 -0.0442
  148DOPC   H8R17647   1.798   5.552   5.596 -0.6370 -0.9009  0.3357
  148DOPC   H8S17648   1.654   5.532   5.489 -1.4389  0.5654 -0.0004
  148DOPC   C2917649   1.612   5.515   5.705 -0.0035  0.0624  0.0358
  148DOPC   H9R17650   1.625   5.561   5.804  0.7696  0.0852 -0.0675
  148DOPC  C21017651   1.530   5.407   5.697 -0.1812  0.0212  0.0785
  148DOPC  H10R17652   1.491   5.379   5.795 -1.2568  0.7679 -0.1266
  148DOPC  C21117653   1.492   5.327   5.576  0.4911 -0.0079 -0.5041
  148DOPC  H11R17654   1.449   5.231   5.612  1.8070 -0.2874  0.3698
  148DOPC  H11S17655   1.586   5.311   5.519  0.0173 -0.4503 -1.1684
  148DOPC  C21217656   1.379   5.402   5.493  0.3748 -0.6192  0.1902
  148DOPC  H12R17657   1.411   5.506   5.473  0.5435 -0.6928  0.0710
  148DOPC  H12S17658   1.285   5.399   5.552 -0.2739  3.1117 -0.4089
  148DOPC  C21317659   1.337   5.340   5.354 -0.2865 -0.0153  0.3883
  148DOPC  H13R17660   1.315   5.232   5.366 -0.5124  0.1880  1.9564
  148DOPC  H13S17661   1.411   5.357   5.273  1.1679 -0.8518  1.4998
  148DOPC  C21417662   1.208   5.406   5.307 -0.5743  0.5827 -0.4784
  148DOPC  H14R17663   1.233   5.506   5.267  1.3317 -0.0733 -1.0284
  148DOPC  H14S17664   1.144   5.401   5.397 -0.9626  2.4597 -0.6232
  148DOPC  C21517665   1.127   5.326   5.204 -0.2272  0.3209  0.6184
  148DOPC  H15R17666   1.104   5.228   5.252  0.3179  1.2643  2.9519
  148DOPC  H15S17667   1.187   5.307   5.112 -1.1508 -0.1456  0.0984
  148DOPC  C21617668   0.991   5.396   5.168 -0.0234 -0.3042  0.4685
  148DOPC  H16R17669   0.919   5.382   5.251  1.1814 -1.2388  1.3889
  148DOPC  H16S17670   0.945   5.332   5.089  0.1972  0.5413 -0.3640
  148DOPC  C21717671   1.004   5.535   5.118 -0.0218 -0.8303  0.0852
  148DOPC  H17R17672   1.062   5.542   5.024 -1.1674  1.1357 -0.5410
  148DOPC  H17S17673   1.058   5.603   5.186 -0.4163  0.9711 -1.3210
  148DOPC  C21817674   0.864   5.592   5.087  0.5966  0.1828 -0.8661
  148DOPC  H18R17675   0.817   5.638   5.176  2.0319  0.0534 -0.0178
  148DOPC  H18S17676   0.796   5.515   5.044  0.2299 -1.3266  2.1762
  148DOPC  H18T17677   0.868   5.669   5.007  1.8183  0.4151 -0.6048
  148DOPC   C3317678   1.136   6.216   5.910  0.4358 -0.6215 -0.3324
  148DOPC   H3X17679   1.045   6.199   5.971 -0.0237 -0.1811 -0.8845
  148DOPC   H3Y17680   1.111   6.176   5.810  0.3067 -1.8970  0.1875
  148DOPC   C3417681   1.155   6.373   5.918 -0.4396  0.5180 -1.1983
  148DOPC   H4X17682   1.067   6.418   5.869  0.2410  2.6549 -0.5659
  148DOPC   H4Y17683   1.244   6.413   5.865  0.6956  0.6073  0.6750
  148DOPC   C3517684   1.167   6.430   6.059 -0.2869  0.0195 -0.3405
  148DOPC   H5X17685   1.260   6.402   6.112 -0.9191 -0.3171  0.6271
  148DOPC   H5Y17686   1.095   6.370   6.119  0.3466  2.2074  2.8769
  148DOPC   C3617687   1.136   6.580   6.079 -0.0154  0.4243  0.4137
  148DOPC   H6X17688   1.037   6.600   6.034  0.9904  1.4795 -1.5022
  148DOPC   H6Y17689   1.133   6.599   6.188 -1.7076  0.9643  0.3028
  148DOPC   C3717690   1.232   6.667   6.003 -0.3822 -0.2557  0.6289
  148DOPC   H7X17691   1.332   6.650   6.048  0.5467  0.9343 -0.8732
  148DOPC   H7Y17692   1.237   6.639   5.895  0.2331  0.7376  0.3858
  148DOPC   C3817693   1.210   6.818   6.013 -0.3100  0.4879 -0.3385
  148DOPC   H8X17694   1.107   6.846   5.982 -1.8920 -1.9070  2.3005
  148DOPC   H8Y17695   1.283   6.853   5.937  0.9640  1.0866  1.0987
  148DOPC   C3917696   1.228   6.878   6.150  0.4898 -0.0496  0.0142
  148DOPC   H9X17697   1.146   6.872   6.223  0.8227 -1.8373  0.2732
  148DOPC  C31017698   1.343   6.939   6.184  0.6910 -0.0193  0.2734
  148DOPC  H10X17699   1.343   6.966   6.290  0.4947 -0.7831  0.4768
  148DOPC  C31117700   1.469   6.959   6.108  0.1205 -0.6040 -0.7293
  148DOPC  H11X17701   1.524   7.050   6.141 -1.0613 -0.1112 -0.0938
  148DOPC  H11Y17702   1.449   6.990   6.003 -0.2902  0.3742 -0.3713
  148DOPC  C31217703   1.569   6.847   6.100 -0.5199 -0.3378  0.3390
  148DOPC  H12X17704   1.514   6.762   6.057 -0.9557 -0.2633  0.7454
  148DOPC  H12Y17705   1.605   6.815   6.200 -1.2829 -0.4237  0.5894
  148DOPC  C31317706   1.687   6.871   6.008 -0.4359 -0.3438  0.0819
  148DOPC  H13X17707   1.765   6.931   6.061 -2.1118  2.0370  0.0417
  148DOPC  H13Y17708   1.733   6.776   5.974  0.7122 -0.4140  1.7189
  148DOPC  C31417709   1.661   6.938   5.869 -0.0753  0.0033 -0.0391
  148DOPC  H14X17710   1.632   7.043   5.892 -1.0374 -0.1985 -0.2795
  148DOPC  H14Y17711   1.762   6.938   5.824  0.8853  1.9811  1.8951
  148DOPC  C31517712   1.562   6.873   5.772 -0.1142 -0.0592  0.4773
  148DOPC  H15X17713   1.457   6.887   5.807 -1.2369  2.7099 -3.3474
  148DOPC  H15Y17714   1.580   6.763   5.773  1.3345  0.1490 -0.4912
  148DOPC  C31617715   1.567   6.925   5.624  0.3566  0.6459 -0.2090
  148DOPC  H16X17716   1.568   7.036   5.611  2.0602  0.6091 -0.6059
  148DOPC  H16Y17717   1.656   6.878   5.577  0.5977 -0.1891  1.0340
  148DOPC  C31717718   1.444   6.867   5.548  0.0969  0.3167  0.4076
  148DOPC  H17X17719   1.473   6.864   5.440 -0.9093 -0.5022  0.1412
  148DOPC  H17Y17720   1.425   6.760   5.572  0.9834  0.1450  0.3658
  148DOPC  C31817721   1.318   6.947   5.567  0.2421  0.2261  0.0866
  148DOPC  H18X17722   1.329   7.052   5.532  0.8043  0.2745  0.4020
  148DOPC  H18Y17723   1.237   6.906   5.503 -1.9889  0.5966  2.4942
  148DOPC  H18Z17724   1.275   6.926   5.667 -1.4198  0.2684 -0.5831
  149DOPC     N17725   1.506   1.544   7.215  0.5737  0.8315 -0.0837
  149DOPC   C1217726   1.475   1.582   7.073 -0.4382  0.7175 -0.9568
  149DOPC  H12A17727   1.377   1.556   7.036  0.6183  0.5717 -3.9354
  149DOPC  H12B17728   1.534   1.512   7.016 -0.0452 -0.5037  0.8786
  149DOPC   C1317729   1.509   1.394   7.219  0.5646 -0.0881 -0.2821
  149DOPC  H13A17730   1.407   1.364   7.199  0.8115  0.1101 -1.9813
  149DOPC  H13B17731   1.571   1.350   7.143 -2.2510 -2.2381 -1.5084
  149DOPC  H13C17732   1.541   1.365   7.318  0.3584  4.2977  1.3261
  149DOPC   C1417733   1.417   1.596   7.322 -0.6480  0.1258  0.4724
  149DOPC  H14A17734   1.429   1.542   7.415  0.1728  0.7452  0.7414
  149DOPC  H14B17735   1.432   1.700   7.348 -2.0074  0.8927 -1.5697
  149DOPC  H14C17736   1.316   1.580   7.288 -0.3935 -0.0781 -0.2149
  149DOPC   C1517737   1.641   1.589   7.251 -0.2200 -0.2562 -1.2628
  149DOPC  H15A17738   1.668   1.538   7.342 -0.1504 -0.3260 -1.3237
  149DOPC  H15B17739   1.640   1.693   7.283  0.2633 -0.3040 -1.0792
  149DOPC  H15C17740   1.708   1.575   7.169 -0.5697  0.4174 -1.6790
  149DOPC   C1117741   1.491   1.728   7.045 -0.1420 -0.2484 -0.4032
  149DOPC  H11A17742   1.592   1.768   7.069 -0.6388  2.1065 -1.8596
  149DOPC  H11B17743   1.487   1.726   6.934  1.1335 -2.6281 -0.4557
  149DOPC     P17744   1.243   1.802   7.079  0.1807 -0.5038  0.3222
  149DOPC   O1317745   1.163   1.899   7.155  0.1888 -0.6400 -0.4486
  149DOPC   O1417746   1.204   1.657   7.094 -0.3789  0.0869 -0.2342
  149DOPC   O1217747   1.390   1.813   7.109 -0.3296  0.6575  0.2148
  149DOPC   O1117748   1.238   1.839   6.926 -0.2778  0.4173  0.0134
  149DOPC    C117749   1.309   1.950   6.878 -0.0823 -0.9079 -0.2661
  149DOPC    HA17750   1.409   1.959   6.927 -0.1241  1.4004 -0.5080
  149DOPC    HB17751   1.255   2.044   6.899  1.0835 -0.4224  0.7175
  149DOPC    C217752   1.336   1.936   6.724  0.0060  0.3652 -0.1337
  149DOPC    HS17753   1.412   2.009   6.688  3.6827 -3.4029 -0.6750
  149DOPC   O2117754   1.214   1.950   6.647 -0.4763  0.6645  0.2047
  149DOPC   C2117755   1.164   2.067   6.637  0.1132 -0.8893 -1.2671
  149DOPC   O2217756   1.215   2.173   6.678 -0.0912 -0.2450  0.2140
  149DOPC   C2217757   1.044   2.071   6.545  0.2106  0.2442 -0.3837
  149DOPC   H2R17758   1.028   1.980   6.484 -0.8947  0.7558 -0.8850
  149DOPC   H2S17759   1.070   2.160   6.483 -0.6314  2.0619  1.7338
  149DOPC    C317760   1.404   1.798   6.687  0.1107 -0.1108  0.9407
  149DOPC    HX17761   1.332   1.720   6.721 -0.5446  0.0855  0.0281
  149DOPC    HY17762   1.497   1.772   6.742  1.0306  1.3010  0.1093
  149DOPC   O3117763   1.422   1.783   6.545  0.0532 -0.9399  0.4057
  149DOPC   C3117764   1.532   1.845   6.492  0.1517 -0.2200  0.3197
  149DOPC   O3217765   1.616   1.905   6.555 -0.0264 -0.4535 -0.2215
  149DOPC   C3217766   1.521   1.821   6.340 -0.0053 -0.1844  0.1193
  149DOPC   H2X17767   1.621   1.843   6.298 -0.3980 -0.5976 -1.0661
  149DOPC   H2Y17768   1.502   1.712   6.327 -0.0291 -0.2130  0.3803
  149DOPC   C2317769   0.911   2.075   6.618  0.1434 -0.2869  0.2479
  149DOPC   H3R17770   0.920   2.001   6.700  1.6338 -1.8624 -1.2576
  149DOPC   H3S17771   0.832   2.052   6.543 -1.9485  1.1242  1.8940
  149DOPC   C2417772   0.873   2.201   6.687 -0.0334 -0.3279  0.2665
  149DOPC   H4R17773   0.937   2.241   6.768  0.4047 -0.9490  0.2296
  149DOPC   H4S17774   0.780   2.178   6.744 -0.3573 -0.2638 -0.2197
  149DOPC   C2517775   0.835   2.325   6.590 -0.7924 -0.0891 -0.7152
  149DOPC   H5R17776   0.928   2.350   6.534 -0.2119 -1.4005 -0.3769
  149DOPC   H5S17777   0.792   2.413   6.642 -0.8128 -0.3414 -0.2997
  149DOPC   C2617778   0.727   2.293   6.487  0.3850  0.2073 -0.3764
  149DOPC   H6R17779   0.629   2.268   6.533  0.7590  2.5146  1.8558
  149DOPC   H6S17780   0.776   2.207   6.436 -0.0987  0.0725 -0.6274
  149DOPC   C2717781   0.716   2.396   6.381  0.4423  0.5627  0.7099
  149DOPC   H7R17782   0.653   2.346   6.304 -0.2866  1.8434  0.4383
  149DOPC   H7S17783   0.813   2.416   6.332  0.7740 -1.6047  0.3869
  149DOPC   C2817784   0.621   2.510   6.412  0.4747 -0.5683 -0.1619
  149DOPC   H8R17785   0.528   2.459   6.446  0.4419 -0.8916 -0.7222
  149DOPC   H8S17786   0.589   2.547   6.312 -1.0211 -2.5297 -0.4754
  149DOPC   C2917787   0.652   2.603   6.523 -0.5141 -0.6825  0.8130
  149DOPC   H9R17788   0.639   2.560   6.623 -1.6733 -1.1909  0.4736
  149DOPC  C21017789   0.679   2.731   6.523 -0.4350 -0.1696  0.3223
  149DOPC  H10R17790   0.693   2.790   6.615 -0.3277  0.8995 -0.3517
  149DOPC  C21117791   0.689   2.815   6.399  0.5593  0.0433 -0.0502
  149DOPC  H11R17792   0.631   2.909   6.411 -1.7213 -1.3595  0.4933
  149DOPC  H11S17793   0.661   2.760   6.306  2.4540 -0.7590 -0.2066
  149DOPC  C21217794   0.834   2.862   6.383 -0.5579 -0.8534  0.6513
  149DOPC  H12R17795   0.870   2.903   6.480 -0.3335 -1.5122  0.8507
  149DOPC  H12S17796   0.845   2.950   6.316 -0.0942 -1.1308  0.3583
  149DOPC  C21317797   0.935   2.765   6.317 -0.4478  0.2034  0.0456
  149DOPC  H13R17798   0.887   2.697   6.243 -0.7141  1.6445 -1.1455
  149DOPC  H13S17799   0.972   2.695   6.396  0.7789 -1.2670 -1.7430
  149DOPC  C21417800   1.059   2.829   6.244 -0.0844  0.0296 -0.0292
  149DOPC  H14R17801   1.112   2.884   6.324 -1.4448 -0.4805  1.2683
  149DOPC  H14S17802   1.021   2.896   6.164  0.0733  0.4506  0.2475
  149DOPC  C21517803   1.156   2.724   6.181  0.5274  0.1860 -0.2210
  149DOPC  H15R17804   1.096   2.646   6.130  2.9212 -2.2813  0.5111
  149DOPC  H15S17805   1.212   2.676   6.264 -0.6794 -0.2406  0.3761
  149DOPC  C21617806   1.264   2.782   6.084  0.3147  0.4259 -1.1610
  149DOPC  H16R17807   1.336   2.853   6.131  1.1482 -0.5852 -0.8822
  149DOPC  H16S17808   1.217   2.835   5.998  0.3135  0.4392 -1.1520
  149DOPC  C21717809   1.369   2.685   6.021 -0.1937 -0.2568 -0.2084
  149DOPC  H17R17810   1.434   2.740   5.949  2.1457  0.1858  2.0527
  149DOPC  H17S17811   1.319   2.605   5.964  1.8828 -1.2217 -0.7692
  149DOPC  C21817812   1.456   2.610   6.125 -0.4566 -0.3159  0.1075
  149DOPC  H18R17813   1.400   2.566   6.210 -0.7403 -0.1043  0.0288
  149DOPC  H18S17814   1.531   2.677   6.174 -1.3308  1.3762 -0.7920
  149DOPC  H18T17815   1.528   2.538   6.081  0.4298 -0.5542  1.8355
  149DOPC   C3317816   1.422   1.907   6.269  0.6851 -0.2001 -0.4611
  149DOPC   H3X17817   1.324   1.891   6.319 -0.0708 -2.1668 -2.4035
  149DOPC   H3Y17818   1.413   1.893   6.159  0.0121 -4.6658 -0.0499
  149DOPC   C3417819   1.461   2.057   6.283 -0.2314 -0.8974 -0.2264
  149DOPC   H4X17820   1.570   2.057   6.260 -0.5890  0.7673 -2.2469
  149DOPC   H4Y17821   1.463   2.095   6.388 -1.0799  0.1563 -0.5774
  149DOPC   C3517822   1.392   2.151   6.188  0.1768  0.6833 -0.2774
  149DOPC   H5X17823   1.411   2.130   6.081 -0.9138  1.2298 -0.5906
  149DOPC   H5Y17824   1.420   2.257   6.200  1.3745  0.7980 -3.2406
  149DOPC   C3617825   1.240   2.129   6.211  0.4608  0.0535  0.0848
  149DOPC   H6X17826   1.215   2.027   6.174 -1.8066  0.5762 -0.0115
  149DOPC   H6Y17827   1.219   2.142   6.319  1.8922  1.8661  0.1998
  149DOPC   C3717828   1.164   2.245   6.137 -0.6299  0.3527 -0.4550
  149DOPC   H7X17829   1.189   2.339   6.191 -0.1476  0.6170 -1.1252
  149DOPC   H7Y17830   1.198   2.265   6.033 -0.9440 -1.5419 -0.9556
  149DOPC   C3817831   1.016   2.215   6.146 -0.0020  0.3640 -0.3978
  149DOPC   H8X17832   0.990   2.203   6.254  0.2843 -2.1378 -0.5370
  149DOPC   H8Y17833   0.996   2.115   6.102  0.1176  0.1600  0.0027
  149DOPC   C3917834   0.917   2.312   6.084  0.4126 -0.4293 -0.0620
  149DOPC   H9X17835   0.907   2.406   6.140  1.0891  0.3175 -1.1570
  149DOPC  C31017836   0.848   2.301   5.968 -0.2479 -0.7539  0.0886
  149DOPC  H10X17837   0.770   2.374   5.941 -0.9370 -1.6973 -0.5692
  149DOPC  C31117838   0.866   2.186   5.872 -0.1982  0.0183  0.0721
  149DOPC  H11X17839   0.766   2.162   5.830  1.0538 -2.4747 -1.8150
  149DOPC  H11Y17840   0.900   2.089   5.915 -0.2303 -0.8737 -1.7748
  149DOPC  C31217841   0.952   2.232   5.749  0.3863  0.5220 -0.0820
  149DOPC  H12X17842   0.909   2.330   5.717 -2.5646  1.1690  4.7333
  149DOPC  H12Y17843   0.940   2.156   5.669  0.3781  1.4244 -0.9566
  149DOPC  C31317844   1.104   2.238   5.772  0.2396 -0.3616 -0.1039
  149DOPC  H13X17845   1.132   2.331   5.827 -0.3672 -1.5844  2.4170
  149DOPC  H13Y17846   1.126   2.149   5.835 -2.1577  0.4025  2.0424
  149DOPC  C31417847   1.175   2.245   5.642 -0.0120 -0.6118  0.3936
  149DOPC  H14X17848   1.148   2.145   5.600 -1.6682 -1.0438  2.2979
  149DOPC  H14Y17849   1.125   2.312   5.569  3.9076  1.8508 -0.3190
  149DOPC  C31517850   1.322   2.287   5.655 -0.3431 -0.7433  0.7068
  149DOPC  H15X17851   1.313   2.386   5.705  0.4713  0.4943 -1.4485
  149DOPC  H15Y17852   1.360   2.305   5.552 -0.6471  2.5654  1.0544
  149DOPC  C31617853   1.405   2.181   5.723  0.3975 -0.1422 -0.0667
  149DOPC  H16X17854   1.349   2.144   5.811 -0.2494  2.8442  0.8846
  149DOPC  H16Y17855   1.421   2.095   5.654  0.1564  0.7332 -1.2476
  149DOPC  C31717856   1.534   2.233   5.773 -0.3905 -0.5975  0.4806
  149DOPC  H17X17857   1.600   2.262   5.688 -1.7864 -1.2483 -0.8777
  149DOPC  H17Y17858   1.514   2.330   5.823 -0.5514 -0.5352  0.2948
  149DOPC  C31817859   1.606   2.148   5.880 -0.1451 -0.0245  0.1153
  149DOPC  H18X17860   1.635   2.051   5.835  1.3678 -0.6502  2.2710
  149DOPC  H18Y17861   1.695   2.200   5.922 -1.8070  2.1533  1.1241
  149DOPC  H18Z17862   1.540   2.111   5.961  0.2018  1.2360  1.0153
  150DOPC     N17863   4.954   4.438   7.825 -0.5083 -0.1222 -0.2494
  150DOPC   C1217864   4.808   4.466   7.846  0.7005  0.5203  0.0795
  150DOPC  H12A17865   4.789   4.572   7.840  2.3078  0.8693  0.6138
  150DOPC  H12B17866   4.789   4.433   7.947  2.1673  0.8868  0.4925
  150DOPC   C1317867   4.989   4.479   7.691 -0.5856 -0.4442  0.4104
  150DOPC  H13A17868   4.909   4.455   7.624  0.5209  0.4135 -1.3019
  150DOPC  H13B17869   5.001   4.586   7.677 -0.3870 -0.5542 -0.3027
  150DOPC  H13C17870   5.076   4.432   7.648 -3.2720 -2.0511 -3.8671
  150DOPC   C1417871   4.982   4.295   7.828 -0.2586  0.3269 -0.1540
  150DOPC  H14A17872   4.968   4.243   7.922 -0.2128 -0.1318 -0.3964
  150DOPC  H14B17873   4.909   4.252   7.761  0.0000  2.1159 -1.6642
  150DOPC  H14C17874   5.083   4.271   7.796 -0.2557  0.0154  0.0746
  150DOPC   C1517875   5.034   4.507   7.927 -0.0206 -0.5117 -0.5774
  150DOPC  H15A17876   5.030   4.615   7.918 -0.6664 -0.4650  0.1142
  150DOPC  H15B17877   5.136   4.473   7.933  0.4086  0.9160  1.6377
  150DOPC  H15C17878   4.986   4.489   8.022 -0.5793  0.8209 -0.5800
  150DOPC   C1117879   4.710   4.399   7.746  0.5520  1.1545 -0.2785
  150DOPC  H11A17880   4.716   4.290   7.768 -1.3410  1.6273  3.3245
  150DOPC  H11B17881   4.618   4.443   7.790  0.4828 -1.6973  2.7671
  150DOPC     P17882   4.659   4.579   7.554 -0.1475  0.2364 -0.1558
  150DOPC   O1317883   4.768   4.680   7.570  0.5126  0.1055  0.0512
  150DOPC   O1417884   4.530   4.615   7.618  0.0877  0.0658  0.2205
  150DOPC   O1217885   4.716   4.440   7.606  0.3280  0.1673 -0.4979
  150DOPC   O1117886   4.627   4.552   7.396 -0.0527  0.0863  0.0458
  150DOPC    C117887   4.574   4.428   7.344  0.0510  0.0675 -0.5120
  150DOPC    HA17888   4.519   4.374   7.424  1.1258  1.1482  1.0119
  150DOPC    HB17889   4.653   4.360   7.306 -0.5461 -0.4308 -0.8820
  150DOPC    C217890   4.484   4.461   7.224  0.1119 -0.4507 -0.4735
  150DOPC    HS17891   4.441   4.364   7.188  0.8045 -0.7157 -0.6096
  150DOPC   O2117892   4.575   4.521   7.123  0.5768 -0.1135 -0.1803
  150DOPC   C2117893   4.533   4.512   7.006 -0.6289  0.4724  0.7714
  150DOPC   O2217894   4.443   4.445   6.955  0.3366 -0.1888 -0.0469
  150DOPC   C2217895   4.638   4.594   6.926  0.5895  0.0234  0.1133
  150DOPC   H2R17896   4.736   4.601   6.979  1.3327  1.0485 -1.3208
  150DOPC   H2S17897   4.588   4.691   6.910 -3.1600 -1.8022 -0.1976
  150DOPC    C317898   4.350   4.543   7.254 -1.0036 -0.4283  0.2860
  150DOPC    HX17899   4.395   4.636   7.297 -3.4419  1.3715 -0.8284
  150DOPC    HY17900   4.293   4.513   7.344  2.2381  0.2532  2.7921
  150DOPC   O3117901   4.276   4.577   7.139  0.0412 -0.3847 -0.7327
  150DOPC   C3117902   4.200   4.470   7.110  0.1972  0.1931 -0.2681
  150DOPC   O3217903   4.179   4.374   7.187 -0.4236  0.0132  0.1506
  150DOPC   C3217904   4.141   4.485   6.973 -0.1080  0.1470 -0.7864
  150DOPC   H2X17905   4.041   4.531   6.987 -0.8898 -0.4770 -3.8224
  150DOPC   H2Y17906   4.204   4.547   6.905  1.5686  0.7073  1.1625
  150DOPC   C2317907   4.664   4.541   6.781 -0.2174  0.7308 -0.1367
  150DOPC   H3R17908   4.674   4.431   6.783  1.2630  0.8273 -0.8963
  150DOPC   H3S17909   4.758   4.589   6.747 -0.3660 -0.4311 -2.3924
  150DOPC   C2417910   4.563   4.564   6.675  0.3520 -0.1061  0.2368
  150DOPC   H4R17911   4.519   4.666   6.686  0.8596  0.0238  1.2018
  150DOPC   H4S17912   4.480   4.493   6.695 -0.4554  0.2218 -1.7146
  150DOPC   C2517913   4.628   4.554   6.538 -0.0658 -0.1747 -0.3266
  150DOPC   H5R17914   4.657   4.447   6.532 -0.8467 -0.8921  4.5557
  150DOPC   H5S17915   4.721   4.616   6.538  0.5467 -1.0679  0.8202
  150DOPC   C2617916   4.534   4.596   6.423 -0.1111 -0.2064 -0.1258
  150DOPC   H6R17917   4.503   4.703   6.429 -1.0571 -0.3760 -1.5777
  150DOPC   H6S17918   4.438   4.541   6.430 -0.3061  0.2585  1.1963
  150DOPC   C2717919   4.597   4.573   6.284 -0.4307 -0.1069  0.8375
  150DOPC   H7R17920   4.586   4.465   6.262 -0.3099  0.0523 -0.0435
  150DOPC   H7S17921   4.704   4.598   6.267 -0.6823  0.7497  0.4706
  150DOPC   C2817922   4.518   4.649   6.170  0.1235  0.1007  0.6224
  150DOPC   H8R17923   4.564   4.749   6.154 -2.5953  1.1285 -1.5974
  150DOPC   H8S17924   4.417   4.667   6.212 -0.0981 -2.1180  1.1239
  150DOPC   C2917925   4.517   4.580   6.035 -0.2416  0.4316 -0.5210
  150DOPC   H9R17926   4.518   4.471   6.039 -2.8867  0.3270 -1.2662
  150DOPC  C21017927   4.544   4.634   5.916 -0.0698 -0.0795 -0.2230
  150DOPC  H10R17928   4.536   4.563   5.832 -0.6504 -0.3799  0.0811
  150DOPC  C21117929   4.576   4.774   5.891  0.2556 -0.0562  0.1042
  150DOPC  H11R17930   4.683   4.799   5.908  0.2941  0.9856 -1.3963
  150DOPC  H11S17931   4.513   4.842   5.953  1.2515  0.6895  0.3168
  150DOPC  C21217932   4.550   4.822   5.742 -0.0606  0.3666 -0.1020
  150DOPC  H12R17933   4.629   4.777   5.679  1.5221 -0.4259  2.2817
  150DOPC  H12S17934   4.568   4.932   5.737  1.4167  0.1208 -0.7069
  150DOPC  C21317935   4.414   4.783   5.684 -0.1225  0.3266 -0.3454
  150DOPC  H13R17936   4.344   4.843   5.745 -0.3080 -0.6619  0.4457
  150DOPC  H13S17937   4.378   4.679   5.700  1.5766 -0.3174 -0.4331
  150DOPC  C21417938   4.392   4.826   5.535  0.7557 -0.4105  0.2303
  150DOPC  H14R17939   4.380   4.936   5.537  3.8874  0.0133  0.6857
  150DOPC  H14S17940   4.292   4.783   5.513 -0.5801  2.5210  0.0909
  150DOPC  C21517941   4.488   4.780   5.432 -0.0272 -0.3370  0.3067
  150DOPC  H15R17942   4.565   4.705   5.461 -0.1108 -0.7142 -0.4197
  150DOPC  H15S17943   4.548   4.871   5.406 -0.0183 -0.2116  0.7595
  150DOPC  C21617944   4.423   4.748   5.299 -0.3801 -0.4522  0.3361
  150DOPC  H16R17945   4.345   4.670   5.317  0.7442 -1.3789  1.3460
  150DOPC  H16S17946   4.504   4.710   5.233 -1.0325 -0.2334 -0.6080
  150DOPC  C21717947   4.360   4.872   5.232  0.1544 -0.9259  0.9044
  150DOPC  H17R17948   4.448   4.939   5.220 -1.8641  1.6893 -0.4493
  150DOPC  H17S17949   4.290   4.928   5.298 -0.9534 -1.4167  0.1604
  150DOPC  C21817950   4.292   4.850   5.097  0.3706 -0.6294  0.4115
  150DOPC  H18R17951   4.351   4.778   5.036  0.3108 -0.9032  0.6773
  150DOPC  H18S17952   4.277   4.946   5.043  1.3337 -0.1836  0.8964
  150DOPC  H18T17953   4.193   4.802   5.113  0.8502 -2.1496 -0.8559
  150DOPC   C3317954   4.122   4.338   6.908 -0.2339  0.4040  0.2192
  150DOPC   H3X17955   4.098   4.265   6.989  0.0387  0.6015  0.4815
  150DOPC   H3Y17956   4.220   4.309   6.862 -0.4965  0.3708 -0.3302
  150DOPC   C3417957   4.012   4.332   6.798  0.1531  0.3389  0.7225
  150DOPC   H4X17958   4.007   4.429   6.742  1.1357  0.5692  1.0074
  150DOPC   H4Y17959   3.913   4.312   6.844  0.5324 -2.1806  0.5957
  150DOPC   C3517960   4.050   4.221   6.695  0.4381 -0.4224 -0.2723
  150DOPC   H5X17961   4.057   4.134   6.764  0.3566 -0.5146 -0.3802
  150DOPC   H5Y17962   4.136   4.242   6.628  1.5095  0.4830  1.3129
  150DOPC   C3617963   3.934   4.192   6.592 -0.1125 -0.0561  0.4064
  150DOPC   H6X17964   3.833   4.193   6.639 -0.1178  0.1983  0.3937
  150DOPC   H6Y17965   3.924   4.267   6.511 -1.4074  0.0481  0.6374
  150DOPC   C3717966   3.939   4.052   6.534  0.2866  0.5594 -0.6412
  150DOPC   H7X17967   4.031   4.035   6.473  0.1021 -0.7155 -0.5913
  150DOPC   H7Y17968   3.939   3.972   6.611 -2.8532 -1.0347 -2.0945
  150DOPC   C3817969   3.810   4.030   6.446 -0.1537  0.0318  0.3222
  150DOPC   H8X17970   3.798   4.126   6.391  0.3800  0.6445  1.2340
  150DOPC   H8Y17971   3.719   4.016   6.509 -1.3378 -2.6312 -1.7892
  150DOPC   C3917972   3.834   3.912   6.354  1.2514  0.1922 -0.3678
  150DOPC   H9X17973   3.794   3.814   6.386  2.0075 -0.6083 -1.7661
  150DOPC  C31017974   3.873   3.914   6.227 -0.0780  0.6448  0.0608
  150DOPC  H10X17975   3.864   3.825   6.164  1.2657  1.3331 -1.1680
  150DOPC  C31117976   3.911   4.042   6.156 -0.6595  0.4557 -0.4134
  150DOPC  H11X17977   4.021   4.051   6.166 -0.6942 -0.4552  1.1109
  150DOPC  H11Y17978   3.868   4.134   6.200 -2.2102 -1.0495  1.4140
  150DOPC  C31217979   3.853   4.050   6.015  0.0929  0.3157  0.2243
  150DOPC  H12X17980   3.742   4.043   6.020  0.0390  0.3033 -0.8448
  150DOPC  H12Y17981   3.887   3.961   5.958 -1.5698  0.0826 -0.4650
  150DOPC  C31317982   3.906   4.170   5.954  0.8443 -0.6470  0.4465
  150DOPC  H13X17983   3.849   4.260   5.988 -0.2248 -1.2772  0.3604
  150DOPC  H13Y17984   4.008   4.193   5.989  1.3359  0.2414 -1.4381
  150DOPC  C31417985   3.916   4.170   5.797 -0.3510  0.5789  0.7157
  150DOPC  H14X17986   3.983   4.255   5.774  0.8049 -0.4763  0.0266
  150DOPC  H14Y17987   3.941   4.071   5.753 -0.4162  1.5689 -1.6561
  150DOPC  C31517988   3.785   4.199   5.735  0.4873 -0.4202  0.0022
  150DOPC  H15X17989   3.755   4.303   5.763  1.6728  0.2953 -1.2148
  150DOPC  H15Y17990   3.699   4.142   5.775 -2.9499  5.0305  1.5907
  150DOPC  C31617991   3.789   4.189   5.584 -0.4519  0.2308 -0.0981
  150DOPC  H16X17992   3.864   4.258   5.540  0.7289 -0.7140  0.3753
  150DOPC  H16Y17993   3.808   4.083   5.556  0.3404  1.0691 -3.0410
  150DOPC  C31717994   3.649   4.212   5.518  0.2613 -0.5489 -0.1111
  150DOPC  H17X17995   3.577   4.156   5.582 -1.0215  1.0684 -0.0567
  150DOPC  H17Y17996   3.622   4.318   5.540  1.9190 -0.4999  2.0051
  150DOPC  C31817997   3.634   4.160   5.378 -0.5363 -0.4517  0.5445
  150DOPC  H18X17998   3.701   4.215   5.308 -0.2313 -2.2732 -0.6683
  150DOPC  H18Y17999   3.670   4.055   5.369 -1.0684 -0.5669 -0.3812
  150DOPC  H18Z18000   3.529   4.169   5.341 -0.4846 -1.2681  0.1661
  151DOPC     N18001   1.220   2.495   6.975  0.5438  0.4172  0.6158
  151DOPC   C1218002   1.264   2.602   6.878  0.3373 -0.8107  0.2401
  151DOPC  H12A18003   1.176   2.640   6.829  0.8036 -0.1287 -0.0831
  151DOPC  H12B18004   1.327   2.561   6.800  1.0689  0.7353 -0.0313
  151DOPC   C1318005   1.335   2.450   7.056 -0.3545  0.1480  0.8568
  151DOPC  H13A18006   1.414   2.402   6.999  0.0224  1.3907  0.3048
  151DOPC  H13B18007   1.389   2.537   7.090 -1.9743  1.4603  0.2319
  151DOPC  H13C18008   1.307   2.378   7.132  2.1392 -1.1337  0.6606
  151DOPC   C1418009   1.165   2.379   6.906 -0.5106  0.0728 -0.3334
  151DOPC  H14A18010   1.083   2.404   6.840 -0.6206 -0.3400 -0.3588
  151DOPC  H14B18011   1.245   2.322   6.861 -0.6343  0.9047 -1.6597
  151DOPC  H14C18012   1.120   2.309   6.976 -1.7402  1.0266 -0.1385
  151DOPC   C1518013   1.118   2.556   7.064 -0.0595  0.1724  0.3601
  151DOPC  H15A18014   1.084   2.492   7.143  0.7534  0.8141  1.2463
  151DOPC  H15B18015   1.032   2.601   7.016 -1.5045 -0.6234  2.1068
  151DOPC  H15C18016   1.161   2.639   7.117 -0.8121  1.9787 -1.6718
  151DOPC   C1118017   1.339   2.722   6.933 -0.2748 -0.0164  0.2030
  151DOPC  H11A18018   1.445   2.691   6.949 -0.3329 -1.9074 -2.3557
  151DOPC  H11B18019   1.356   2.788   6.846  4.3380 -1.1360 -0.0135
  151DOPC     P18020   1.213   2.931   7.041 -0.0413  0.2976  0.3904
  151DOPC   O1318021   1.310   3.030   7.008 -0.1414 -0.1228 -0.0927
  151DOPC   O1418022   1.140   2.946   7.168  0.1492  0.2917 -0.2436
  151DOPC   O1218023   1.289   2.787   7.047  0.6451  0.0496 -0.3072
  151DOPC   O1118024   1.124   2.905   6.917  0.0566 -0.7890 -0.4005
  151DOPC    C118025   1.038   3.015   6.862 -0.4920  0.3330 -0.3127
  151DOPC    HA18026   1.069   3.118   6.891  1.2933  0.4977 -2.5480
  151DOPC    HB18027   0.938   2.989   6.901 -0.9917  1.2360 -0.9607
  151DOPC    C218028   1.040   3.018   6.712 -0.9307 -0.5641 -0.3236
  151DOPC    HS18029   0.979   2.934   6.673  1.1467 -1.8191 -1.0916
  151DOPC   O2118030   1.178   3.026   6.665 -0.2482 -0.1263  0.5657
  151DOPC   C2118031   1.222   2.907   6.639  0.4309 -0.0463  0.6883
  151DOPC   O2218032   1.156   2.802   6.637  0.3760 -0.0416 -0.3459
  151DOPC   C2218033   1.361   2.919   6.586  0.1041  0.0982 -0.4287
  151DOPC   H2R18034   1.419   2.973   6.664 -1.1554  1.0523 -0.1043
  151DOPC   H2S18035   1.358   2.979   6.492 -1.4997  1.9716  0.7296
  151DOPC    C318036   0.972   3.143   6.656  0.2478 -0.1388  0.0420
  151DOPC    HX18037   1.033   3.231   6.687  0.9991 -0.1844 -1.2336
  151DOPC    HY18038   0.865   3.146   6.684 -0.1264 -0.6532 -1.2524
  151DOPC   O3118039   0.972   3.138   6.510  0.3267 -0.1028  0.3504
  151DOPC   C3118040   1.074   3.189   6.443 -0.7399  0.1655 -0.5292
  151DOPC   O3218041   1.170   3.245   6.498  0.3870 -0.1317 -0.6476
  151DOPC   C3218042   1.046   3.196   6.289  0.2907  0.4992 -0.5142
  151DOPC   H2X18043   0.976   3.116   6.257 -0.5742  1.3899 -0.8503
  151DOPC   H2Y18044   0.988   3.289   6.272 -4.4885 -1.9293  0.7343
  151DOPC   C2318045   1.418   2.778   6.555 -0.7855  0.2795  0.0498
  151DOPC   H3R18046   1.358   2.725   6.479  0.1638  0.1307 -0.6075
  151DOPC   H3S18047   1.432   2.723   6.651 -0.6529 -1.6382 -1.0240
  151DOPC   C2418048   1.556   2.790   6.486  0.4613  0.3055 -0.6045
  151DOPC   H4R18049   1.622   2.847   6.556  0.2074 -1.2222  0.9646
  151DOPC   H4S18050   1.548   2.836   6.386  0.6116 -1.0911 -1.2871
  151DOPC   C2518051   1.614   2.648   6.464  0.7897 -0.3178 -0.8437
  151DOPC   H5R18052   1.542   2.584   6.409  1.6630 -1.1651 -1.0334
  151DOPC   H5S18053   1.648   2.610   6.563 -2.0673  1.2542  0.8703
  151DOPC   C2618054   1.744   2.659   6.376  0.0549 -0.8742 -0.0229
  151DOPC   H6R18055   1.834   2.700   6.426 -0.0779 -1.7892  1.0073
  151DOPC   H6S18056   1.720   2.709   6.280  1.8335 -1.8088 -0.9983
  151DOPC   C2718057   1.787   2.516   6.339  0.2964 -0.8802 -0.3312
  151DOPC   H7R18058   1.699   2.450   6.356  0.1473 -0.3333  1.1970
  151DOPC   H7S18059   1.871   2.481   6.402  0.5775 -1.6872 -1.1302
  151DOPC   C2818060   1.833   2.512   6.192  0.2044 -0.4267 -0.3201
  151DOPC   H8R18061   1.743   2.501   6.128  0.1284  0.3910 -0.3577
  151DOPC   H8S18062   1.886   2.416   6.178  2.2353  0.6713 -0.4498
  151DOPC   C2918063   1.929   2.615   6.139 -0.4164  0.0882  0.7326
  151DOPC   H9R18064   2.025   2.613   6.191 -1.8883 -0.8489  3.6500
  151DOPC  C21018065   1.913   2.709   6.045 -0.4499 -0.1367  0.6834
  151DOPC  H10R18066   2.004   2.768   6.027  0.7629 -1.5383  1.8486
  151DOPC  C21118067   1.790   2.741   5.957 -0.2062  0.8022  0.1521
  151DOPC  H11R18068   1.760   2.845   5.983 -0.9418  1.2998 -2.3466
  151DOPC  H11S18069   1.699   2.685   5.987  0.4527 -0.2466  0.2289
  151DOPC  C21218070   1.818   2.729   5.803  0.0864 -0.0501  0.2593
  151DOPC  H12R18071   1.920   2.769   5.787 -0.0372  0.5247  0.8641
  151DOPC  H12S18072   1.744   2.790   5.748 -0.9339  2.0482  3.6740
  151DOPC  C21318073   1.804   2.586   5.744 -0.2101  0.1094  0.2916
  151DOPC  H13R18074   1.707   2.532   5.751  0.6614 -1.6723 -0.6911
  151DOPC  H13S18075   1.882   2.529   5.797  2.4848  2.6302 -0.6529
  151DOPC  C21418076   1.847   2.589   5.596  0.1953 -0.6870  0.7905
  151DOPC  H14R18077   1.896   2.491   5.577  0.5578 -0.2706 -0.4335
  151DOPC  H14S18078   1.909   2.679   5.580 -3.0639  1.4428 -0.8817
  151DOPC  C21518079   1.738   2.582   5.490 -0.1181 -0.1091 -0.1301
  151DOPC  H15R18080   1.783   2.619   5.395 -0.4486 -0.6186 -0.4967
  151DOPC  H15S18081   1.657   2.655   5.510  0.6227  0.4105  1.0962
  151DOPC  C21618082   1.671   2.443   5.456  0.3699 -0.0867  0.3084
  151DOPC  H16R18083   1.609   2.457   5.365  1.8896 -0.7030 -0.8504
  151DOPC  H16S18084   1.595   2.427   5.537  1.6560  0.8227  1.7453
  151DOPC  C21718085   1.765   2.325   5.440  0.5087 -0.3512 -0.1981
  151DOPC  H17R18086   1.828   2.316   5.531 -0.6555  0.8404  0.7671
  151DOPC  H17S18087   1.844   2.345   5.365  1.3628  3.0103  1.4040
  151DOPC  C21818088   1.680   2.204   5.418 -0.0588  0.6218  0.2929
  151DOPC  H18R18089   1.740   2.117   5.453  0.0008  1.5076  2.4999
  151DOPC  H18S18090   1.652   2.189   5.311  0.2436  0.1292  0.2767
  151DOPC  H18T18091   1.590   2.202   5.482 -1.7198 -4.4373 -1.6643
  151DOPC   C3318092   1.166   3.190   6.196 -0.1252  0.0850  0.5926
  151DOPC   H3X18093   1.218   3.094   6.212  1.1050  0.5524 -0.4367
  151DOPC   H3Y18094   1.247   3.260   6.226  0.3252 -0.7067  1.2416
  151DOPC   C3418095   1.116   3.204   6.051  0.4941 -0.2123  0.0018
  151DOPC   H4X18096   1.061   3.301   6.044 -1.9744 -1.5780 -0.4936
  151DOPC   H4Y18097   1.046   3.119   6.040 -1.6502  1.0502  2.7658
  151DOPC   C3518098   1.221   3.200   5.947  0.1075 -0.0123 -0.0278
  151DOPC   H5X18099   1.272   3.102   5.955 -3.4012 -1.9763  0.1851
  151DOPC   H5Y18100   1.289   3.283   5.975  1.0258 -0.1494 -1.7090
  151DOPC   C3618101   1.169   3.218   5.803  0.5221 -0.5491 -0.2022
  151DOPC   H6X18102   1.098   3.304   5.794 -0.5999 -1.4619 -0.2772
  151DOPC   H6Y18103   1.251   3.237   5.730  0.1607 -0.7822 -0.6785
  151DOPC   C3718104   1.090   3.091   5.755 -0.4054 -0.7694  0.1392
  151DOPC   H7X18105   1.100   3.001   5.818 -1.7515 -1.8157 -1.0703
  151DOPC   H7Y18106   0.983   3.122   5.766  0.4125  2.0124  1.0887
  151DOPC   C3818107   1.141   3.047   5.619  0.1804 -0.7483  0.6904
  151DOPC   H8X18108   1.096   2.949   5.593  0.7665 -0.6146 -0.9613
  151DOPC   H8Y18109   1.251   3.031   5.628  0.1402 -2.0109 -0.5674
  151DOPC   C3918110   1.114   3.143   5.504  0.1198  0.1056  0.1902
  151DOPC   H9X18111   1.154   3.243   5.528  0.3448  0.8126 -2.7788
  151DOPC  C31018112   1.051   3.127   5.386  0.4228 -0.4079 -0.4489
  151DOPC  H10X18113   1.054   3.216   5.322 -0.5228 -0.2010 -0.2229
  151DOPC  C31118114   0.986   2.998   5.339  0.5902 -0.5206  0.2659
  151DOPC  H11X18115   0.941   2.937   5.420  0.3140  0.0661  0.5599
  151DOPC  H11Y18116   1.065   2.946   5.282 -1.0146  1.4295 -4.2133
  151DOPC  C31218117   0.867   3.019   5.244 -0.6401  0.0539 -0.3304
  151DOPC  H12X18118   0.900   3.086   5.162  1.7238 -1.9657 -1.1463
  151DOPC  H12Y18119   0.793   3.075   5.306  0.6254  0.3496  0.9868
  151DOPC  C31318120   0.805   2.902   5.166 -0.0141 -0.5234  0.5630
  151DOPC  H13X18121   0.885   2.829   5.141 -0.8161 -1.9152  1.8521
  151DOPC  H13Y18122   0.732   2.846   5.228  0.4656 -1.4805  0.2794
  151DOPC  C31418123   0.712   2.939   5.049  0.5758  0.6079 -0.3747
  151DOPC  H14X18124   0.773   2.984   4.968  1.2378 -2.2233 -1.5739
  151DOPC  H14Y18125   0.660   2.854   5.001  1.3526  0.5893 -1.2154
  151DOPC  C31518126   0.602   3.035   5.088  0.9062 -0.9041  0.1353
  151DOPC  H15X18127   0.639   3.122   5.146 -0.2354 -0.0709 -0.3252
  151DOPC  H15Y18128   0.526   2.986   5.152 -0.6629  1.3466  0.1164
  151DOPC  C31618129   0.523   3.096   4.967 -0.3085 -0.3026 -0.3427
  151DOPC  H16X18130   0.587   3.171   4.916  1.6354 -1.1565  0.7004
  151DOPC  H16Y18131   0.498   3.017   4.893 -1.5765 -0.5861  0.3594
  151DOPC  C31718132   0.390   3.173   5.009 -0.0767 -0.1057  0.1796
  151DOPC  H17X18133   0.417   3.242   5.092 -1.8203 -1.0615  1.6128
  151DOPC  H17Y18134   0.345   3.239   4.932  0.4126 -0.6009 -0.5395
  151DOPC  C31818135   0.281   3.088   5.073 -0.3346  0.7734  0.3312
  151DOPC  H18X18136   0.322   3.028   5.157  2.0155 -0.1545 -1.3552
  151DOPC  H18Y18137   0.199   3.155   5.107 -1.0275  0.1070  0.0037
  151DOPC  H18Z18138   0.238   3.014   5.002  1.6921 -0.7999  0.6569
  152DOPC     N18139   4.617   1.575   7.813  0.1020  0.2834 -0.5956
  152DOPC   C1218140   4.626   1.604   7.664 -0.3399 -0.6955 -0.5612
  152DOPC  H12A18141   4.731   1.623   7.650  0.0530  0.0957  2.7156
  152DOPC  H12B18142   4.579   1.698   7.638 -0.7247 -0.0808  2.0407
  152DOPC   C1318143   4.476   1.590   7.864 -0.1815 -0.2868  0.1097
  152DOPC  H13A18144   4.419   1.515   7.811  0.0099 -1.3559  1.3682
  152DOPC  H13B18145   4.461   1.569   7.969  0.6085  0.6636  0.4234
  152DOPC  H13C18146   4.431   1.683   7.832  1.2687  0.1188 -0.8496
  152DOPC   C1418147   4.694   1.672   7.897 -1.0034  0.3958  0.5622
  152DOPC  H14A18148   4.651   1.767   7.872  0.5510  0.5094 -2.0702
  152DOPC  H14B18149   4.672   1.651   8.001 -2.1469  0.9007  0.4314
  152DOPC  H14C18150   4.800   1.678   7.874 -0.8692 -0.5806  0.8728
  152DOPC   C1518151   4.667   1.440   7.851 -0.1855  0.4047 -0.1630
  152DOPC  H15A18152   4.649   1.410   7.953  2.3172 -2.5934 -0.4592
  152DOPC  H15B18153   4.775   1.444   7.849 -0.1155 -0.0334  1.5902
  152DOPC  H15C18154   4.628   1.373   7.775 -0.3311  2.9049 -2.4316
  152DOPC   C1118155   4.554   1.499   7.568 -0.6005  0.7741  0.5027
  152DOPC  H11A18156   4.613   1.512   7.475  0.0893  1.6658  1.0479
  152DOPC  H11B18157   4.568   1.396   7.608  2.2691  1.3565  1.2139
  152DOPC     P18158   4.360   1.664   7.498  0.1694 -0.1243 -0.2213
  152DOPC   O1318159   4.419   1.784   7.558  0.1142 -0.1417 -0.4105
  152DOPC   O1418160   4.213   1.656   7.502 -0.3548 -0.6391  0.4033
  152DOPC   O1218161   4.416   1.534   7.563 -0.3441  0.1943  0.6719
  152DOPC   O1118162   4.397   1.651   7.347 -0.8854  0.4895  0.5105
  152DOPC    C118163   4.370   1.534   7.276  0.7722  0.1715  0.4294
  152DOPC    HA18164   4.262   1.529   7.250  0.6922 -1.4506  0.9307
  152DOPC    HB18165   4.386   1.438   7.330 -1.3865 -0.9628 -0.7953
  152DOPC    C218166   4.437   1.531   7.132  0.7832 -0.2256 -0.3210
  152DOPC    HS18167   4.398   1.449   7.067  0.4727 -0.1705 -0.2079
  152DOPC   O2118168   4.580   1.526   7.150 -0.2559 -0.3369 -0.2824
  152DOPC   C2118169   4.629   1.407   7.135 -0.3705 -0.3856 -0.0676
  152DOPC   O2218170   4.567   1.315   7.084 -0.3558 -0.1068 -0.0369
  152DOPC   C2218171   4.772   1.395   7.183  0.4883 -0.1613 -0.0570
  152DOPC   H2R18172   4.802   1.289   7.165  0.1965 -0.5298  1.4785
  152DOPC   H2S18173   4.767   1.407   7.293  1.1186  1.6562 -0.2038
  152DOPC    C318174   4.403   1.672   7.060  0.3644 -0.1067 -0.2414
  152DOPC    HX18175   4.447   1.758   7.115  1.6135 -0.9299  0.0796
  152DOPC    HY18176   4.295   1.693   7.074  0.0123 -0.1782 -2.4656
  152DOPC   O3118177   4.428   1.672   6.920 -0.4324 -0.1809  0.5419
  152DOPC   C3118178   4.540   1.734   6.893  0.4678 -0.2390  0.4629
  152DOPC   O3218179   4.613   1.794   6.971  0.1506 -0.6868 -0.1950
  152DOPC   C3218180   4.567   1.719   6.742  0.2545  0.2575 -0.3065
  152DOPC   H2X18181   4.580   1.609   6.727  0.8045 -0.4301  3.8620
  152DOPC   H2Y18182   4.474   1.752   6.692  0.0448 -1.5117 -1.1536
  152DOPC   C2318183   4.881   1.489   7.120  0.3446  0.0692 -0.2846
  152DOPC   H3R18184   4.980   1.445   7.147  0.4729  0.5410  0.0305
  152DOPC   H3S18185   4.874   1.587   7.171 -0.4042  0.6784 -1.5296
  152DOPC   C2418186   4.863   1.506   6.967  0.0466  0.3410  0.8661
  152DOPC   H4R18187   4.948   1.568   6.932  1.9039 -2.3153  0.3764
  152DOPC   H4S18188   4.770   1.563   6.946  1.0135  2.4852  2.0591
  152DOPC   C2518189   4.856   1.373   6.887 -0.0546 -0.6123 -0.1416
  152DOPC   H5R18190   4.778   1.311   6.936 -1.5095 -0.5143 -2.1714
  152DOPC   H5S18191   4.952   1.320   6.902  1.0921  0.5667 -2.6333
  152DOPC   C2618192   4.819   1.387   6.736 -0.1045  0.5408 -0.1036
  152DOPC   H6R18193   4.903   1.407   6.667 -0.4108  1.3499 -0.2439
  152DOPC   H6S18194   4.747   1.468   6.714 -1.4616 -0.7851 -0.8015
  152DOPC   C2718195   4.762   1.249   6.687  1.3562 -0.2085 -0.2976
  152DOPC   H7R18196   4.654   1.245   6.710  0.8648  3.6375 -1.1972
  152DOPC   H7S18197   4.816   1.177   6.751  3.3692  0.4445 -1.1764
  152DOPC   C2818198   4.774   1.230   6.536 -0.3926 -0.0579  0.4342
  152DOPC   H8R18199   4.711   1.140   6.516 -1.8128  1.1508 -0.7362
  152DOPC   H8S18200   4.879   1.204   6.508 -0.0513 -0.0199  1.6239
  152DOPC   C2918201   4.714   1.339   6.465  0.2439  0.6437  0.0031
  152DOPC   H9R18202   4.619   1.375   6.508  1.4531  3.6033  0.4080
  152DOPC  C21018203   4.769   1.423   6.374  0.1295 -0.6921  0.2539
  152DOPC  H10R18204   4.717   1.515   6.343  3.3494  1.4177  0.6121
  152DOPC  C21118205   4.909   1.420   6.320  0.2010  0.3301 -0.4257
  152DOPC  H11R18206   4.924   1.414   6.210  0.0891  0.6105 -0.4571
  152DOPC  H11S18207   4.957   1.329   6.363 -0.3095 -1.5431 -3.5507
  152DOPC  C21218208   4.985   1.542   6.370  0.3942  0.1087 -0.5459
  152DOPC  H12R18209   5.092   1.523   6.347 -0.1786 -2.5317 -1.4354
  152DOPC  H12S18210   4.978   1.558   6.480 -1.5504  1.9395 -0.8763
  152DOPC  C21318211   4.955   1.673   6.298 -0.2829 -0.1234 -0.3573
  152DOPC  H13R18212   5.023   1.745   6.350  0.3563 -0.5945 -0.5281
  152DOPC  H13S18213   4.851   1.711   6.307  0.2848  1.2454  0.9778
  152DOPC  C21418214   4.985   1.669   6.150  0.0017  0.0809  0.4780
  152DOPC  H14R18215   4.939   1.581   6.101  0.6863 -0.3403  0.5740
  152DOPC  H14S18216   5.094   1.649   6.138  0.4902  1.4293  2.2830
  152DOPC  C21518217   4.935   1.797   6.078  0.2023 -0.1161  0.4301
  152DOPC  H15R18218   4.980   1.889   6.120  1.8957 -1.1287  0.8927
  152DOPC  H15S18219   4.825   1.813   6.090  0.2120  0.7039 -0.4363
  152DOPC  C21618220   4.965   1.783   5.926 -0.3824 -0.3824 -0.2089
  152DOPC  H16R18221   4.912   1.694   5.885  1.3798 -1.6257  0.0926
  152DOPC  H16S18222   5.070   1.752   5.906 -0.6602 -2.5864  1.3606
  152DOPC  C21718223   4.934   1.906   5.846 -0.0483 -0.7722  0.1320
  152DOPC  H17R18224   4.992   1.996   5.873  1.3119 -1.7642  0.6549
  152DOPC  H17S18225   4.831   1.943   5.866 -0.4230  0.3863 -3.2395
  152DOPC  C21818226   4.933   1.878   5.697  0.5981 -0.1725  0.5607
  152DOPC  H18R18227   4.856   1.807   5.660 -0.6723  1.3088  0.2991
  152DOPC  H18S18228   5.035   1.846   5.666  0.1303 -1.2312  0.0576
  152DOPC  H18T18229   4.910   1.971   5.641 -1.0237 -0.7714  0.1864
  152DOPC   C3318230   4.696   1.794   6.694  0.1721  0.0627 -0.3900
  152DOPC   H3X18231   4.784   1.731   6.720 -0.3918 -0.8405 -0.6590
  152DOPC   H3Y18232   4.703   1.893   6.745  2.1363 -0.5998  0.7504
  152DOPC   C3418233   4.701   1.789   6.544  0.1856 -0.1820  0.0056
  152DOPC   H4X18234   4.671   1.686   6.518  2.8460 -1.3796  1.2469
  152DOPC   H4Y18235   4.806   1.812   6.514  0.3612 -0.2058  0.5959
  152DOPC   C3518236   4.624   1.896   6.476  0.2608  0.4412 -0.2693
  152DOPC   H5X18237   4.674   1.991   6.502 -0.6661  0.9912 -0.4518
  152DOPC   H5Y18238   4.521   1.902   6.518 -0.2219 -0.7588 -1.2165
  152DOPC   C3618239   4.604   1.883   6.324  0.2629 -0.1214  0.0099
  152DOPC   H6X18240   4.572   1.985   6.293  0.7618  0.6300  1.8328
  152DOPC   H6Y18241   4.696   1.874   6.262 -0.6466 -0.0191 -1.4007
  152DOPC   C3718242   4.515   1.771   6.281  0.5623 -0.3239  0.1444
  152DOPC   H7X18243   4.559   1.673   6.311 -1.0721 -1.1981 -0.1634
  152DOPC   H7Y18244   4.413   1.783   6.325 -0.5621  0.8084 -2.5587
  152DOPC   C3818245   4.490   1.766   6.125  0.6415 -0.2109  0.0229
  152DOPC   H8X18246   4.427   1.678   6.097  0.4709 -0.4925  1.2228
  152DOPC   H8Y18247   4.590   1.763   6.078  0.1394  2.2863 -1.4061
  152DOPC   C3918248   4.406   1.880   6.077 -0.8242  0.1051 -0.5817
  152DOPC   H9X18249   4.317   1.904   6.137 -1.0540  2.3648 -1.7519
  152DOPC  C31018250   4.438   1.953   5.973 -0.4331 -0.0527  0.0402
  152DOPC  H10X18251   4.365   2.023   5.929 -2.5477 -2.4085 -0.4207
  152DOPC  C31118252   4.559   1.939   5.883  0.1151 -0.6639 -0.1907
  152DOPC  H11X18253   4.590   1.832   5.892 -0.5188 -0.6461  4.0129
  152DOPC  H11Y18254   4.643   2.002   5.920 -2.1497  3.1550 -0.9711
  152DOPC  C31218255   4.538   1.976   5.735  0.5662 -0.0177 -0.0361
  152DOPC  H12X18256   4.467   1.908   5.682 -0.5476 -0.8176  2.3550
  152DOPC  H12Y18257   4.638   1.957   5.691  0.4966 -3.3903  0.9605
  152DOPC  C31318258   4.491   2.115   5.698 -0.2244 -0.1889  0.2644
  152DOPC  H13X18259   4.399   2.136   5.757 -0.3164 -0.0955  0.0876
  152DOPC  H13Y18260   4.564   2.193   5.728 -1.3058  0.0763  2.4235
  152DOPC  C31418261   4.456   2.129   5.552  0.2047 -0.5356  0.2285
  152DOPC  H14X18262   4.537   2.097   5.483  0.9852  1.7942  0.0095
  152DOPC  H14Y18263   4.367   2.064   5.538 -2.5798  3.0142 -0.0123
  152DOPC  C31518264   4.417   2.269   5.511 -0.7784  0.9080  0.1418
  152DOPC  H15X18265   4.504   2.333   5.534  0.7404  0.5515 -3.8027
  152DOPC  H15Y18266   4.333   2.313   5.569 -0.4344  0.0162  1.3820
  152DOPC  C31618267   4.391   2.285   5.360 -0.0155 -0.2217 -0.2762
  152DOPC  H16X18268   4.483   2.265   5.302  0.4489 -0.1316  0.4205
  152DOPC  H16Y18269   4.311   2.211   5.338  1.3327 -2.3392  1.5565
  152DOPC  C31718270   4.327   2.433   5.332 -0.3515 -0.5880 -0.6362
  152DOPC  H17X18271   4.270   2.413   5.239 -0.2038  0.3005 -0.9299
  152DOPC  H17Y18272   4.254   2.466   5.409 -0.3030 -2.5372  0.3302
  152DOPC  C31818273   4.417   2.551   5.303 -0.3188  0.8259  0.1066
  152DOPC  H18X18274   4.356   2.633   5.261 -1.9926 -0.9893 -1.2266
  152DOPC  H18Y18275   4.467   2.582   5.397  1.2496 -1.5059  0.1162
  152DOPC  H18Z18276   4.498   2.525   5.232 -1.9487 -0.2621 -1.4675
  153DOPC     N18277   4.702   0.357   7.529 -1.2295  0.3726 -0.2254
  153DOPC   C1218278   4.689   0.337   7.372 -0.2256 -0.0966 -0.6326
  153DOPC  H12A18279   4.619   0.256   7.356  1.4204 -1.3476 -1.7908
  153DOPC  H12B18280   4.782   0.298   7.332  1.0991  0.4441  1.7172
  153DOPC   C1318281   4.766   0.239   7.589  0.3194 -0.4289 -0.6324
  153DOPC  H13A18282   4.795   0.271   7.688  0.7001  1.2618 -1.2539
  153DOPC  H13B18283   4.706   0.149   7.582  1.3524 -1.0258 -2.8673
  153DOPC  H13C18284   4.860   0.224   7.538  2.1896  0.8925  2.1781
  153DOPC   C1418285   4.565   0.376   7.591 -0.2447  0.2239  0.0295
  153DOPC  H14A18286   4.573   0.402   7.695  1.3242  2.1662 -0.5060
  153DOPC  H14B18287   4.528   0.466   7.544 -0.3245  0.5692  0.7370
  153DOPC  H14C18288   4.511   0.283   7.578  0.3848  0.0561 -1.5812
  153DOPC   C1518289   4.791   0.478   7.555 -0.0472  0.8467  0.2169
  153DOPC  H15A18290   4.883   0.466   7.499  0.0143 -1.0781  0.6470
  153DOPC  H15B18291   4.820   0.499   7.657  0.2350  2.7072 -0.2091
  153DOPC  H15C18292   4.747   0.568   7.515 -0.1940  0.0522 -1.5081
  153DOPC   C1118293   4.662   0.465   7.286 -0.7076 -0.2681  0.9011
  153DOPC  H11A18294   4.752   0.529   7.294 -1.5214  1.1212 -0.4099
  153DOPC  H11B18295   4.659   0.440   7.178  1.0814 -1.7867  1.1530
  153DOPC     P18296   4.407   0.529   7.271  0.1689  0.3508 -0.0067
  153DOPC   O1318297   4.313   0.566   7.378 -0.3318  0.2755  0.5943
  153DOPC   O1418298   4.392   0.396   7.212  0.1198 -0.6837 -0.8559
  153DOPC   O1218299   4.553   0.547   7.326  0.5929 -0.6093  0.2656
  153DOPC   O1118300   4.394   0.638   7.159  0.7970 -0.7194  0.0332
  153DOPC    C118301   4.447   0.766   7.168 -0.8749  0.3330  0.2960
  153DOPC    HA18302   4.512   0.775   7.258 -1.0571 -1.1873  0.6091
  153DOPC    HB18303   4.359   0.830   7.187 -1.2568  0.8514 -2.6478
  153DOPC    C218304   4.519   0.799   7.036 -0.7198 -0.5524 -0.8161
  153DOPC    HS18305   4.553   0.905   7.036  1.3447 -1.1607  0.1532
  153DOPC   O2118306   4.424   0.782   6.936 -0.3271  1.0247 -0.3270
  153DOPC   C2118307   4.354   0.886   6.892  0.5525 -0.4222  0.3642
  153DOPC   O2218308   4.356   1.002   6.932  0.5290 -0.1697  0.2592
  153DOPC   C2218309   4.259   0.845   6.788 -0.0847  0.1523 -0.6199
  153DOPC   H2R18310   4.162   0.893   6.815 -0.1317  1.3149 -2.6832
  153DOPC   H2S18311   4.237   0.736   6.790 -1.9565  0.4937  1.0742
  153DOPC    C318312   4.637   0.709   7.005 -0.0022 -0.6301 -0.1597
  153DOPC    HX18313   4.602   0.606   6.980 -2.9121  0.6139 -1.7365
  153DOPC    HY18314   4.689   0.704   7.103 -0.0323 -1.7781 -0.1878
  153DOPC   O3118315   4.712   0.759   6.892 -0.9223 -0.5944  0.5278
  153DOPC   C3118316   4.817   0.843   6.927 -0.1384 -0.2524 -0.0385
  153DOPC   O3218317   4.840   0.869   7.043 -0.6608  0.0278  0.3789
  153DOPC   C3218318   4.897   0.882   6.803  0.2658  0.9197 -0.0697
  153DOPC   H2X18319   4.899   0.790   6.741  0.2139  1.2438 -0.5527
  153DOPC   H2Y18320   4.833   0.958   6.753  1.1853  0.4445 -2.0527
  153DOPC   C2318321   4.298   0.880   6.645 -0.0877  0.1207 -0.1548
  153DOPC   H3R18322   4.321   0.989   6.638  0.6585  0.1579  2.1600
  153DOPC   H3S18323   4.220   0.864   6.568 -0.3101 -0.8349  0.2509
  153DOPC   C2418324   4.432   0.821   6.592  0.4723 -0.3410 -0.0979
  153DOPC   H4R18325   4.412   0.714   6.572 -0.8520  0.0016 -0.6770
  153DOPC   H4S18326   4.506   0.828   6.675 -1.5897  0.5772  1.7611
  153DOPC   C2518327   4.488   0.901   6.473 -0.4032 -0.0871  0.4173
  153DOPC   H5R18328   4.508   1.004   6.510  3.2078 -0.7417  0.5912
  153DOPC   H5S18329   4.415   0.908   6.389  0.7142  2.3728 -0.4398
  153DOPC   C2618330   4.621   0.855   6.422 -0.2617  0.2474  0.5691
  153DOPC   H6R18331   4.619   0.747   6.393  2.8035 -0.1457  1.4922
  153DOPC   H6S18332   4.697   0.854   6.503 -1.2383 -0.5004  1.5060
  153DOPC   C2718333   4.657   0.926   6.296 -0.8924 -0.6000  0.5572
  153DOPC   H7R18334   4.671   1.035   6.313 -0.1412 -0.5452 -0.3341
  153DOPC   H7S18335   4.581   0.925   6.215 -0.6091 -1.7802  0.2926
  153DOPC   C2818336   4.783   0.872   6.217 -0.7995  0.2544  0.1278
  153DOPC   H8R18337   4.870   0.865   6.286 -0.8272 -2.8365 -0.0209
  153DOPC   H8S18338   4.792   0.955   6.143 -0.5293 -1.1045 -1.4352
  153DOPC   C2918339   4.761   0.738   6.154  0.3090  0.5243 -0.2297
  153DOPC   H9R18340   4.751   0.664   6.235 -2.4436  0.5225 -0.4518
  153DOPC  C21018341   4.746   0.697   6.032 -0.7981  0.7831  0.8464
  153DOPC  H10R18342   4.734   0.591   6.007 -1.7712  1.1829 -0.5024
  153DOPC  C21118343   4.743   0.785   5.903  0.2399  0.0589  0.0698
  153DOPC  H11R18344   4.825   0.756   5.833 -0.8414  1.8838 -2.0812
  153DOPC  H11S18345   4.754   0.887   5.944 -0.6965  0.2817 -0.2054
  153DOPC  C21218346   4.614   0.794   5.823  0.2091 -0.1307 -0.1974
  153DOPC  H12R18347   4.589   0.692   5.787  0.4554 -0.4744  0.5730
  153DOPC  H12S18348   4.640   0.860   5.738  1.3843 -0.3871 -0.0619
  153DOPC  C21318349   4.491   0.836   5.907 -0.3536  0.2376 -1.3415
  153DOPC  H13R18350   4.527   0.913   5.979  0.5494  1.3144 -2.9044
  153DOPC  H13S18351   4.460   0.751   5.972 -0.7986  0.4870 -1.2279
  153DOPC  C21418352   4.363   0.877   5.834 -0.4511 -0.4930  0.3585
  153DOPC  H14R18353   4.339   0.796   5.763 -0.7283 -0.3190  0.2549
  153DOPC  H14S18354   4.371   0.971   5.775 -2.0252 -0.7106 -0.2298
  153DOPC  C21518355   4.246   0.888   5.932  0.2190  0.0479 -0.0783
  153DOPC  H15R18356   4.261   0.966   6.010  1.2672  1.3244 -1.4949
  153DOPC  H15S18357   4.225   0.788   5.975  1.3517 -1.7004 -3.2510
  153DOPC  C21618358   4.115   0.938   5.861 -0.3846 -0.5892 -0.1976
  153DOPC  H16R18359   4.099   0.869   5.775 -0.3167 -0.2841 -0.4556
  153DOPC  H16S18360   4.143   1.035   5.814  2.1592 -1.7916 -1.3258
  153DOPC  C21718361   3.995   0.936   5.949 -0.6560 -0.4605 -0.6217
  153DOPC  H17R18362   3.999   1.029   6.010  2.2812  0.3659 -1.9259
  153DOPC  H17S18363   3.996   0.847   6.015  1.8815 -0.5333 -0.6718
  153DOPC  C21818364   3.855   0.938   5.884 -0.0878 -0.0444 -0.0943
  153DOPC  H18R18365   3.821   0.849   5.827 -1.3847  1.3918 -1.6874
  153DOPC  H18S18366   3.847   1.031   5.824  1.3790 -0.6504 -1.2868
  153DOPC  H18T18367   3.775   0.944   5.961 -0.3912 -0.4489 -0.3697
  153DOPC   C3318368   5.036   0.950   6.828 -1.2096 -0.4684 -0.3508
  153DOPC   H3X18369   5.115   0.884   6.871 -0.7686  0.5144  0.3768
  153DOPC   H3Y18370   5.026   1.026   6.908 -1.2234 -0.6101 -0.2173
  153DOPC   C3418371   5.089   1.020   6.700 -0.3593  0.1369 -0.3214
  153DOPC   H4X18372   5.021   1.105   6.676 -0.6381 -0.6182 -2.3575
  153DOPC   H4Y18373   5.075   0.945   6.620 -1.3399  1.4834 -1.4746
  153DOPC   C3518374   5.234   1.069   6.717 -0.1465 -0.2540 -0.0424
  153DOPC   H5X18375   5.297   1.016   6.792 -2.1651 -0.6039  1.4753
  153DOPC   H5Y18376   5.223   1.171   6.759  3.6724  1.2324 -2.1583
  153DOPC   C3618377   5.313   1.074   6.583  0.2429  0.6461 -0.8026
  153DOPC   H6X18378   5.406   1.131   6.602  0.4148  0.5006 -1.1854
  153DOPC   H6Y18379   5.342   0.969   6.561 -1.3644  0.3768 -1.7654
  153DOPC   C3718380   5.236   1.119   6.463  0.3744 -0.3343  0.5988
  153DOPC   H7X18381   5.163   1.037   6.450  0.6372 -0.3211 -1.2525
  153DOPC   H7Y18382   5.192   1.216   6.497  0.1067  0.4463 -1.8032
  153DOPC   C3818383   5.328   1.146   6.335 -0.0578  0.1225 -0.3956
  153DOPC   H8X18384   5.260   1.156   6.248 -0.5513  2.3067  0.1793
  153DOPC   H8Y18385   5.402   1.064   6.326 -0.7948 -0.6350  0.2413
  153DOPC   C3918386   5.416   1.268   6.354  0.4354  0.0152  0.7747
  153DOPC   H9X18387   5.456   1.293   6.454 -2.9125  0.7201  2.0797
  153DOPC  C31018388   5.463   1.346   6.257 -0.1534  0.4392  0.4249
  153DOPC  H10X18389   5.530   1.429   6.283  0.2278  0.7964 -1.5258
  153DOPC  C31118390   5.439   1.326   6.111  0.1835 -0.6440  0.4958
  153DOPC  H11X18391   5.385   1.407   6.055  1.7729  0.5097  0.5680
  153DOPC  H11Y18392   5.384   1.231   6.097 -1.6649  0.5876 -1.3709
  153DOPC  C31218393   5.560   1.303   6.027 -0.0279  0.2406 -0.0915
  153DOPC  H12X18394   5.621   1.396   6.020 -0.2780  0.2850 -4.4823
  153DOPC  H12Y18395   5.519   1.301   5.924 -1.4732  1.2345  0.4396
  153DOPC  C31318396   5.650   1.175   6.061  0.4613  0.2162 -0.0715
  153DOPC  H13X18397   5.745   1.180   6.003 -0.1225 -0.3583 -1.0942
  153DOPC  H13Y18398   5.676   1.177   6.169 -0.4895 -1.2900  0.2097
  153DOPC  C31418399   5.582   1.040   6.029 -0.6512 -0.6487 -0.5522
  153DOPC  H14X18400   5.655   0.963   6.062 -0.9003  0.1505  2.0835
  153DOPC  H14Y18401   5.493   1.033   6.094 -0.2121  1.0664  0.2961
  153DOPC  C31518402   5.551   1.026   5.883  0.1837 -0.8453  0.2389
  153DOPC  H15X18403   5.637   1.041   5.815 -0.5563  0.5516 -0.4549
  153DOPC  H15Y18404   5.471   1.102   5.863  0.8047 -0.4877 -1.0147
  153DOPC  C31618405   5.488   0.890   5.842  0.6370 -0.2675  0.4891
  153DOPC  H16X18406   5.559   0.813   5.879  1.0862  0.8206  2.0016
  153DOPC  H16Y18407   5.394   0.865   5.896  0.6007  1.8750  1.5660
  153DOPC  C31718408   5.467   0.884   5.691 -0.3512 -0.4149 -0.6185
  153DOPC  H17X18409   5.408   0.975   5.666 -2.1792 -0.4424  2.9103
  153DOPC  H17Y18410   5.562   0.903   5.636  0.0682 -1.3403 -0.2457
  153DOPC  C31818411   5.406   0.759   5.642  0.2579  0.4314  0.2608
  153DOPC  H18X18412   5.359   0.775   5.543 -2.4888  0.5724  1.4793
  153DOPC  H18Y18413   5.472   0.669   5.641  0.1120  0.3145  0.7459
  153DOPC  H18Z18414   5.322   0.725   5.707  0.7771 -0.3676  0.5282
  154DOPC     N18415   4.738   3.331   7.620  0.3445 -0.1741 -0.1048
  154DOPC   C1218416   4.639   3.437   7.676  0.0013  0.6475  0.7058
  154DOPC  H12A18417   4.683   3.501   7.751  1.0618  0.7841 -0.0082
  154DOPC  H12B18418   4.559   3.386   7.727 -1.2678 -0.2708 -1.9779
  154DOPC   C1318419   4.852   3.399   7.556  0.2343 -0.1183 -0.5856
  154DOPC  H13A18420   4.915   3.324   7.511  1.5186  0.8450 -0.4286
  154DOPC  H13B18421   4.817   3.460   7.474 -0.4582 -1.9767 -1.7528
  154DOPC  H13C18422   4.924   3.446   7.621  1.2295 -1.6231 -0.5611
  154DOPC   C1418423   4.679   3.239   7.510 -0.4076 -0.6349 -0.4802
  154DOPC  H14A18424   4.726   3.142   7.516 -0.2814 -0.5629 -0.2855
  154DOPC  H14B18425   4.579   3.209   7.541  0.3781 -1.4826  1.4389
  154DOPC  H14C18426   4.690   3.275   7.409 -1.5215  0.8981 -0.0774
  154DOPC   C1518427   4.788   3.251   7.733  0.3267 -0.0510  0.1819
  154DOPC  H15A18428   4.865   3.177   7.716  1.1679  0.9005 -0.3101
  154DOPC  H15B18429   4.710   3.197   7.785 -1.3498  1.1985 -0.9504
  154DOPC  H15C18430   4.834   3.308   7.813  0.4180 -0.8598  0.7088
  154DOPC   C1118431   4.567   3.538   7.573  0.1089  0.1116 -0.4516
  154DOPC  H11A18432   4.514   3.478   7.495  0.5621 -1.4474  0.3858
  154DOPC  H11B18433   4.501   3.597   7.640  3.4306 -0.0951  3.3458
  154DOPC     P18434   4.723   3.750   7.558  0.5933  0.1822 -0.2271
  154DOPC   O1318435   4.861   3.712   7.605  0.0351  0.0183 -0.2790
  154DOPC   O1418436   4.627   3.820   7.648  0.6094 -0.4496 -0.5115
  154DOPC   O1218437   4.661   3.619   7.497 -0.4401  0.0639  0.4144
  154DOPC   O1118438   4.739   3.839   7.425  0.0553 -0.0603 -0.6200
  154DOPC    C118439   4.672   3.798   7.303  0.4647  1.2200 -0.4910
  154DOPC    HA18440   4.562   3.799   7.318 -0.1111  2.7532 -3.8288
  154DOPC    HB18441   4.705   3.696   7.273 -1.1984  0.4971  0.0007
  154DOPC    C218442   4.699   3.899   7.186  0.1632  0.1800  0.1266
  154DOPC    HS18443   4.651   3.849   7.099 -0.4350 -1.8104  1.5142
  154DOPC   O2118444   4.837   3.910   7.158  0.0455  0.1659  0.3690
  154DOPC   C2118445   4.896   3.794   7.131  0.2456  1.0314  0.1896
  154DOPC   O2218446   4.841   3.692   7.094 -0.0210 -0.0194 -0.5733
  154DOPC   C2218447   5.045   3.803   7.150 -0.3405  0.3186 -0.0841
  154DOPC   H2R18448   5.062   3.759   7.251 -0.9232  2.4035  0.9744
  154DOPC   H2S18449   5.073   3.910   7.145  0.7689 -0.0028 -1.1671
  154DOPC    C318450   4.646   4.041   7.215 -0.5860 -0.5375  0.3273
  154DOPC    HX18451   4.712   4.087   7.292 -0.4812  0.1294 -0.1555
  154DOPC    HY18452   4.546   4.036   7.264 -0.4450  2.2327  1.0861
  154DOPC   O3118453   4.645   4.124   7.093  0.3058  0.7598 -0.5365
  154DOPC   C3118454   4.559   4.076   7.000 -0.3829 -0.0325 -0.1063
  154DOPC   O3218455   4.461   4.000   7.022  0.0459  0.1843  0.6831
  154DOPC   C3218456   4.598   4.121   6.866  0.4173 -0.1917 -0.2214
  154DOPC   H2X18457   4.593   4.232   6.870  1.7073 -0.1258  2.9621
  154DOPC   H2Y18458   4.705   4.098   6.844  1.0681  2.9810 -0.8825
  154DOPC   C2318459   5.114   3.717   7.038 -0.3974 -0.4202  0.7926
  154DOPC   H3R18460   5.053   3.626   7.024 -0.8461 -0.1582  1.0315
  154DOPC   H3S18461   5.221   3.694   7.060 -0.2689 -0.5174  0.0899
  154DOPC   C2418462   5.113   3.797   6.909 -0.3354  0.1437 -0.1571
  154DOPC   H4R18463   5.154   3.898   6.934  0.0095 -0.0349  0.0010
  154DOPC   H4S18464   5.012   3.804   6.863 -0.6371 -0.4996  0.3988
  154DOPC   C2518465   5.205   3.731   6.802 -0.3220  0.8109 -0.2888
  154DOPC   H5R18466   5.172   3.626   6.788  0.5269  0.4235  0.5298
  154DOPC   H5S18467   5.311   3.733   6.835 -0.3442 -1.1611  0.0249
  154DOPC   C2618468   5.200   3.800   6.663 -0.1167  0.6087  0.0798
  154DOPC   H6R18469   5.230   3.905   6.682  0.9258  0.7265 -1.9798
  154DOPC   H6S18470   5.096   3.804   6.627 -0.5922  0.0987  1.3243
  154DOPC   C2718471   5.280   3.732   6.557 -0.2461 -0.2140  0.8897
  154DOPC   H7R18472   5.251   3.625   6.558  2.1746 -1.0345 -2.1467
  154DOPC   H7S18473   5.384   3.754   6.591 -0.2230 -0.2133  0.8175
  154DOPC   C2818474   5.271   3.803   6.422 -0.0897  0.3137 -0.2231
  154DOPC   H8R18475   5.321   3.900   6.444  0.2605  0.0848  0.0160
  154DOPC   H8S18476   5.163   3.814   6.400 -0.2967 -0.5239  0.3129
  154DOPC   C2918477   5.337   3.734   6.307  0.9224 -0.4683  0.1150
  154DOPC   H9R18478   5.404   3.650   6.327 -0.9196 -1.4619  2.6106
  154DOPC  C21018479   5.312   3.775   6.177  0.0063  0.0988  0.0532
  154DOPC  H10R18480   5.371   3.732   6.095 -1.2614  0.4691 -1.0994
  154DOPC  C21118481   5.213   3.886   6.133 -0.2943  0.7105  0.2097
  154DOPC  H11R18482   5.235   3.980   6.186  1.5636  0.4599 -0.0375
  154DOPC  H11S18483   5.113   3.855   6.169 -1.3256  2.0098 -1.4306
  154DOPC  C21218484   5.203   3.908   5.984  0.5180  0.2236  0.2317
  154DOPC  H12R18485   5.299   3.879   5.936  0.0056  2.5158 -2.4828
  154DOPC  H12S18486   5.185   4.009   5.942  1.3533  0.0848 -0.4841
  154DOPC  C21318487   5.104   3.807   5.913 -0.0968 -0.5665 -0.9167
  154DOPC  H13R18488   5.003   3.821   5.957  0.2960  0.3405 -0.2716
  154DOPC  H13S18489   5.127   3.702   5.942  0.7052  0.0450  0.8606
  154DOPC  C21418490   5.111   3.836   5.761  0.9474  0.4777  0.0656
  154DOPC  H14R18491   5.212   3.807   5.724  0.2700 -2.4644  0.2496
  154DOPC  H14S18492   5.084   3.943   5.751  1.2099  0.6840  1.4155
  154DOPC  C21518493   5.008   3.743   5.691 -0.7277  0.3769  0.6061
  154DOPC  H15R18494   4.912   3.732   5.745 -0.2697 -2.4149  1.0086
  154DOPC  H15S18495   5.047   3.639   5.697  1.2393  0.8265 -2.3226
  154DOPC  C21618496   4.991   3.791   5.544 -0.2114  0.3951 -0.4091
  154DOPC  H16R18497   5.074   3.764   5.475  1.2801  1.7880  0.7382
  154DOPC  H16S18498   5.009   3.900   5.553  0.7986  0.3072 -1.0910
  154DOPC  C21718499   4.853   3.769   5.490 -0.1119  0.8833  0.2370
  154DOPC  H17R18500   4.788   3.843   5.540 -0.6383 -0.1178  1.0678
  154DOPC  H17S18501   4.812   3.671   5.523  0.0201  0.7762  0.0876
  154DOPC  C21818502   4.849   3.794   5.337 -0.2601 -0.5884 -0.1289
  154DOPC  H18R18503   4.900   3.892   5.329  1.7935 -1.4994  1.0149
  154DOPC  H18S18504   4.751   3.779   5.288 -1.1265  0.1244  1.3495
  154DOPC  H18T18505   4.919   3.721   5.290 -2.2647 -2.0554 -0.9514
  154DOPC   C3318506   4.510   4.059   6.749 -0.1012 -0.2125  0.0708
  154DOPC   H3X18507   4.406   4.098   6.754  0.0029  0.0782 -0.0161
  154DOPC   H3Y18508   4.506   3.948   6.754  0.6683 -0.4262 -2.5768
  154DOPC   C3418509   4.569   4.103   6.613  0.3216 -0.5169  0.5700
  154DOPC   H4X18510   4.662   4.049   6.585 -0.8289 -1.1793 -2.2968
  154DOPC   H4Y18511   4.602   4.208   6.627 -1.7850  0.2754 -0.0028
  154DOPC   C3518512   4.477   4.079   6.497 -0.1880  0.5624  0.5154
  154DOPC   H5X18513   4.413   3.991   6.523  3.8341 -2.7728  0.1635
  154DOPC   H5Y18514   4.523   4.056   6.398 -0.3206 -0.4377  0.6707
  154DOPC   C3618515   4.391   4.208   6.470 -0.1626  0.7005 -0.4383
  154DOPC   H6X18516   4.338   4.231   6.565 -0.6422  0.3387 -0.6115
  154DOPC   H6Y18517   4.468   4.287   6.458  1.9153 -0.9709  1.0550
  154DOPC   C3718518   4.301   4.193   6.354  0.0170  0.1822  0.6436
  154DOPC   H7X18519   4.355   4.128   6.282 -0.1667  0.1388  0.5459
  154DOPC   H7Y18520   4.205   4.143   6.382  0.5317  0.2782  2.7646
  154DOPC   C3818521   4.279   4.327   6.292  0.2447  0.2426  0.5178
  154DOPC   H8X18522   4.236   4.302   6.193 -0.2326  0.4305  0.6766
  154DOPC   H8Y18523   4.379   4.368   6.264 -0.7945  1.8646 -1.0134
  154DOPC   C3918524   4.185   4.428   6.357  0.4000 -0.6774 -0.1104
  154DOPC   H9X18525   4.214   4.447   6.462 -0.7544  0.9714 -0.0533
  154DOPC  C31018526   4.076   4.496   6.305  0.3952 -0.1216 -0.3860
  154DOPC  H10X18527   4.012   4.560   6.369  0.2080  1.2516 -1.8739
  154DOPC  C31118528   4.021   4.478   6.168 -0.1039 -0.1817 -0.3768
  154DOPC  H11X18529   3.915   4.512   6.161  0.3344  0.9993 -1.9763
  154DOPC  H11Y18530   4.011   4.369   6.146 -1.1006 -0.2145  0.1639
  154DOPC  C31218531   4.107   4.549   6.063  0.6716 -0.0092 -0.6428
  154DOPC  H12X18532   4.209   4.507   6.074  0.3875 -0.4760  0.3273
  154DOPC  H12Y18533   4.116   4.654   6.101  0.8060  0.1526 -1.1156
  154DOPC  C31318534   4.073   4.540   5.914 -0.3139 -0.3773 -0.9641
  154DOPC  H13X18535   4.155   4.596   5.863  1.0303  0.1601  1.6078
  154DOPC  H13Y18536   4.083   4.433   5.884  1.4562 -0.6805  0.4654
  154DOPC  C31418537   3.936   4.585   5.869  0.1906 -0.3250 -0.7072
  154DOPC  H14X18538   3.873   4.498   5.896 -0.8151  1.0629  1.6144
  154DOPC  H14Y18539   3.906   4.675   5.925 -0.7790 -0.8983 -0.2786
  154DOPC  C31518540   3.922   4.621   5.718 -0.2595 -0.5033  0.4213
  154DOPC  H15X18541   3.944   4.528   5.662 -0.1899  0.5952 -1.5009
  154DOPC  H15Y18542   4.009   4.683   5.687  0.3702 -1.3082  0.5508
  154DOPC  C31618543   3.792   4.690   5.678  0.8449 -0.2625 -0.1105
  154DOPC  H16X18544   3.708   4.638   5.728 -1.3757 -0.8624 -4.0863
  154DOPC  H16Y18545   3.808   4.790   5.722 -3.1837  0.3204  0.3653
  154DOPC  C31718546   3.774   4.701   5.523 -0.1003 -0.2791 -0.6918
  154DOPC  H17X18547   3.713   4.794   5.513 -1.6282 -1.2394 -0.6370
  154DOPC  H17Y18548   3.874   4.720   5.479  0.4371 -1.9633 -0.2739
  154DOPC  C31818549   3.703   4.602   5.448  0.1906 -0.0892  0.0769
  154DOPC  H18X18550   3.614   4.582   5.512  0.4715  1.0527  0.8428
  154DOPC  H18Y18551   3.680   4.636   5.345 -0.1568  1.2334  0.5741
  154DOPC  H18Z18552   3.757   4.505   5.452 -0.9143 -0.8513 -1.7993
  155DOPC     N18553   2.406   1.584   7.001  0.1979 -0.9220  0.5429
  155DOPC   C1218554   2.277   1.552   7.086  0.1543 -0.0919  0.0126
  155DOPC  H12A18555   2.209   1.486   7.035 -0.5179 -0.7672  1.7172
  155DOPC  H12B18556   2.224   1.645   7.103  2.0705  1.4486 -1.8848
  155DOPC   C1318557   2.509   1.654   7.080  0.4438  0.2629 -0.2283
  155DOPC  H13A18558   2.608   1.639   7.039  0.2542 -3.7454  0.3519
  155DOPC  H13B18559   2.481   1.758   7.089  0.7608  0.3440 -0.1461
  155DOPC  H13C18560   2.512   1.614   7.180  1.7999 -1.6246 -0.9674
  155DOPC   C1418561   2.374   1.677   6.881  0.3207 -0.0644  0.4333
  155DOPC  H14A18562   2.329   1.769   6.916  0.9230  0.8367 -1.0221
  155DOPC  H14B18563   2.466   1.701   6.829 -0.3886 -0.1685 -0.9116
  155DOPC  H14C18564   2.308   1.638   6.805  0.8633  1.7919 -1.0829
  155DOPC   C1518565   2.465   1.455   6.949 -0.5007  0.0162 -0.7572
  155DOPC  H15A18566   2.558   1.464   6.896  0.2928 -0.1333  0.5468
  155DOPC  H15B18567   2.389   1.418   6.882 -0.9394 -2.9435  1.1594
  155DOPC  H15C18568   2.469   1.385   7.031 -3.9447  1.2287  0.6363
  155DOPC   C1118569   2.309   1.488   7.226  0.2274 -0.5525  0.8881
  155DOPC  H11A18570   2.385   1.549   7.279  0.7086  0.8276 -1.3027
  155DOPC  H11B18571   2.215   1.482   7.286 -0.5120 -1.6757 -0.3242
  155DOPC     P18572   2.280   1.236   7.158  0.2545  0.3288 -0.0978
  155DOPC   O1318573   2.190   1.190   7.267 -0.1088 -0.0785  0.3758
  155DOPC   O1418574   2.374   1.132   7.109  0.2369  0.2921  0.3981
  155DOPC   O1218575   2.359   1.359   7.207  0.0158  0.0757 -0.3990
  155DOPC   O1118576   2.196   1.304   7.042  0.7475 -0.1921 -0.0274
  155DOPC    C118577   2.133   1.219   6.939 -0.7526  0.0345 -0.0749
  155DOPC    HA18578   2.024   1.205   6.958 -0.6844 -2.2034 -0.9577
  155DOPC    HB18579   2.172   1.115   6.941 -0.1685  0.2546  0.2382
  155DOPC    C218580   2.150   1.262   6.792 -0.1889 -0.5665 -0.8091
  155DOPC    HS18581   2.080   1.201   6.731 -0.8199 -3.0054  2.0981
  155DOPC   O2118582   2.286   1.243   6.760  0.6122  0.1876  0.1507
  155DOPC   C2118583   2.303   1.225   6.628 -0.1641 -0.2956 -0.0093
  155DOPC   O2218584   2.215   1.216   6.539 -0.1615  0.0711  0.2910
  155DOPC   C2218585   2.446   1.214   6.601  0.4702  0.4828  0.7894
  155DOPC   H2R18586   2.478   1.108   6.612  1.4526  0.3092 -2.5837
  155DOPC   H2S18587   2.497   1.271   6.682 -1.6772  1.6777  1.3835
  155DOPC    C318588   2.100   1.408   6.768  0.2830 -0.4510  1.2032
  155DOPC    HX18589   2.165   1.465   6.838 -0.1524  0.8829  0.5575
  155DOPC    HY18590   1.996   1.430   6.799 -0.2442  2.9860 -2.2009
  155DOPC   O3118591   2.130   1.463   6.644 -0.4909 -0.0363 -0.0264
  155DOPC   C3118592   2.031   1.493   6.560  0.4170 -0.0024  0.7916
  155DOPC   O3218593   1.906   1.485   6.581 -0.4919  0.2797 -0.0253
  155DOPC   C3218594   2.100   1.532   6.429  0.1446  0.4822  0.3429
  155DOPC   H2X18595   2.123   1.640   6.436 -0.9870  0.8779 -1.5348
  155DOPC   H2Y18596   2.195   1.474   6.425 -0.4905 -0.6085  0.5137
  155DOPC   C2318597   2.491   1.252   6.457  0.3517 -0.4847  0.3758
  155DOPC   H3R18598   2.432   1.203   6.376  1.1116  1.4391 -1.4339
  155DOPC   H3S18599   2.592   1.206   6.446 -0.2047 -1.3233 -1.8930
  155DOPC   C2418600   2.511   1.406   6.427  0.2616  0.3151  0.1387
  155DOPC   H4R18601   2.571   1.452   6.509  0.7635  2.0085 -1.1090
  155DOPC   H4S18602   2.410   1.452   6.437 -0.0518  0.1427 -1.9004
  155DOPC   C2518603   2.583   1.433   6.298  0.3251 -0.2082  0.6719
  155DOPC   H5R18604   2.633   1.337   6.273 -0.2373 -0.3474  0.0381
  155DOPC   H5S18605   2.652   1.520   6.304  1.2919 -0.7468 -1.5106
  155DOPC   C2618606   2.478   1.456   6.185 -0.7647 -0.7940 -0.1198
  155DOPC   H6R18607   2.420   1.543   6.222 -0.4228 -1.0837  1.1563
  155DOPC   H6S18608   2.409   1.370   6.179 -2.0977 -0.3196  4.3968
  155DOPC   C2718609   2.529   1.494   6.041 -0.2363 -0.4273 -0.6161
  155DOPC   H7R18610   2.589   1.588   6.045 -0.1672 -0.4994  0.4594
  155DOPC   H7S18611   2.437   1.512   5.982 -0.4664  4.5357  0.7688
  155DOPC   C2818612   2.615   1.394   5.976  0.3305  0.5279 -0.2198
  155DOPC   H8R18613   2.561   1.299   5.960 -0.3252  0.8364  0.1062
  155DOPC   H8S18614   2.709   1.376   6.032  0.8404  0.7097 -1.0013
  155DOPC   C2918615   2.649   1.436   5.840  0.0028  0.0033  0.6609
  155DOPC   H9R18616   2.580   1.420   5.756 -0.7388  1.8361  0.8696
  155DOPC  C21018617   2.761   1.508   5.806 -0.9510 -1.0226 -0.1367
  155DOPC  H10R18618   2.776   1.548   5.705 -0.1041 -2.0489 -0.4290
  155DOPC  C21118619   2.870   1.559   5.896 -0.0072  0.6171 -0.0014
  155DOPC  H11R18620   2.952   1.484   5.889 -1.2531 -0.8945  0.9257
  155DOPC  H11S18621   2.834   1.560   6.001  0.3192  1.6109  0.1078
  155DOPC  C21218622   2.935   1.701   5.877 -0.3550 -0.5579  0.2411
  155DOPC  H12R18623   3.000   1.707   5.787  0.5238 -0.5224  0.8606
  155DOPC  H12S18624   2.995   1.719   5.968  2.1134 -2.7707 -0.8147
  155DOPC  C21318625   2.830   1.808   5.866 -0.3404 -0.1729 -0.0749
  155DOPC  H13R18626   2.769   1.801   5.959  0.8654  2.8696  1.0542
  155DOPC  H13S18627   2.766   1.783   5.779  1.1476 -1.6536 -0.8084
  155DOPC  C21418628   2.899   1.946   5.856  0.7047  0.1787  0.1505
  155DOPC  H14R18629   2.956   1.964   5.950  1.3696 -0.5295 -0.1118
  155DOPC  H14S18630   2.818   2.022   5.849 -0.2583 -0.7322  0.9024
  155DOPC  C21518631   2.995   1.981   5.739 -0.2217 -0.3976 -0.1574
  155DOPC  H15R18632   3.061   1.895   5.712  0.4719 -0.0933  0.5225
  155DOPC  H15S18633   3.060   2.062   5.778 -1.3660  1.3498 -1.7617
  155DOPC  C21618634   2.933   2.045   5.610  0.3414  1.0117 -0.4167
  155DOPC  H16R18635   3.014   2.057   5.535 -0.3257  0.7504 -1.1933
  155DOPC  H16S18636   2.896   2.144   5.646 -1.0131 -0.0328  1.2428
  155DOPC  C21718637   2.821   1.963   5.542 -0.5838  0.1929  0.8783
  155DOPC  H17R18638   2.779   2.030   5.463 -0.0674  1.2958  1.5067
  155DOPC  H17S18639   2.735   1.940   5.609 -1.9417 -1.2400 -1.2300
  155DOPC  C21818640   2.874   1.836   5.487 -0.2284 -0.5303  0.0362
  155DOPC  H18R18641   2.956   1.858   5.416  0.3367 -1.7861  0.2598
  155DOPC  H18S18642   2.794   1.782   5.432 -0.3517  0.6842 -1.0247
  155DOPC  H18T18643   2.906   1.772   5.572 -1.3528 -1.9820 -0.5773
  155DOPC   C3318644   2.015   1.488   6.309  0.3971 -0.4414 -0.7056
  155DOPC   H3X18645   1.929   1.557   6.295 -0.2275 -1.2832 -1.1271
  155DOPC   H3Y18646   1.967   1.388   6.320 -2.2458  0.6282 -1.7378
  155DOPC   C3418647   2.102   1.491   6.183 -0.8026 -0.1273 -0.4785
  155DOPC   H4X18648   2.196   1.433   6.199 -1.5891 -1.9061 -1.9196
  155DOPC   H4Y18649   2.127   1.595   6.152  0.8740 -0.0534  0.9672
  155DOPC   C3518650   2.037   1.420   6.067 -0.5958 -0.4422 -0.3445
  155DOPC   H5X18651   1.944   1.468   6.030  0.7915  1.0215 -2.1416
  155DOPC   H5Y18652   2.005   1.320   6.103 -0.9639 -0.0963  0.3116
  155DOPC   C3618653   2.141   1.429   5.952 -0.1527  0.3023 -0.4870
  155DOPC   H6X18654   2.190   1.528   5.943 -0.0877  0.1273 -2.5288
  155DOPC   H6Y18655   2.227   1.370   5.991 -0.6516  0.6727  1.2892
  155DOPC   C3718656   2.094   1.381   5.813 -0.1645  0.2501  0.0004
  155DOPC   H7X18657   2.183   1.350   5.755  1.0986  0.7911  1.5750
  155DOPC   H7Y18658   2.038   1.287   5.831  1.6046 -1.0090 -0.7956
  155DOPC   C3818659   2.017   1.486   5.734 -0.7156  0.5116 -0.7360
  155DOPC   H8X18660   2.085   1.574   5.726  1.3551 -1.0417 -1.3598
  155DOPC   H8Y18661   1.930   1.512   5.797 -0.8235 -1.7761  0.1482
  155DOPC   C3918662   1.976   1.435   5.598  0.2101 -0.1766  0.0109
  155DOPC   H9X18663   1.866   1.439   5.594  0.1824 -1.5378 -0.8058
  155DOPC  C31018664   2.060   1.410   5.492  0.3434  0.4990  0.0461
  155DOPC  H10X18665   2.017   1.401   5.391 -2.3022 -0.4325  1.1934
  155DOPC  C31118666   2.211   1.434   5.491  0.2513  0.6403 -0.1805
  155DOPC  H11X18667   2.238   1.486   5.585 -1.6297 -1.0220  1.3906
  155DOPC  H11Y18668   2.233   1.499   5.404  2.2833 -0.6977 -0.7367
  155DOPC  C31218669   2.285   1.299   5.464 -0.0726 -0.0339 -0.4228
  155DOPC  H12X18670   2.238   1.242   5.381 -1.5647 -2.6586  2.0620
  155DOPC  H12Y18671   2.284   1.238   5.557  1.3337  2.2233  1.1893
  155DOPC  C31318672   2.434   1.318   5.423 -0.3553  0.2038 -0.8901
  155DOPC  H13X18673   2.484   1.389   5.493 -0.6313 -1.0442  0.6139
  155DOPC  H13Y18674   2.493   1.225   5.435  0.5796  0.9697  0.8111
  155DOPC  C31418675   2.442   1.366   5.279 -0.2283 -0.3508 -0.0148
  155DOPC  H14X18676   2.428   1.267   5.231 -1.4051 -0.6643  0.9416
  155DOPC  H14Y18677   2.352   1.425   5.250  0.9774  0.6684 -1.8806
  155DOPC  C31518678   2.573   1.425   5.218  1.5665 -0.2297 -0.3587
  155DOPC  H15X18679   2.664   1.372   5.252 -0.6943 -4.1286  0.2106
  155DOPC  H15Y18680   2.580   1.534   5.237  1.4507 -0.1717 -0.6458
  155DOPC  C31618681   2.582   1.417   5.063  0.4673  0.4312 -0.0069
  155DOPC  H16X18682   2.563   1.313   5.029 -0.6972  0.5832  0.1616
  155DOPC  H16Y18683   2.506   1.484   5.017 -2.1940 -0.5259  2.6430
  155DOPC  C31718684   2.723   1.452   5.007 -0.0254 -0.4599  0.1764
  155DOPC  H17X18685   2.804   1.399   5.062 -0.3567 -0.9085  0.2334
  155DOPC  H17Y18686   2.722   1.421   4.900  3.1924  0.2466 -0.1778
  155DOPC  C31818687   2.752   1.606   5.015 -0.7030 -0.3839 -0.7872
  155DOPC  H18X18688   2.672   1.662   4.962  0.4400  1.5147 -0.5887
  155DOPC  H18Y18689   2.742   1.634   5.122 -2.4342 -1.3385 -0.6544
  155DOPC  H18Z18690   2.850   1.642   4.978 -0.9195  0.9036 -0.1812
  156DOPC     N18691   4.819   6.355   7.699 -0.2287 -0.1599  0.6360
  156DOPC   C1218692   4.733   6.313   7.813  0.0731 -0.3495 -1.0577
  156DOPC  H12A18693   4.629   6.323   7.788 -0.6344 -1.0918  1.3388
  156DOPC  H12B18694   4.752   6.377   7.898  0.3719 -1.2212 -0.4531
  156DOPC   C1318695   4.780   6.499   7.667  0.3949  0.2565 -0.4723
  156DOPC  H13A18696   4.819   6.566   7.742  1.7695 -2.1885  1.1429
  156DOPC  H13B18697   4.819   6.528   7.571 -2.6052  2.0312 -1.2546
  156DOPC  H13C18698   4.674   6.509   7.652  0.4364  0.4858 -0.6114
  156DOPC   C1418699   4.797   6.279   7.567 -0.4752 -0.2725 -0.3962
  156DOPC  H14A18700   4.700   6.300   7.524 -0.0450 -0.3992 -1.4754
  156DOPC  H14B18701   4.877   6.290   7.494 -0.0191  2.2498  0.3753
  156DOPC  H14C18702   4.798   6.174   7.592 -0.0135 -0.4145 -0.9719
  156DOPC   C1518703   4.957   6.345   7.736  0.4643 -0.1979  0.5359
  156DOPC  H15A18704   4.979   6.410   7.820 -0.4646 -0.8596  1.3049
  156DOPC  H15B18705   5.023   6.377   7.656  1.4964 -1.2186  0.9578
  156DOPC  H15C18706   4.978   6.241   7.756 -1.0093 -0.7099 -0.4668
  156DOPC   C1118707   4.755   6.164   7.865  0.2240 -0.2599  0.1950
  156DOPC  H11A18708   4.859   6.153   7.902 -0.1476 -0.8107  1.0998
  156DOPC  H11B18709   4.692   6.143   7.954  1.0358 -1.9999  0.4085
  156DOPC     P18710   4.593   6.023   7.724 -0.2455 -0.2668 -0.0817
  156DOPC   O1318711   4.504   6.130   7.763 -0.1491 -0.3452 -0.0791
  156DOPC   O1418712   4.573   5.883   7.768  0.4245  0.7202  0.0105
  156DOPC   O1218713   4.741   6.067   7.764  0.3824  0.5628 -0.0818
  156DOPC   O1118714   4.604   6.021   7.568 -0.2006  0.6682  0.0719
  156DOPC    C118715   4.690   5.925   7.504  0.5754  0.2266  0.2541
  156DOPC    HA18716   4.648   5.824   7.524  1.1022  0.0364  0.4240
  156DOPC    HB18717   4.798   5.934   7.528  0.7025  1.1004 -0.5907
  156DOPC    C218718   4.699   5.935   7.343  0.1857 -0.2629  0.3420
  156DOPC    HS18719   4.768   5.851   7.320  1.1639  0.1546  1.6442
  156DOPC   O2118720   4.739   6.062   7.310  0.2621  0.3322  0.4451
  156DOPC   C2118721   4.811   6.068   7.195  0.3738  0.4402  0.0935
  156DOPC   O2218722   4.851   5.968   7.138 -0.3240  0.4276  0.3342
  156DOPC   C2218723   4.848   6.217   7.167 -0.6277 -0.1192 -0.1491
  156DOPC   H2R18724   4.850   6.263   7.268 -0.5080  1.0279 -0.6594
  156DOPC   H2S18725   4.762   6.263   7.115 -0.1981  1.9645  0.8720
  156DOPC    C318726   4.554   5.895   7.291 -0.4617  0.0276 -0.4026
  156DOPC    HX18727   4.486   5.980   7.312 -0.4230  0.3352 -1.4510
  156DOPC    HY18728   4.511   5.811   7.350  1.4045 -2.0256 -1.8055
  156DOPC   O3118729   4.559   5.852   7.152 -0.0101  0.0068  0.0948
  156DOPC   C3118730   4.527   5.945   7.065 -0.2502 -0.1824 -0.0824
  156DOPC   O3218731   4.517   6.061   7.096  0.7223 -0.7689  0.3598
  156DOPC   C3218732   4.512   5.899   6.921  0.1477 -0.3349  0.0054
  156DOPC   H2X18733   4.500   5.789   6.917 -0.8673 -0.2006 -1.8053
  156DOPC   H2Y18734   4.421   5.939   6.871  1.0120 -0.5535 -1.8287
  156DOPC   C2318735   4.980   6.231   7.086 -0.1395  0.9331 -0.2497
  156DOPC   H3R18736   4.973   6.168   6.994  1.5888  2.6618 -1.6662
  156DOPC   H3S18737   5.073   6.200   7.138 -0.0275  0.7022 -0.5803
  156DOPC   C2418738   4.990   6.380   7.040 -0.1194  0.3202  0.7366
  156DOPC   H4R18739   5.094   6.402   7.005  0.3347  1.4181  2.6434
  156DOPC   H4S18740   4.981   6.437   7.134  2.3966  0.5870  0.8927
  156DOPC   C2518741   4.892   6.415   6.928 -0.1775  0.0475 -0.4210
  156DOPC   H5R18742   4.882   6.525   6.942  0.4816  0.3373 -2.0377
  156DOPC   H5S18743   4.789   6.375   6.941 -0.6904  1.1026 -1.0877
  156DOPC   C2618744   4.935   6.388   6.779  0.3534  1.4511 -0.4602
  156DOPC   H6R18745   4.949   6.278   6.767 -1.5922  1.2855 -1.5509
  156DOPC   H6S18746   5.031   6.435   6.748  1.0776  0.5023  0.2504
  156DOPC   C2718747   4.834   6.447   6.679  1.1805  0.3245  0.5559
  156DOPC   H7R18748   4.841   6.557   6.691  0.4042  0.2120  2.2321
  156DOPC   H7S18749   4.731   6.428   6.715  0.7509 -0.5668 -1.0601
  156DOPC   C2818750   4.865   6.411   6.532 -0.0715 -0.2243 -0.0408
  156DOPC   H8R18751   4.867   6.300   6.530 -3.7109 -0.4329  0.3530
  156DOPC   H8S18752   4.967   6.448   6.508  0.0750 -0.4122  0.2880
  156DOPC   C2918753   4.768   6.467   6.435 -0.2897  0.7346 -0.2835
  156DOPC   H9R18754   4.716   6.557   6.473 -0.1106 -0.5090  3.2754
  156DOPC  C21018755   4.741   6.425   6.309 -0.2246 -0.4644  0.5754
  156DOPC  H10R18756   4.659   6.473   6.254  2.2887  1.8553 -1.3958
  156DOPC  C21118757   4.798   6.311   6.230 -0.2979 -0.8037 -0.6107
  156DOPC  H11R18758   4.750   6.213   6.254 -1.6963  0.1574  0.6753
  156DOPC  H11S18759   4.905   6.298   6.257 -0.9292 -1.7969  1.6580
  156DOPC  C21218760   4.781   6.334   6.079  0.0433  0.1477  0.0960
  156DOPC  H12R18761   4.675   6.356   6.050  0.0358  0.5596  0.4244
  156DOPC  H12S18762   4.808   6.237   6.032  0.8251  1.5234 -2.4742
  156DOPC  C21318763   4.863   6.446   6.016  0.2427 -0.1622 -0.0300
  156DOPC  H13R18764   4.966   6.430   6.055 -0.6670 -1.6079  1.9678
  156DOPC  H13S18765   4.826   6.540   6.063  1.0026  0.3262 -0.3821
  156DOPC  C21418766   4.868   6.453   5.863  0.1354 -0.1493  0.6690
  156DOPC  H14R18767   4.765   6.457   5.822  1.6374 -0.9349 -3.7504
  156DOPC  H14S18768   4.917   6.366   5.813 -0.3355  0.6778 -1.3586
  156DOPC  C21518769   4.927   6.591   5.826 -0.1807  0.2920 -0.9109
  156DOPC  H15R18770   4.911   6.673   5.898  2.0954  1.8451 -2.0753
  156DOPC  H15S18771   4.884   6.618   5.727 -1.8237 -1.1400 -0.6486
  156DOPC  C21618772   5.079   6.574   5.818  0.4540 -0.1722  0.0486
  156DOPC  H16R18773   5.101   6.502   5.737  0.9191 -1.2459  1.1043
  156DOPC  H16S18774   5.119   6.543   5.917  1.5949  0.9852 -0.0198
  156DOPC  C21718775   5.140   6.704   5.771 -0.8537 -0.1685 -0.0602
  156DOPC  H17R18776   5.113   6.787   5.840 -1.6190 -0.5951  0.1660
  156DOPC  H17S18777   5.085   6.722   5.676  0.8131  2.4282 -0.6557
  156DOPC  C21818778   5.294   6.698   5.738 -1.2772  0.0800 -0.5485
  156DOPC  H18R18779   5.348   6.630   5.808  3.5418  0.8747 -3.0465
  156DOPC  H18S18780   5.350   6.794   5.740  2.5658 -1.9561 -0.9056
  156DOPC  H18T18781   5.318   6.650   5.641 -0.1404  0.0285 -0.2601
  156DOPC   C3318782   4.632   5.955   6.835 -0.4544  0.4652 -0.1873
  156DOPC   H3X18783   4.735   5.933   6.871 -0.5515  0.7115  0.2597
  156DOPC   H3Y18784   4.616   6.065   6.848 -1.8048  0.3209 -0.5111
  156DOPC   C3418785   4.618   5.934   6.682  0.1261  0.2002  0.1568
  156DOPC   H4X18786   4.510   5.953   6.661  0.2169 -0.4325 -0.9545
  156DOPC   H4Y18787   4.650   5.834   6.646  1.2896  0.6917 -0.2395
  156DOPC   C3518788   4.691   6.041   6.599  0.3457  0.2064  0.1029
  156DOPC   H5X18789   4.683   6.135   6.658 -2.0812  0.2718 -0.2491
  156DOPC   H5Y18790   4.643   6.055   6.500 -0.9095  0.4321  0.7237
  156DOPC   C3618791   4.840   6.012   6.578 -0.1278  0.8385  0.1323
  156DOPC   H6X18792   4.895   6.099   6.536 -0.4963  0.6145 -0.8373
  156DOPC   H6Y18793   4.881   5.993   6.680 -1.2960  0.1577  0.4999
  156DOPC   C3718794   4.873   5.879   6.494 -0.6473 -0.0636 -0.2479
  156DOPC   H7X18795   4.937   5.814   6.557 -3.0934 -0.7912  1.6469
  156DOPC   H7Y18796   4.781   5.820   6.475  0.8286 -2.0964 -1.6932
  156DOPC   C3818797   4.947   5.908   6.359 -0.2730  0.6241  0.0733
  156DOPC   H8X18798   4.995   5.814   6.325 -0.5643  0.2659  0.6396
  156DOPC   H8Y18799   5.031   5.973   6.393 -0.8069  1.1648  0.3823
  156DOPC   C3918800   4.850   5.964   6.260  0.1382  0.3222 -0.4828
  156DOPC   H9X18801   4.753   5.979   6.309  1.4396  1.4024  1.9284
  156DOPC  C31018802   4.875   5.992   6.131 -0.5051 -0.3331 -0.7425
  156DOPC  H10X18803   4.797   6.039   6.068 -0.9686 -1.4241 -0.9947
  156DOPC  C31118804   5.008   5.970   6.055  0.3757 -0.3281  0.2370
  156DOPC  H11X18805   5.062   5.884   6.100  2.0591  0.2751 -0.5511
  156DOPC  H11Y18806   5.076   6.056   6.073 -0.7003  0.6230 -0.1322
  156DOPC  C31218807   4.985   5.949   5.901  0.6141 -0.7138 -0.5649
  156DOPC  H12X18808   4.910   5.869   5.886 -0.9641  0.6494 -0.3434
  156DOPC  H12Y18809   5.089   5.920   5.878  0.1252 -1.6618 -1.6980
  156DOPC  C31318810   4.941   6.074   5.819 -0.0951  0.3467 -0.1376
  156DOPC  H13X18811   4.833   6.100   5.827 -0.3402 -0.2916 -1.0655
  156DOPC  H13Y18812   4.999   6.156   5.866  0.9570 -1.3724  1.7265
  156DOPC  C31418813   4.968   6.069   5.666 -0.1893  0.3118 -0.0802
  156DOPC  H14X18814   4.970   6.169   5.617  0.5280  0.3239 -0.0469
  156DOPC  H14Y18815   5.071   6.030   5.652 -0.3697 -0.1187 -0.1953
  156DOPC  C31518816   4.878   5.979   5.579  0.0281 -0.1298  0.4784
  156DOPC  H15X18817   4.776   6.015   5.609  0.4695  0.5278  1.2433
  156DOPC  H15Y18818   4.888   5.871   5.599 -1.1119 -0.1353  1.1462
  156DOPC  C31618819   4.894   6.006   5.426 -0.6189  0.7213 -0.2505
  156DOPC  H16X18820   4.880   6.116   5.412  1.1234  1.2043  1.2856
  156DOPC  H16Y18821   4.997   5.969   5.407 -1.2590 -1.1986 -0.2011
  156DOPC  C31718822   4.792   5.943   5.331  0.2803  0.3590 -0.7218
  156DOPC  H17X18823   4.696   5.987   5.366  1.2244  0.9768  1.2769
  156DOPC  H17Y18824   4.809   5.974   5.226  0.3073  1.0045 -0.5351
  156DOPC  C31818825   4.787   5.787   5.346 -0.6136  1.0870 -0.5857
  156DOPC  H18X18826   4.719   5.744   5.269 -1.7795  1.8820 -0.0274
  156DOPC  H18Y18827   4.888   5.744   5.330  0.1104  1.1751  3.0052
  156DOPC  H18Z18828   4.765   5.752   5.449 -0.0205 -2.7372 -1.6026
  157DOPC     N18829   4.628   1.974   7.324  0.7491 -0.1170 -1.0779
  157DOPC   C1218830   4.623   1.822   7.327  0.2018  0.5943  0.8659
  157DOPC  H12A18831   4.583   1.773   7.240  1.1544 -1.9470  1.7417
  157DOPC  H12B18832   4.543   1.800   7.397 -0.7326  0.1839 -0.3113
  157DOPC   C1318833   4.493   2.015   7.290 -0.2602  0.7778  0.5531
  157DOPC  H13A18834   4.465   1.980   7.192  0.3103 -0.8719  0.9513
  157DOPC  H13B18835   4.415   1.973   7.350 -1.2722  0.2061 -1.1073
  157DOPC  H13C18836   4.480   2.123   7.292 -0.9390  0.7974 -1.6923
  157DOPC   C1418837   4.728   2.024   7.230 -0.3875  0.6124 -0.2366
  157DOPC  H14A18838   4.831   2.007   7.257 -0.5360 -2.9394 -1.4586
  157DOPC  H14B18839   4.718   1.978   7.133  1.9444  0.0048 -0.2373
  157DOPC  H14C18840   4.712   2.129   7.206  0.7141  0.8959  0.2297
  157DOPC   C1518841   4.666   2.026   7.455 -1.2102  0.0766  0.0284
  157DOPC  H15A18842   4.672   2.134   7.459  3.3821  0.0564 -0.5733
  157DOPC  H15B18843   4.765   1.986   7.469 -0.6800  1.2969 -0.0803
  157DOPC  H15C18844   4.612   1.994   7.543 -0.2090  0.0925  0.6646
  157DOPC   C1118845   4.756   1.745   7.365  0.3450  0.2690 -0.7625
  157DOPC  H11A18846   4.722   1.640   7.376 -0.3420  0.6515  1.0718
  157DOPC  H11B18847   4.829   1.751   7.281  0.7890 -2.0998 -0.5982
  157DOPC     P18848   4.954   1.714   7.529  0.4261  0.0263  0.7047
  157DOPC   O1318849   4.931   1.589   7.607  0.6683 -0.6300 -0.6012
  157DOPC   O1418850   5.035   1.814   7.597 -0.6307  0.1820 -0.1887
  157DOPC   O1218851   4.815   1.778   7.488  0.3519  0.7628  0.0017
  157DOPC   O1118852   5.022   1.680   7.394  0.1941 -0.0620  0.5364
  157DOPC    C118853   5.161   1.710   7.371  0.0677  0.6921 -1.1066
  157DOPC    HA18854   5.198   1.618   7.321  0.4343 -0.1615  0.6387
  157DOPC    HB18855   5.213   1.730   7.467  0.9350  1.1181 -1.6472
  157DOPC    C218856   5.183   1.830   7.275  0.3664 -0.8238 -0.0104
  157DOPC    HS18857   5.137   1.914   7.331 -0.0864 -1.5837  0.7917
  157DOPC   O2118858   5.109   1.801   7.157  0.1001  0.3132 -0.0547
  157DOPC   C2118859   5.052   1.905   7.102 -0.1364  0.4326 -1.0895
  157DOPC   O2218860   5.057   2.023   7.149  0.0602  0.1736 -0.1494
  157DOPC   C2218861   4.979   1.886   6.976  0.4065  0.4323 -0.2343
  157DOPC   H2R18862   4.921   1.979   6.962 -0.8651 -0.2658  0.2551
  157DOPC   H2S18863   4.907   1.801   6.979  3.3776 -2.3302 -0.5997
  157DOPC    C318864   5.334   1.863   7.242 -0.4116 -0.6356  0.2883
  157DOPC    HX18865   5.379   1.768   7.207  1.2711  0.8274 -1.8159
  157DOPC    HY18866   5.375   1.889   7.342  0.3498  1.6924 -0.5550
  157DOPC   O3118867   5.339   1.959   7.142 -0.0351  0.2276  0.5404
  157DOPC   C3118868   5.378   2.084   7.171  0.6898  0.5803 -0.4173
  157DOPC   O3218869   5.425   2.112   7.283 -0.2867 -0.6808  0.3207
  157DOPC   C3218870   5.359   2.183   7.059 -0.5804 -0.6312  0.3700
  157DOPC   H2X18871   5.452   2.183   6.998 -1.0429  0.6841 -0.3819
  157DOPC   H2Y18872   5.268   2.170   6.997 -0.6321 -2.2000  0.7371
  157DOPC   C2318873   5.074   1.860   6.862  0.7625  0.0298 -0.7565
  157DOPC   H3R18874   5.061   1.754   6.831  1.5931 -1.5996  3.7665
  157DOPC   H3S18875   5.177   1.884   6.895  0.5742  0.5866 -0.5644
  157DOPC   C2418876   5.060   1.938   6.729 -0.1997  0.2303  0.2053
  157DOPC   H4R18877   4.957   1.920   6.690  1.2853 -1.2008 -3.4528
  157DOPC   H4S18878   5.131   1.895   6.656 -0.7600 -1.8061  0.8124
  157DOPC   C2518879   5.093   2.088   6.738 -0.2195  0.7332 -0.0072
  157DOPC   H5R18880   5.201   2.105   6.754  0.9530 -2.3403 -3.3472
  157DOPC   H5S18881   5.044   2.129   6.829  0.7474 -0.5345  1.1094
  157DOPC   C2618882   5.045   2.160   6.607 -0.4993 -0.7950 -0.1953
  157DOPC   H6R18883   5.003   2.258   6.640  0.1061 -1.3729  2.6026
  157DOPC   H6S18884   4.955   2.105   6.571  0.4457 -2.9105  0.5068
  157DOPC   C2718885   5.144   2.172   6.496  0.4707 -0.6087  0.7667
  157DOPC   H7R18886   5.185   2.070   6.480 -0.7751 -1.1846  1.0862
  157DOPC   H7S18887   5.227   2.240   6.522  0.3673  0.0504 -0.5423
  157DOPC   C2818888   5.087   2.238   6.372 -0.2130  0.8001 -0.0722
  157DOPC   H8R18889   5.168   2.271   6.303  0.5168  0.7313  0.7396
  157DOPC   H8S18890   5.036   2.333   6.401 -0.4501  1.0491 -1.2393
  157DOPC   C2918891   4.998   2.147   6.284  0.2769  0.8269  0.3880
  157DOPC   H9R18892   4.999   2.040   6.307  2.0622  0.3035 -1.7528
  157DOPC  C21018893   4.922   2.178   6.173 -0.0831  0.0995  0.0756
  157DOPC  H10R18894   4.863   2.095   6.131 -0.1562 -0.0477  0.4621
  157DOPC  C21118895   4.921   2.311   6.106  0.1751 -0.2622 -0.0500
  157DOPC  H11R18896   5.022   2.319   6.062  1.2016  0.0583  2.2409
  157DOPC  H11S18897   4.924   2.395   6.178  2.3360  0.2365 -0.6643
  157DOPC  C21218898   4.807   2.323   6.002  0.1167  0.3387  0.4196
  157DOPC  H12R18899   4.721   2.305   6.070  0.1816  2.2519  1.0645
  157DOPC  H12S18900   4.815   2.246   5.922  0.3525  2.0620 -1.2885
  157DOPC  C21318901   4.785   2.459   5.944 -0.1465  0.0540  0.0551
  157DOPC  H13R18902   4.774   2.539   6.021  2.5662  1.4386 -0.8849
  157DOPC  H13S18903   4.699   2.448   5.874  0.4734 -1.8167 -0.4410
  157DOPC  C21418904   4.906   2.508   5.868  0.2231  0.4483 -0.0238
  157DOPC  H14R18905   4.986   2.528   5.943  0.3188  1.4961 -0.3890
  157DOPC  H14S18906   4.886   2.605   5.819  0.2232  0.8106  0.6713
  157DOPC  C21518907   4.951   2.407   5.757 -0.2740 -0.6713  0.3388
  157DOPC  H15R18908   4.951   2.301   5.791 -1.3592 -1.0075 -0.6421
  157DOPC  H15S18909   5.053   2.434   5.722 -0.4443 -1.9271 -1.2751
  157DOPC  C21618910   4.857   2.416   5.633  0.0445 -0.1587 -0.2087
  157DOPC  H16R18911   4.855   2.519   5.591  0.8628  0.4092  1.0589
  157DOPC  H16S18912   4.758   2.385   5.672  0.8942 -1.0027  1.3515
  157DOPC  C21718913   4.918   2.324   5.524  0.6211 -0.9055 -0.0683
  157DOPC  H17R18914   4.943   2.230   5.578  2.4014 -0.9856 -0.9864
  157DOPC  H17S18915   5.015   2.361   5.485  0.4039 -0.9708 -0.6805
  157DOPC  C21818916   4.821   2.306   5.407 -0.1590 -0.1312  0.1068
  157DOPC  H18R18917   4.730   2.247   5.433  0.0455 -0.8775 -0.8293
  157DOPC  H18S18918   4.875   2.262   5.321  1.2886  0.3520  0.7351
  157DOPC  H18T18919   4.796   2.405   5.365  0.7309 -0.3449 -0.9516
  157DOPC   C3318920   5.347   2.332   7.108 -0.1246 -0.1813  0.4013
  157DOPC   H3X18921   5.444   2.358   7.156 -0.4151  1.2616  0.2660
  157DOPC   H3Y18922   5.276   2.340   7.193 -1.1067 -0.4293 -0.3718
  157DOPC   C3418923   5.326   2.446   7.000  0.2342 -0.2623  0.0212
  157DOPC   H4X18924   5.343   2.547   7.043  1.1181 -0.3947 -0.0008
  157DOPC   H4Y18925   5.224   2.434   6.957  0.0040  2.3291 -0.2751
  157DOPC   C3518926   5.424   2.422   6.884  0.3673  0.3864 -0.9097
  157DOPC   H5X18927   5.400   2.327   6.830  1.8016 -0.0393 -0.8486
  157DOPC   H5Y18928   5.525   2.403   6.927  0.1511 -0.4128 -0.7373
  157DOPC   C3618929   5.437   2.528   6.790 -0.5712 -0.7923  0.2954
  157DOPC   H6X18930   5.334   2.543   6.750 -0.0074 -0.7983 -1.2097
  157DOPC   H6Y18931   5.463   2.626   6.836  1.1742 -0.6617 -0.8924
  157DOPC   C3718932   5.540   2.507   6.674  0.2110 -0.2372 -0.3888
  157DOPC   H7X18933   5.547   2.594   6.605  0.6628 -1.0170 -1.3582
  157DOPC   H7Y18934   5.640   2.490   6.719  0.8015 -1.1187 -1.9232
  157DOPC   C3818935   5.504   2.381   6.579  0.0757 -0.3526  0.3209
  157DOPC   H8X18936   5.460   2.298   6.639 -2.3338  0.2675 -0.4903
  157DOPC   H8Y18937   5.592   2.336   6.526  0.3714 -3.4822  3.1105
  157DOPC   C3918938   5.406   2.426   6.468 -0.0483  0.3251  0.3023
  157DOPC   H9X18939   5.315   2.480   6.497  0.7030  1.3924  0.7267
  157DOPC  C31018940   5.424   2.408   6.335  0.1135  0.6008 -0.0917
  157DOPC  H10X18941   5.351   2.443   6.260 -0.0112  0.5652  0.0115
  157DOPC  C31118942   5.550   2.347   6.273 -0.1573 -0.3344  0.2886
  157DOPC  H11X18943   5.558   2.236   6.284 -1.8562 -0.6238 -0.8809
  157DOPC  H11Y18944   5.646   2.388   6.311 -0.4467 -0.9735  1.7502
  157DOPC  C31218945   5.567   2.395   6.125 -0.0260  0.0348  0.4998
  157DOPC  H12X18946   5.669   2.369   6.090  0.9862  0.9199  2.6284
  157DOPC  H12Y18947   5.558   2.505   6.112 -0.1594  0.0707  0.8814
  157DOPC  C31318948   5.465   2.331   6.022 -0.1100  0.0967 -0.2149
  157DOPC  H13X18949   5.490   2.223   6.017 -2.4743 -0.4796 -0.5521
  157DOPC  H13Y18950   5.361   2.345   6.058  0.0901  2.1822 -0.3077
  157DOPC  C31418951   5.488   2.386   5.883  0.7996 -0.0550 -0.2558
  157DOPC  H14X18952   5.479   2.497   5.891 -3.1863 -0.1900 -0.4505
  157DOPC  H14Y18953   5.589   2.348   5.856  0.3871 -1.1039 -0.3563
  157DOPC  C31518954   5.377   2.334   5.792  0.6130  0.3652 -0.1135
  157DOPC  H15X18955   5.378   2.391   5.697  1.1577  1.2934  0.4352
  157DOPC  H15Y18956   5.276   2.346   5.837 -0.3521  0.4037 -2.1769
  157DOPC  C31618957   5.395   2.186   5.763  0.0428  0.3533  0.4057
  157DOPC  H16X18958   5.491   2.166   5.711  1.1757  0.7008  2.2586
  157DOPC  H16Y18959   5.394   2.125   5.856 -1.3904 -2.1733 -1.1477
  157DOPC  C31718960   5.270   2.149   5.679 -0.2437  0.7839 -0.0819
  157DOPC  H17X18961   5.195   2.110   5.751  0.2773  1.8065  1.0434
  157DOPC  H17Y18962   5.221   2.234   5.626  0.4114  0.3222 -1.4678
  157DOPC  C31818963   5.295   2.039   5.582 -0.1135  1.1787 -0.3690
  157DOPC  H18X18964   5.341   2.083   5.490  0.2563  1.3408 -0.1087
  157DOPC  H18Y18965   5.355   1.958   5.627 -0.5613  1.8017  1.4311
  157DOPC  H18Z18966   5.200   1.994   5.547 -0.5101 -1.2227  3.2642
  158DOPC     N18967   5.685   6.062   7.815  0.1931  0.0327 -0.1244
  158DOPC   C1218968   5.689   6.054   7.659 -0.5513  0.2223 -0.5798
  158DOPC  H12A18969   5.786   6.091   7.631 -0.6455  1.2005  0.3211
  158DOPC  H12B18970   5.629   6.130   7.610  2.0375  0.5740 -3.5447
  158DOPC   C1318971   5.741   6.189   7.859  0.3148  0.2629 -1.2760
  158DOPC  H13A18972   5.847   6.193   7.838  0.9351  1.7569  1.5498
  158DOPC  H13B18973   5.695   6.268   7.802 -1.8803  1.0468  1.3478
  158DOPC  H13C18974   5.718   6.207   7.963  0.9334 -2.4504 -0.5915
  158DOPC   C1418975   5.760   5.945   7.873 -0.1618  1.0829 -0.2968
  158DOPC  H14A18976   5.705   5.853   7.860  0.1310  0.9952 -0.9575
  158DOPC  H14B18977   5.857   5.929   7.830  0.3292 -0.1237  1.1594
  158DOPC  H14C18978   5.774   5.959   7.979 -0.7022 -2.4684  0.3579
  158DOPC   C1518979   5.542   6.061   7.862  0.1787 -0.6188  0.4102
  158DOPC  H15A18980   5.527   6.027   7.963 -1.2755  0.2804  0.5146
  158DOPC  H15B18981   5.481   6.003   7.794  2.6990 -0.1982 -2.4318
  158DOPC  H15C18982   5.516   6.165   7.848  0.8397 -0.5945 -0.8678
  158DOPC   C1118983   5.657   5.921   7.592 -0.0298 -0.3602  0.0747
  158DOPC  H11A18984   5.677   5.946   7.486  0.7035 -0.9842  0.0548
  158DOPC  H11B18985   5.730   5.845   7.628 -1.0083  0.0939  3.2856
  158DOPC     P18986   5.400   5.934   7.539 -0.0281 -0.7626 -0.5473
  158DOPC   O1318987   5.435   6.047   7.455  0.0676 -0.8727 -0.5383
  158DOPC   O1418988   5.291   5.958   7.641  0.3763 -0.1672  0.6058
  158DOPC   O1218989   5.524   5.882   7.620 -0.2676  0.4508 -0.0633
  158DOPC   O1118990   5.350   5.811   7.459 -0.2070 -0.0291  0.3095
  158DOPC    C118991   5.440   5.706   7.414 -0.7244 -0.1844  0.4110
  158DOPC    HA18992   5.385   5.615   7.382  0.2207 -1.5669  2.5135
  158DOPC    HB18993   5.500   5.664   7.497 -0.0568  1.2798  0.6969
  158DOPC    C218994   5.532   5.750   7.297 -0.0547 -0.2047  0.1702
  158DOPC    HS18995   5.616   5.811   7.337 -0.2576  0.3859 -0.2924
  158DOPC   O2118996   5.461   5.835   7.203  0.0117  0.4974  0.1564
  158DOPC   C2118997   5.341   5.801   7.160  0.4431  0.0345  0.1249
  158DOPC   O2218998   5.287   5.689   7.170 -0.6846  0.4703 -0.4707
  158DOPC   C2218999   5.263   5.924   7.103 -0.2196 -0.5519 -1.3431
  158DOPC   H2R19000   5.319   6.019   7.117  0.6807 -1.3834  1.0660
  158DOPC   H2S19001   5.165   5.931   7.155 -0.4056  0.4654 -1.7973
  158DOPC    C319002   5.602   5.631   7.225  0.2204  0.2465 -0.0522
  158DOPC    HX19003   5.529   5.548   7.229  1.7003 -1.0592  1.8874
  158DOPC    HY19004   5.688   5.600   7.288 -0.4632 -0.1864  0.6968
  158DOPC   O3119005   5.636   5.654   7.089 -0.2128 -0.0705  0.3609
  158DOPC   C3119006   5.756   5.723   7.077  0.0636  1.2215 -0.9156
  158DOPC   O3219007   5.823   5.760   7.175  0.6118 -0.7505  0.3850
  158DOPC   C3219008   5.788   5.760   6.936  0.0516 -0.0110  0.1881
  158DOPC   H2X19009   5.775   5.870   6.923 -0.0394  0.0594  0.8313
  158DOPC   H2Y19010   5.897   5.748   6.921  0.1379 -0.4441  1.1548
  158DOPC   C2319011   5.219   5.896   6.960  0.0861 -0.6430 -0.0052
  158DOPC   H3R19012   5.150   5.979   6.932  1.2652  0.8044  1.1992
  158DOPC   H3S19013   5.159   5.803   6.955 -1.4680  0.3296 -0.1309
  158DOPC   C2419014   5.342   5.895   6.872  0.6488 -0.1378  0.2386
  158DOPC   H4R19015   5.409   5.812   6.904 -0.1862 -0.2302  1.8770
  158DOPC   H4S19016   5.397   5.991   6.872  0.6491 -0.1380  0.2230
  158DOPC   C2519017   5.296   5.874   6.726 -0.5666 -0.8873 -0.9012
  158DOPC   H5R19018   5.377   5.918   6.664 -0.1046  3.4612  2.2215
  158DOPC   H5S19019   5.215   5.949   6.712 -2.4036 -2.3947  0.9674
  158DOPC   C2619020   5.244   5.733   6.691  0.3568  0.2889  0.1816
  158DOPC   H6R19021   5.154   5.714   6.753 -1.9182  3.1160 -1.9400
  158DOPC   H6S19022   5.330   5.668   6.719  1.9114  1.2488 -2.0229
  158DOPC   C2719023   5.217   5.715   6.543 -0.4598 -0.3251 -0.0461
  158DOPC   H7R19024   5.159   5.801   6.504  1.8388  2.2096  1.7523
  158DOPC   H7S19025   5.163   5.621   6.516 -0.1552 -0.5181  0.0033
  158DOPC   C2819026   5.347   5.708   6.456  0.2104 -0.1539 -0.1399
  158DOPC   H8R19027   5.422   5.638   6.499 -0.9628  0.1443  2.6020
  158DOPC   H8S19028   5.402   5.805   6.463 -0.2575  0.0384  1.4388
  158DOPC   C2919029   5.326   5.672   6.303 -0.3217  0.8238 -0.1604
  158DOPC   H9R19030   5.293   5.569   6.284 -0.4742  0.7976  0.2266
  158DOPC  C21019031   5.344   5.749   6.195 -0.4899 -0.2134  0.6960
  158DOPC  H10R19032   5.314   5.721   6.093 -1.6551  1.5842  0.4949
  158DOPC  C21119033   5.384   5.896   6.195 -0.3290  0.3230 -0.6301
  158DOPC  H11R19034   5.442   5.916   6.288  1.4150  0.7474 -1.7557
  158DOPC  H11S19035   5.298   5.965   6.211  0.2660  0.7217  1.1127
  158DOPC  C21219036   5.471   5.936   6.085  0.0888  0.4397 -0.2868
  158DOPC  H12R19037   5.498   6.040   6.115  0.6504 -0.0658  1.0300
  158DOPC  H12S19038   5.420   5.927   5.987  0.3977 -1.2449 -0.3287
  158DOPC  C21319039   5.606   5.859   6.084  0.0447  0.5009  0.0756
  158DOPC  H13R19040   5.579   5.755   6.056 -1.1650  1.4072 -2.4444
  158DOPC  H13S19041   5.651   5.859   6.186 -0.4627 -1.9501  0.3757
  158DOPC  C21419042   5.683   5.915   5.970 -0.1971 -0.4770 -0.5294
  158DOPC  H14R19043   5.730   6.015   5.983 -0.3032 -0.4103 -0.6585
  158DOPC  H14S19044   5.616   5.934   5.885  0.1418  0.2397 -0.6411
  158DOPC  C21519045   5.799   5.816   5.930  0.0674 -0.5467  0.4170
  158DOPC  H15R19046   5.770   5.709   5.922  2.6620 -1.2294 -1.5265
  158DOPC  H15S19047   5.884   5.815   6.002  0.2215  2.7669  0.4590
  158DOPC  C21619048   5.854   5.874   5.799  0.7713  0.0084  0.5030
  158DOPC  H16R19049   5.818   5.979   5.794 -1.2285 -0.5531  1.5896
  158DOPC  H16S19050   5.806   5.830   5.709 -1.9389 -0.0188  1.8538
  158DOPC  C21719051   6.007   5.875   5.796 -0.2656 -0.1824  0.2023
  158DOPC  H17R19052   6.033   5.768   5.786 -0.7847 -0.3847  0.8678
  158DOPC  H17S19053   6.044   5.906   5.896  0.6121  0.9152 -0.4407
  158DOPC  C21819054   6.072   5.961   5.692 -0.4388  0.1175 -0.3841
  158DOPC  H18R19055   6.041   5.926   5.592  0.4112  0.2819 -0.7114
  158DOPC  H18S19056   6.183   5.954   5.699 -0.4242 -0.3350 -1.0501
  158DOPC  H18T19057   6.051   6.070   5.698 -0.5404  0.0493  0.8819
  158DOPC   C3319058   5.710   5.686   6.828  0.1069  0.0273  0.1678
  158DOPC   H3X19059   5.602   5.708   6.845 -0.7310 -1.4340 -2.5714
  158DOPC   H3Y19060   5.728   5.579   6.847 -0.0285  0.1152  0.8066
  158DOPC   C3419061   5.754   5.735   6.688  0.0427  0.4516  0.0373
  158DOPC   H4X19062   5.687   5.688   6.613  1.1666 -0.6919 -0.2727
  158DOPC   H4Y19063   5.856   5.695   6.673 -0.5666 -1.7021  1.1340
  158DOPC   C3519064   5.748   5.890   6.667 -0.0410 -0.6888 -0.7501
  158DOPC   H5X19065   5.844   5.923   6.711 -0.1276 -0.1238 -0.9677
  158DOPC   H5Y19066   5.652   5.923   6.712 -0.0787  1.3148 -2.1493
  158DOPC   C3619067   5.769   5.930   6.518  0.6402  0.1690  0.2578
  158DOPC   H6X19068   5.865   5.892   6.476  0.5509  0.6785 -0.4187
  158DOPC   H6Y19069   5.683   5.891   6.460  0.3353 -1.2835  1.6149
  158DOPC   C3719070   5.778   6.088   6.509 -0.2467 -0.0073  0.2085
  158DOPC   H7X19071   5.682   6.127   6.550 -0.2108 -2.4458  2.9321
  158DOPC   H7Y19072   5.858   6.133   6.571 -1.0628  1.4038  0.2827
  158DOPC   C3819073   5.788   6.121   6.357  0.0829 -0.2097  0.2951
  158DOPC   H8X19074   5.737   6.039   6.303  1.2671 -0.2289 -0.8419
  158DOPC   H8Y19075   5.893   6.114   6.322 -0.5364  3.6454 -3.1527
  158DOPC   C3919076   5.730   6.255   6.323 -0.3413 -0.8608  0.1772
  158DOPC   H9X19077   5.659   6.295   6.397  0.2213 -1.0639  0.8358
  158DOPC  C31019078   5.743   6.308   6.204  0.9378 -0.3840  0.6654
  158DOPC  H10X19079   5.690   6.403   6.187 -0.2773 -0.5576  3.1308
  158DOPC  C31119080   5.812   6.254   6.082 -0.1780 -0.0173 -0.1666
  158DOPC  H11X19081   5.729   6.242   6.010  0.1044 -2.1060 -0.2051
  158DOPC  H11Y19082   5.843   6.149   6.103  0.4811 -0.1588 -1.7262
  158DOPC  C31219083   5.925   6.339   6.025 -0.1341 -0.4871  0.3134
  158DOPC  H12X19084   5.998   6.365   6.105 -1.7228  0.4191  1.5250
  158DOPC  H12Y19085   5.890   6.435   5.979 -0.6242  1.0488  3.6007
  158DOPC  C31319086   6.004   6.250   5.918 -0.2150  0.1862 -0.0768
  158DOPC  H13X19087   6.056   6.162   5.963 -0.4329  0.1392  0.0861
  158DOPC  H13Y19088   5.926   6.214   5.847 -1.4918  2.0646  0.3014
  158DOPC  C31419089   6.114   6.323   5.842  1.3102 -0.3980  0.4612
  158DOPC  H14X19090   6.142   6.267   5.751 -1.1684  0.0500 -0.6719
  158DOPC  H14Y19091   6.076   6.421   5.805 -0.4564 -1.3415 -0.3533
  158DOPC  C31519092   6.241   6.344   5.921  0.1859 -0.3104  0.3480
  158DOPC  H15X19093   6.224   6.384   6.024  5.0471 -0.9073  1.6659
  158DOPC  H15Y19094   6.285   6.438   5.880 -0.7973  0.5701  1.2322
  158DOPC  C31619095   6.335   6.222   5.927  0.1413  0.0762  0.1762
  158DOPC  H16X19096   6.314   6.148   5.846 -3.0220  0.8022  0.2248
  158DOPC  H16Y19097   6.432   6.274   5.907  0.0816  0.2326  0.3003
  158DOPC  C31719098   6.345   6.159   6.066 -0.0388  0.0865 -0.0341
  158DOPC  H17X19099   6.376   6.238   6.137  1.1104 -0.7958  0.4774
  158DOPC  H17Y19100   6.247   6.112   6.091 -1.6738  3.1243 -0.2479
  158DOPC  C31819101   6.440   6.041   6.067  0.0071  0.3017  0.4703
  158DOPC  H18X19102   6.534   6.075   6.019  1.0808 -1.9926  0.8572
  158DOPC  H18Y19103   6.446   6.001   6.170  1.7296  1.5987  0.9243
  158DOPC  H18Z19104   6.398   5.961   6.002  0.5029  0.2080  0.2679
  159DOPC     N19105   5.577   1.150   8.179  0.6642 -1.0615  0.4646
  159DOPC   C1219106   5.552   1.180   8.028  0.2563  0.6090  0.3390
  159DOPC  H12A19107   5.485   1.105   7.992 -0.4963  2.6459 -2.9227
  159DOPC  H12B19108   5.644   1.165   7.973 -0.4509  1.1021 -1.0014
  159DOPC   C1319109   5.666   1.261   8.227 -0.2516  0.3865  0.2621
  159DOPC  H13A19110   5.685   1.254   8.333 -2.8893  1.6770  0.9028
  159DOPC  H13B19111   5.761   1.262   8.177 -0.1375 -1.5518  0.3762
  159DOPC  H13C19112   5.608   1.350   8.209 -1.9387 -0.3210  1.8643
  159DOPC   C1419113   5.635   1.016   8.192  0.6535  1.2166  0.5349
  159DOPC  H14A19114   5.648   0.987   8.295  0.4131 -2.5083 -0.3406
  159DOPC  H14B19115   5.576   0.939   8.145  2.4427  0.0323  0.1345
  159DOPC  H14C19116   5.735   1.019   8.152  0.8963 -1.3185  0.7973
  159DOPC   C1519117   5.439   1.143   8.247  0.1314  0.2500  0.5302
  159DOPC  H15A19118   5.378   1.223   8.206 -0.1918 -0.0265  0.4668
  159DOPC  H15B19119   5.442   1.142   8.355 -1.6578  0.4491  0.6112
  159DOPC  H15C19120   5.381   1.055   8.225  0.1471  0.5074 -0.6370
  159DOPC   C1119121   5.493   1.319   7.988  0.0225 -0.9367  0.4219
  159DOPC  H11A19122   5.539   1.406   8.038  0.3058 -1.8086  1.7213
  159DOPC  H11B19123   5.518   1.349   7.884 -2.2929  1.0950  0.3646
  159DOPC     P19124   5.248   1.245   7.924 -0.3196  0.1290  0.7204
  159DOPC   O1319125   5.115   1.306   7.940  0.6570 -0.3681 -0.0897
  159DOPC   O1419126   5.267   1.101   7.955  0.1132 -0.0881 -0.2290
  159DOPC   O1219127   5.352   1.335   8.007 -0.4911  0.1917  0.3841
  159DOPC   O1119128   5.287   1.246   7.771  0.0039  0.5082  0.8242
  159DOPC    C119129   5.272   1.367   7.694 -0.7212 -0.2636  0.7650
  159DOPC    HA19130   5.303   1.455   7.754 -1.9524 -0.5898  1.9075
  159DOPC    HB19131   5.165   1.378   7.666 -0.7399  0.8581  1.2364
  159DOPC    C219132   5.349   1.368   7.551 -0.7806 -0.4539 -0.1733
  159DOPC    HS19133   5.289   1.441   7.492 -0.2555 -0.5957 -0.8925
  159DOPC   O2119134   5.362   1.232   7.494 -0.4453 -0.8325  0.7156
  159DOPC   C2119135   5.247   1.171   7.471  0.5629 -0.5064  0.2428
  159DOPC   O2219136   5.133   1.205   7.503  0.5096 -0.5336  0.9059
  159DOPC   C2219137   5.264   1.046   7.385 -0.2445  0.2918  0.3838
  159DOPC   H2R19138   5.246   0.958   7.451  1.2069 -0.4685 -0.1688
  159DOPC   H2S19139   5.368   1.044   7.345 -0.8331 -0.4168 -1.1912
  159DOPC    C319140   5.491   1.429   7.571 -0.1923 -0.1137  0.5819
  159DOPC    HX19141   5.537   1.369   7.652  0.2905  2.2921  2.1970
  159DOPC    HY19142   5.483   1.535   7.602  1.5271 -0.0046  0.7116
  159DOPC   O3119143   5.569   1.408   7.454  0.2350 -0.4789  0.1310
  159DOPC   C3119144   5.543   1.485   7.350 -0.8073  0.3803 -0.0463
  159DOPC   O3219145   5.467   1.580   7.345  0.1558  0.5491  0.7209
  159DOPC   C3219146   5.627   1.429   7.226  0.1290 -0.4570 -0.4523
  159DOPC   H2X19147   5.714   1.371   7.262 -0.7164 -0.8641  1.0151
  159DOPC   H2Y19148   5.557   1.360   7.175 -1.6860  0.2804  0.9067
  159DOPC   C2319149   5.173   1.044   7.262  0.2671  0.5558 -0.9874
  159DOPC   H3R19150   5.068   1.017   7.289  1.2613 -1.2082  1.4233
  159DOPC   H3S19151   5.204   0.971   7.185 -0.2437 -1.5535  0.7269
  159DOPC   C2419152   5.172   1.174   7.186 -1.2213  0.0125  0.3763
  159DOPC   H4R19153   5.115   1.255   7.236 -2.5165 -1.5607  1.5467
  159DOPC   H4S19154   5.132   1.143   7.087 -0.7893  0.9649 -0.1090
  159DOPC   C2519155   5.314   1.220   7.155 -0.7449  0.2428  0.7337
  159DOPC   H5R19156   5.376   1.131   7.130 -0.1981  1.2011 -1.5930
  159DOPC   H5S19157   5.369   1.264   7.241  1.4611  1.0378 -0.9725
  159DOPC   C2619158   5.319   1.320   7.031 -1.2503 -0.3951 -0.2821
  159DOPC   H6R19159   5.278   1.261   6.946 -0.6522  1.7477 -2.1500
  159DOPC   H6S19160   5.424   1.333   6.996 -0.2247 -0.3874  2.5575
  159DOPC   C2719161   5.262   1.460   7.047  0.9785  0.1956  0.0332
  159DOPC   H7R19162   5.324   1.500   7.130 -0.2409 -2.7232  2.5447
  159DOPC   H7S19163   5.160   1.443   7.086  1.1172  1.0002  0.7743
  159DOPC   C2819164   5.268   1.547   6.917  0.2299  0.4539  0.2937
  159DOPC   H8R19165   5.367   1.597   6.916  0.0206  1.0194  2.4460
  159DOPC   H8S19166   5.201   1.635   6.930  1.1418  1.2085 -0.0022
  159DOPC   C2919167   5.235   1.483   6.782  0.0218  0.6479  0.1149
  159DOPC   H9R19168   5.148   1.416   6.787  0.5270  0.0565  2.1728
  159DOPC  C21019169   5.297   1.502   6.666  0.8365  0.2607  0.5034
  159DOPC  H10R19170   5.248   1.461   6.575 -1.3313 -0.9893  2.1292
  159DOPC  C21119171   5.417   1.591   6.641  0.1698  0.0512 -0.3155
  159DOPC  H11R19172   5.486   1.531   6.578 -1.4526 -0.9979 -1.1800
  159DOPC  H11S19173   5.464   1.629   6.734  0.9898 -1.1760 -0.2147
  159DOPC  C21219174   5.378   1.710   6.550 -0.6795  0.0617 -0.0217
  159DOPC  H12R19175   5.344   1.790   6.620  0.4411 -1.3319  2.2470
  159DOPC  H12S19176   5.287   1.690   6.489 -1.0460 -0.5115  0.6813
  159DOPC  C21319177   5.500   1.754   6.459 -0.0570 -0.0524  0.0307
  159DOPC  H13R19178   5.529   1.669   6.395  0.9993 -0.1181  0.5827
  159DOPC  H13S19179   5.586   1.759   6.529  0.8261  0.1004 -1.0415
  159DOPC  C21419180   5.478   1.882   6.377  0.8378  0.1111 -0.2772
  159DOPC  H14R19181   5.571   1.900   6.319  1.5398 -2.7125 -0.1700
  159DOPC  H14S19182   5.450   1.969   6.440 -1.2142  0.0429 -0.9942
  159DOPC  C21519183   5.351   1.869   6.294 -0.0892 -0.3805 -0.0125
  159DOPC  H15R19184   5.264   1.904   6.353  0.7062  1.6329  0.0397
  159DOPC  H15S19185   5.341   1.761   6.270 -0.2828 -0.3069 -0.2657
  159DOPC  C21619186   5.367   1.950   6.159  0.5595 -0.1193  0.3255
  159DOPC  H16R19187   5.407   2.051   6.183  0.2829  0.1064 -0.1534
  159DOPC  H16S19188   5.269   1.974   6.112  1.4527  3.1874 -0.1565
  159DOPC  C21719189   5.447   1.892   6.045  0.1893  0.2879  0.1791
  159DOPC  H17R19190   5.525   1.826   6.088 -1.1068 -0.8544  0.8741
  159DOPC  H17S19191   5.497   1.963   5.976  0.8129 -1.1548 -0.8971
  159DOPC  C21819192   5.360   1.814   5.944 -0.5955 -0.0576 -0.1529
  159DOPC  H18R19193   5.301   1.733   5.992  1.0918 -1.7785 -0.8432
  159DOPC  H18S19194   5.435   1.780   5.869  0.4908 -0.7064  1.1809
  159DOPC  H18T19195   5.288   1.883   5.896 -0.6995  0.5773  0.8893
  159DOPC   C3319196   5.649   1.543   7.126  0.1429  0.2779 -0.0348
  159DOPC   H3X19197   5.687   1.637   7.172  1.9688  0.5726 -1.9795
  159DOPC   H3Y19198   5.550   1.571   7.083 -0.2931  0.4474  1.0556
  159DOPC   C3419199   5.746   1.510   7.015 -0.2701  0.6531  0.9361
  159DOPC   H4X19200   5.705   1.426   6.955 -0.3949  0.4441  1.3053
  159DOPC   H4Y19201   5.842   1.474   7.057 -1.0964 -0.9470  1.5253
  159DOPC   C3519202   5.778   1.606   6.904  0.6503  0.3297 -0.1058
  159DOPC   H5X19203   5.832   1.699   6.931  1.2417  0.2473 -0.9522
  159DOPC   H5Y19204   5.687   1.633   6.846  1.1146 -0.0418 -1.0376
  159DOPC   C3619205   5.866   1.546   6.791  0.9132 -0.2508  0.0369
  159DOPC   H6X19206   5.962   1.516   6.839  1.0666 -1.6443 -1.0783
  159DOPC   H6Y19207   5.813   1.453   6.760 -3.0803  1.4948  1.0028
  159DOPC   C3719208   5.888   1.647   6.682 -0.1169 -0.4855  0.2385
  159DOPC   H7X19209   5.789   1.684   6.650  0.0600  0.2968  0.5726
  159DOPC   H7Y19210   5.944   1.731   6.728  0.0709 -0.6016  0.2227
  159DOPC   C3819211   5.959   1.583   6.566 -0.4816  1.1157  0.0350
  159DOPC   H8X19212   6.053   1.532   6.599 -0.7347  1.1732  0.8822
  159DOPC   H8Y19213   5.993   1.664   6.498 -0.3933 -0.0758 -1.3991
  159DOPC   C3919214   5.876   1.479   6.486  0.0489 -0.3935  0.1110
  159DOPC   H9X19215   5.839   1.395   6.548  1.1025 -0.8173  0.1734
  159DOPC  C31019216   5.851   1.485   6.355  0.0310 -0.2257  1.2775
  159DOPC  H10X19217   5.783   1.409   6.316  1.7795  0.2030 -3.1606
  159DOPC  C31119218   5.904   1.587   6.257  0.0018  0.1407 -0.5582
  159DOPC  H11X19219   6.014   1.572   6.245  0.2982  0.8499  0.9948
  159DOPC  H11Y19220   5.881   1.685   6.305 -0.7737 -0.6251  0.7140
  159DOPC  C31219221   5.831   1.581   6.119 -0.4251  0.0335  0.5818
  159DOPC  H12X19222   5.720   1.582   6.128 -0.3408 -0.7535  2.1997
  159DOPC  H12Y19223   5.849   1.480   6.077 -1.1452 -0.3755  1.2166
  159DOPC  C31319224   5.878   1.690   6.027 -0.1879  0.0621 -0.3874
  159DOPC  H13X19225   5.832   1.786   6.058 -3.7056 -1.2078 -1.2798
  159DOPC  H13Y19226   5.984   1.715   6.048  0.2651 -0.8911 -1.4639
  159DOPC  C31419227   5.844   1.677   5.873 -0.5522  0.5000  0.0398
  159DOPC  H14X19228   5.891   1.759   5.815  0.0537  0.5183  0.5426
  159DOPC  H14Y19229   5.884   1.578   5.841  0.1233  0.0657  2.0395
  159DOPC  C31519230   5.692   1.688   5.845  0.1997 -0.6096  0.2454
  159DOPC  H15X19231   5.654   1.792   5.851  0.6693 -0.5291  2.3691
  159DOPC  H15Y19232   5.635   1.641   5.928 -0.8750 -0.9124 -0.6233
  159DOPC  C31619233   5.644   1.613   5.718 -0.4857  0.3904 -0.2114
  159DOPC  H16X19234   5.663   1.504   5.733  0.0576  0.6916  1.4885
  159DOPC  H16Y19235   5.539   1.629   5.685 -0.5600  0.2411 -0.0479
  159DOPC  C31719236   5.712   1.664   5.588  0.5029  0.8080 -0.3251
  159DOPC  H17X19237   5.821   1.666   5.607  0.5212  0.3000 -0.3755
  159DOPC  H17Y19238   5.690   1.592   5.506  1.7344 -0.1752  0.1771
  159DOPC  C31819239   5.667   1.799   5.553  0.0296  0.9071 -0.5449
  159DOPC  H18X19240   5.564   1.798   5.512  0.2891  2.0753 -1.2434
  159DOPC  H18Y19241   5.650   1.860   5.644  0.9930  2.7666 -1.5620
  159DOPC  H18Z19242   5.740   1.853   5.489  0.3719  0.9447 -0.1265
  160DOPC     N19243   3.312   7.027   7.353  0.4427  0.0782 -0.0601
  160DOPC   C1219244   3.296   6.918   7.244 -0.1323  0.4917  0.0818
  160DOPC  H12A19245   3.238   6.846   7.300 -0.4149  0.8973  0.3193
  160DOPC  H12B19246   3.393   6.872   7.233  0.2245  1.0293  0.9544
  160DOPC   C1319247   3.378   7.147   7.309 -0.2712  0.8373 -0.0957
  160DOPC  H13A19248   3.467   7.121   7.255 -1.4827  0.1932 -1.8660
  160DOPC  H13B19249   3.317   7.210   7.246  0.0747  0.4683 -0.8073
  160DOPC  H13C19250   3.406   7.214   7.389 -0.8500  3.3248 -1.8636
  160DOPC   C1419251   3.371   6.977   7.475  0.5679 -0.4418 -0.3255
  160DOPC  H14A19252   3.301   6.910   7.524  0.0158 -0.3637 -0.9936
  160DOPC  H14B19253   3.466   6.928   7.461  0.5571 -0.2272 -1.2320
  160DOPC  H14C19254   3.397   7.056   7.544  1.0386 -0.5824 -0.3369
  160DOPC   C1519255   3.179   7.081   7.393  0.6323  0.1150 -0.4982
  160DOPC  H15A19256   3.181   7.178   7.440  0.8617 -1.0253  2.0387
  160DOPC  H15B19257   3.111   7.021   7.451 -0.2102 -1.0446 -2.5731
  160DOPC  H15C19258   3.116   7.083   7.305 -0.3711 -1.3111  0.1530
  160DOPC   C1119259   3.239   6.953   7.108 -0.1316 -0.0011 -0.3012
  160DOPC  H11A19260   3.287   7.048   7.076  1.3151 -0.0174  1.6203
  160DOPC  H11B19261   3.266   6.875   7.034 -1.0900 -0.4596 -0.1709
  160DOPC     P19262   3.002   7.086   7.075  0.2556  0.1262  0.1570
  160DOPC   O1319263   3.017   7.206   7.157 -0.7491  0.4666 -0.0259
  160DOPC   O1419264   2.869   7.029   7.071 -0.1872  0.1030 -0.4507
  160DOPC   O1219265   3.101   6.970   7.123 -0.1542  0.3488  0.0032
  160DOPC   O1119266   3.055   7.119   6.929 -0.3168 -0.6154 -0.4580
  160DOPC    C119267   3.029   7.028   6.822 -0.3657 -0.0535  0.1657
  160DOPC    HA19268   2.941   6.963   6.840 -0.1992 -0.3082  0.0717
  160DOPC    HB19269   3.114   6.957   6.814  0.2759  0.8030 -0.9095
  160DOPC    C219270   3.004   7.111   6.688 -0.0971  0.5170  0.0831
  160DOPC    HS19271   2.986   7.033   6.611 -0.1016  1.0612 -0.4688
  160DOPC   O2119272   3.121   7.192   6.655  0.5288 -0.0839  0.3331
  160DOPC   C2119273   3.223   7.128   6.601 -0.0838 -0.9401 -0.4246
  160DOPC   O2219274   3.215   7.007   6.576 -0.2663 -0.0751  0.6931
  160DOPC   C2219275   3.328   7.232   6.554  0.5245 -0.1471 -0.0007
  160DOPC   H2R19276   3.419   7.180   6.518  0.6599 -0.7143  1.1027
  160DOPC   H2S19277   3.341   7.285   6.651 -2.7446 -0.4491  0.7434
  160DOPC    C319278   2.877   7.198   6.689  0.3173 -0.4102 -0.4454
  160DOPC    HX19279   2.905   7.273   6.766 -1.3849 -0.8054  0.6123
  160DOPC    HY19280   2.791   7.141   6.730 -0.6287  0.0829 -1.6878
  160DOPC   O3119281   2.840   7.258   6.564 -0.7506  0.5097  0.2890
  160DOPC   C3119282   2.884   7.380   6.544  0.6629 -0.0383  0.0611
  160DOPC   O3219283   2.938   7.447   6.629 -0.6965  0.1586  0.0413
  160DOPC   C3219284   2.868   7.423   6.399  0.2131  0.1748 -0.7728
  160DOPC   H2X19285   2.763   7.458   6.394  0.6294  1.4235 -0.9274
  160DOPC   H2Y19286   2.936   7.508   6.377 -0.4964  0.7421 -0.8034
  160DOPC   C2319287   3.269   7.329   6.451  0.1178  0.7535  0.1306
  160DOPC   H3R19288   3.312   7.428   6.476 -0.1438  1.0424 -0.5495
  160DOPC   H3S19289   3.159   7.338   6.467 -0.0684 -0.0012 -0.6550
  160DOPC   C2419290   3.305   7.285   6.305 -0.2438  0.3293  0.2246
  160DOPC   H4R19291   3.402   7.322   6.267 -0.7140 -1.1189 -2.6837
  160DOPC   H4S19292   3.218   7.331   6.251 -0.7517 -3.5944 -2.7645
  160DOPC   C2519293   3.294   7.134   6.272 -0.0630  0.0959 -0.7110
  160DOPC   H5R19294   3.193   7.094   6.298 -0.9501  0.7801 -2.9226
  160DOPC   H5S19295   3.373   7.076   6.325  0.9309  0.0757 -2.1811
  160DOPC   C2619296   3.303   7.103   6.120  0.0285  0.2798 -0.3435
  160DOPC   H6R19297   3.279   6.997   6.099  0.8300  0.2605 -1.2024
  160DOPC   H6S19298   3.412   7.116   6.106  0.4440 -1.6175  0.7439
  160DOPC   C2719299   3.228   7.198   6.030  0.1253  0.0542  0.6462
  160DOPC   H7R19300   3.268   7.301   6.019  0.3635  0.0252  1.2363
  160DOPC   H7S19301   3.132   7.204   6.085 -2.2870 -1.1210 -3.0196
  160DOPC   C2819302   3.184   7.144   5.889  0.5923 -0.2474  0.9202
  160DOPC   H8R19303   3.105   7.207   5.842  0.6742 -0.9106 -0.1311
  160DOPC   H8S19304   3.123   7.052   5.904 -1.5616  0.9391  0.0300
  160DOPC   C2919305   3.301   7.118   5.794  0.0703 -0.7390  0.5665
  160DOPC   H9R19306   3.381   7.194   5.789 -2.0594  1.5916 -2.4929
  160DOPC  C21019307   3.297   7.027   5.694 -0.0283  0.5964 -0.0070
  160DOPC  H10R19308   3.383   7.008   5.628 -2.1203 -0.3763 -2.6403
  160DOPC  C21119309   3.192   6.928   5.654 -0.0430  0.1499  0.2541
  160DOPC  H11R19310   3.098   6.983   5.632  0.6471  0.6266 -1.7223
  160DOPC  H11S19311   3.174   6.860   5.740 -0.3245 -0.4950 -0.3008
  160DOPC  C21219312   3.251   6.844   5.541 -0.0098 -0.4529 -0.0755
  160DOPC  H12R19313   3.345   6.794   5.573  0.1932  0.9881  1.8238
  160DOPC  H12S19314   3.290   6.904   5.455  1.3546 -0.6934  0.3526
  160DOPC  C21319315   3.140   6.753   5.486  0.5877  0.1111  0.0944
  160DOPC  H13R19316   3.043   6.802   5.464 -1.3069 -3.2475  0.3555
  160DOPC  H13S19317   3.123   6.670   5.557  1.9084 -1.6314 -1.4963
  160DOPC  C21419318   3.167   6.684   5.350 -0.6098 -0.4835 -0.5163
  160DOPC  H14R19319   3.199   6.764   5.281 -0.0171 -0.7969 -0.6149
  160DOPC  H14S19320   3.068   6.649   5.313 -1.2277  1.2753 -0.6255
  160DOPC  C21519321   3.280   6.577   5.363 -0.3553 -0.8762 -0.1369
  160DOPC  H15R19322   3.382   6.614   5.389  0.1691 -1.7301 -0.9197
  160DOPC  H15S19323   3.294   6.539   5.259  2.4302  0.0864 -0.2178
  160DOPC  C21619324   3.237   6.466   5.461 -0.4794 -0.1596 -0.4556
  160DOPC  H16R19325   3.216   6.505   5.563 -1.4048  2.2537 -1.4964
  160DOPC  H16S19326   3.319   6.391   5.471  0.6271  1.2718  2.4808
  160DOPC  C21719327   3.108   6.396   5.435  0.6910 -0.4478  0.5579
  160DOPC  H17R19328   3.102   6.324   5.350  1.1640 -1.3192  1.2493
  160DOPC  H17S19329   3.033   6.475   5.419 -0.2744 -1.1992  1.2651
  160DOPC  C21819330   3.056   6.312   5.551 -0.2452 -0.1738  0.4566
  160DOPC  H18R19331   2.959   6.264   5.527 -0.9757  1.6537 -0.3972
  160DOPC  H18S19332   3.040   6.378   5.639 -1.7891  0.5116 -0.3006
  160DOPC  H18T19333   3.131   6.236   5.582  1.6345  1.1205 -0.7575
  160DOPC   C3319334   2.877   7.305   6.302 -0.8778  0.3363  0.3816
  160DOPC   H3X19335   2.792   7.239   6.330 -2.9822  3.4330  1.9925
  160DOPC   H3Y19336   2.970   7.245   6.307 -1.4776 -0.8197 -1.3691
  160DOPC   C3419337   2.851   7.349   6.155  0.0184  0.4918 -0.7248
  160DOPC   H4X19338   2.933   7.392   6.094 -0.4351 -0.0809 -1.7707
  160DOPC   H4Y19339   2.766   7.420   6.159 -0.1389  0.2518  0.5233
  160DOPC   C3519340   2.805   7.229   6.073 -0.4451  0.5454  0.5637
  160DOPC   H5X19341   2.709   7.201   6.121 -0.0810  0.0833  1.0383
  160DOPC   H5Y19342   2.888   7.156   6.073  1.3278  2.4465 -0.1293
  160DOPC   C3619343   2.775   7.261   5.922  0.1463  0.0100 -0.1862
  160DOPC   H6X19344   2.683   7.324   5.924 -0.6529 -0.9828 -2.4474
  160DOPC   H6Y19345   2.856   7.322   5.876  0.8199 -1.7364 -1.4423
  160DOPC   C3719346   2.750   7.134   5.847 -0.3810  0.4268  0.3169
  160DOPC   H7X19347   2.839   7.068   5.863  1.7247  2.6626 -1.4447
  160DOPC   H7Y19348   2.661   7.073   5.873 -0.8363  0.8190 -0.3002
  160DOPC   C3819349   2.754   7.165   5.702  0.7010 -0.3075  0.4097
  160DOPC   H8X19350   2.827   7.245   5.677 -1.1325  1.4463  0.4172
  160DOPC   H8Y19351   2.664   7.218   5.665  0.0882  0.6935  3.1064
  160DOPC   C3919352   2.783   7.039   5.621  1.2219  0.0542  0.3298
  160DOPC   H9X19353   2.856   6.973   5.670  0.4313  0.7834  2.6038
  160DOPC  C31019354   2.728   7.017   5.499 -0.3318  0.6921 -0.6315
  160DOPC  H10X19355   2.739   6.917   5.455  1.2123 -1.0182  3.2359
  160DOPC  C31119356   2.641   7.103   5.414  0.5268 -0.7701  0.6844
  160DOPC  H11X19357   2.658   7.079   5.307 -0.4397  0.4156  0.2329
  160DOPC  H11Y19358   2.651   7.214   5.421 -3.2679 -0.3479  1.8518
  160DOPC  C31219359   2.484   7.079   5.423 -0.1318 -0.6210  0.1536
  160DOPC  H12X19360   2.449   7.156   5.351 -0.6867 -2.3775 -1.5412
  160DOPC  H12Y19361   2.449   7.107   5.525 -0.6242 -2.2513  0.4622
  160DOPC  C31319362   2.448   6.941   5.378  0.6732 -0.0836 -0.4379
  160DOPC  H13X19363   2.495   6.913   5.281  1.3690 -1.9277  0.3699
  160DOPC  H13Y19364   2.492   6.870   5.451  1.2700  2.7825  2.1622
  160DOPC  C31419365   2.297   6.914   5.373 -0.1802  0.7914 -0.2699
  160DOPC  H14X19366   2.264   6.908   5.479  0.1430 -2.1707 -0.2426
  160DOPC  H14Y19367   2.242   6.993   5.319 -1.9020 -0.6872 -0.7715
  160DOPC  C31519368   2.270   6.773   5.311 -0.2213 -0.1446  0.4972
  160DOPC  H15X19369   2.304   6.689   5.377  0.1430  0.9167  1.6968
  160DOPC  H15Y19370   2.335   6.762   5.221 -1.1723 -2.0231 -0.0188
  160DOPC  C31619371   2.129   6.741   5.263 -0.4797 -0.6296 -0.0025
  160DOPC  H16X19372   2.119   6.634   5.235 -0.2642 -0.1338 -2.1729
  160DOPC  H16Y19373   2.070   6.762   5.354  0.5322 -1.4456  0.8605
  160DOPC  C31719374   2.076   6.836   5.159  0.5267 -0.1396  0.3529
  160DOPC  H17X19375   2.114   6.938   5.183 -2.2543  1.1402 -0.2360
  160DOPC  H17Y19376   2.125   6.806   5.064 -2.9763 -0.6082 -1.4380
  160DOPC  C31819377   1.928   6.842   5.150  0.5176 -0.3238 -0.1481
  160DOPC  H18X19378   1.883   6.741   5.144  1.0356 -0.5381 -0.4444
  160DOPC  H18Y19379   1.889   6.883   5.246  1.8096 -0.0111  0.2714
  160DOPC  H18Z19380   1.900   6.920   5.076 -0.8219  0.4607  1.1268
  161DOPC     N19381   4.371   7.363   7.841 -0.2139 -0.4737  0.7485
  161DOPC   C1219382   4.261   7.363   7.733 -0.6090 -0.0510  0.0156
  161DOPC  H12A19383   4.233   7.466   7.719 -2.3693 -0.8784 -3.7139
  161DOPC  H12B19384   4.175   7.304   7.761 -1.2555  0.2237 -1.3258
  161DOPC   C1319385   4.292   7.388   7.961  0.2389  0.4675  0.2561
  161DOPC  H13A19386   4.232   7.302   7.986 -0.9879  1.4296  0.7039
  161DOPC  H13B19387   4.363   7.387   8.043  1.4289  0.3957 -0.7471
  161DOPC  H13C19388   4.236   7.480   7.962 -0.9960 -0.2713  0.5617
  161DOPC   C1419389   4.482   7.464   7.814  0.2287  0.2657 -0.5485
  161DOPC  H14A19390   4.523   7.465   7.715  0.1174  1.2831 -0.5954
  161DOPC  H14B19391   4.454   7.564   7.845 -1.4535 -0.6359  1.0560
  161DOPC  H14C19392   4.559   7.454   7.890 -1.4364  0.3921  1.2526
  161DOPC   C1519393   4.435   7.234   7.855 -0.5257 -0.3062 -0.1329
  161DOPC  H15A19394   4.494   7.205   7.769 -0.4573 -0.6455  0.0279
  161DOPC  H15B19395   4.368   7.152   7.875 -0.8611  0.3826  1.7405
  161DOPC  H15C19396   4.495   7.234   7.945 -2.3595  1.8656  1.1995
  161DOPC   C1119397   4.309   7.315   7.595  0.1175  0.2815  0.3398
  161DOPC  H11A19398   4.321   7.205   7.599  0.6443  0.3450  0.5765
  161DOPC  H11B19399   4.217   7.328   7.534  1.2451  1.1962 -1.2323
  161DOPC     P19400   4.414   7.505   7.456 -0.2847  0.3625 -0.1380
  161DOPC   O1319401   4.538   7.538   7.377  0.1618  0.2585  0.0603
  161DOPC   O1419402   4.374   7.599   7.557  0.3328 -0.3308  0.1282
  161DOPC   O1219403   4.431   7.363   7.537  0.1404 -0.5628 -0.1725
  161DOPC   O1119404   4.299   7.476   7.361 -0.4480  0.5186  0.1231
  161DOPC    C119405   4.306   7.367   7.261  0.7090 -1.0015 -0.1350
  161DOPC    HA19406   4.203   7.332   7.237  0.0489  1.4452 -1.1113
  161DOPC    HB19407   4.351   7.275   7.306  0.4246 -0.3435  1.5742
  161DOPC    C219408   4.383   7.398   7.124  0.0992  0.3513 -0.0418
  161DOPC    HS19409   4.486   7.410   7.164  1.3542 -0.4057 -2.7737
  161DOPC   O2119410   4.330   7.520   7.069 -0.4720  0.3766  0.7270
  161DOPC   C2119411   4.419   7.603   7.017  0.9415  1.1140 -0.1461
  161DOPC   O2219412   4.538   7.603   7.038  0.1175  0.2727 -0.3849
  161DOPC   C2219413   4.348   7.697   6.933  0.3966  0.1350  0.0173
  161DOPC   H2R19414   4.276   7.739   7.007  1.3285  1.5164  0.1893
  161DOPC   H2S19415   4.289   7.644   6.856  0.6045 -1.3433  0.8463
  161DOPC    C319416   4.370   7.287   7.013  0.7916  0.0811 -1.1384
  161DOPC    HX19417   4.264   7.276   6.981  0.2115  2.2250 -0.1111
  161DOPC    HY19418   4.407   7.194   7.061  1.4816  1.3997  0.9830
  161DOPC   O3119419   4.451   7.316   6.897 -0.0840  0.1208 -0.3926
  161DOPC   C3119420   4.488   7.215   6.826  0.1240  0.3077 -0.5541
  161DOPC   O3219421   4.439   7.102   6.830 -0.2602 -0.1470 -0.0516
  161DOPC   C3219422   4.606   7.257   6.739  0.5852  0.5970  0.5315
  161DOPC   H2X19423   4.659   7.163   6.710 -0.2185  0.2906  0.0345
  161DOPC   H2Y19424   4.563   7.291   6.643 -0.5530  0.7348  1.0774
  161DOPC   C2319425   4.437   7.799   6.860  0.5162  0.0835 -0.8598
  161DOPC   H3R19426   4.502   7.756   6.781 -1.6877 -2.5324 -1.4193
  161DOPC   H3S19427   4.511   7.841   6.930 -0.6182  1.5371 -0.4936
  161DOPC   C2419428   4.368   7.915   6.788  0.4103  0.2375 -0.1930
  161DOPC   H4R19429   4.444   7.995   6.769  1.3138 -0.7518 -0.8228
  161DOPC   H4S19430   4.299   7.954   6.866  0.2043  1.4255 -0.9468
  161DOPC   C2519431   4.286   7.877   6.671  0.3545  0.0581  0.1185
  161DOPC   H5R19432   4.242   7.776   6.682  0.4658 -0.3711 -2.6909
  161DOPC   H5S19433   4.347   7.855   6.581 -0.5657 -0.0572 -0.4837
  161DOPC   C2619434   4.175   7.980   6.641  1.3772  0.6652  0.3000
  161DOPC   H6R19435   4.225   8.063   6.588  2.2843 -0.4157 -0.5740
  161DOPC   H6S19436   4.119   8.004   6.734  0.3647  0.6723 -0.2943
  161DOPC   C2719437   4.070   7.921   6.540 -0.3723  0.3252  0.5218
  161DOPC   H7R19438   3.976   7.980   6.551  0.8979  2.8392 -1.0625
  161DOPC   H7S19439   4.041   7.830   6.597 -2.2385  0.9850  0.6965
  161DOPC   C2819440   4.109   7.908   6.393  0.1742 -0.4243  0.1303
  161DOPC   H8R19441   4.032   7.853   6.334  0.7690 -2.5700  1.2415
  161DOPC   H8S19442   4.204   7.851   6.395  1.1539  1.1030  3.5954
  161DOPC   C2919443   4.120   8.044   6.331  0.2519 -0.1241 -0.7019
  161DOPC   H9R19444   4.168   8.120   6.395  0.2542  0.3653 -1.2749
  161DOPC  C21019445   4.111   8.074   6.199  0.3611 -0.4283  0.2517
  161DOPC  H10R19446   4.117   8.182   6.180 -0.0379 -0.4275  0.1172
  161DOPC  C21119447   4.086   7.979   6.082  0.1594 -0.7214  0.0760
  161DOPC  H11R19448   4.128   7.881   6.113  2.1212 -0.6132 -2.0337
  161DOPC  H11S19449   4.139   8.004   5.988  1.0484 -0.7313  0.5605
  161DOPC  C21219450   3.929   7.975   6.044  0.1934 -0.0785 -0.4982
  161DOPC  H12R19451   3.899   8.051   5.969 -0.2272 -0.0748 -0.3272
  161DOPC  H12S19452   3.868   7.986   6.136  1.0907  2.7432 -0.1342
  161DOPC  C21319453   3.903   7.833   5.988  0.7313 -0.2939  0.1496
  161DOPC  H13R19454   3.800   7.834   5.945  1.4583 -0.3134 -1.6792
  161DOPC  H13S19455   3.905   7.756   6.067 -3.1007 -0.2489  0.4955
  161DOPC  C21419456   3.989   7.789   5.868 -0.4770 -0.0970  0.5449
  161DOPC  H14R19457   4.087   7.766   5.914 -0.2382 -0.7567 -0.2655
  161DOPC  H14S19458   3.999   7.866   5.789  0.5684 -0.0044  0.7598
  161DOPC  C21519459   3.936   7.663   5.803  0.2315  0.6091 -0.2779
  161DOPC  H15R19460   3.837   7.683   5.756 -0.5778 -0.0554  1.0916
  161DOPC  H15S19461   3.918   7.599   5.892  2.4836  0.0000 -0.2172
  161DOPC  C21619462   4.031   7.591   5.708  0.4872  0.2454 -0.0097
  161DOPC  H16R19463   4.056   7.661   5.625 -1.5079 -1.5117 -2.2361
  161DOPC  H16S19464   3.971   7.508   5.665  0.2442 -1.4618  3.3165
  161DOPC  C21719465   4.155   7.526   5.767  0.2617 -0.2664  0.6078
  161DOPC  H17R19466   4.224   7.612   5.779  0.8137 -0.5843 -0.1643
  161DOPC  H17S19467   4.180   7.459   5.682  0.4232  2.4868 -1.6605
  161DOPC  C21819468   4.143   7.432   5.889  0.2797 -0.3039  0.3418
  161DOPC  H18R19469   4.135   7.495   5.980 -0.5825  1.7466 -1.0825
  161DOPC  H18S19470   4.237   7.375   5.902  0.9452  0.7781  0.4153
  161DOPC  H18T19471   4.052   7.368   5.894 -0.1891  0.2338 -0.8210
  161DOPC   C3319472   4.705   7.350   6.801 -0.3926 -0.1906 -0.7742
  161DOPC   H3X19473   4.653   7.436   6.848 -0.1376  0.7335 -2.1249
  161DOPC   H3Y19474   4.774   7.400   6.729  1.1742 -1.3068 -0.1181
  161DOPC   C3419475   4.794   7.279   6.915  0.5176 -0.0561  0.2642
  161DOPC   H4X19476   4.724   7.196   6.938 -0.9835  0.6778 -1.3732
  161DOPC   H4Y19477   4.793   7.356   6.995 -0.0481 -1.8984  2.1144
  161DOPC   C3519478   4.938   7.247   6.875  0.1403  0.1447  0.0728
  161DOPC   H5X19479   4.942   7.180   6.786  1.6017 -1.1424  1.0468
  161DOPC   H5Y19480   4.972   7.185   6.961 -0.3058 -1.4722 -0.8745
  161DOPC   C3619481   5.032   7.372   6.853 -0.5668 -0.1627  0.3957
  161DOPC   H6X19482   4.971   7.449   6.802  2.0083  2.5345  1.1254
  161DOPC   H6Y19483   5.056   7.400   6.958  0.6196  1.0338 -0.1722
  161DOPC   C3719484   5.167   7.351   6.783  0.1191 -0.3264 -0.1085
  161DOPC   H7X19485   5.227   7.435   6.824 -3.2527  0.7130  3.2223
  161DOPC   H7Y19486   5.213   7.257   6.820 -0.5320 -0.4589  0.3695
  161DOPC   C3819487   5.148   7.351   6.634  0.3714 -0.3946  0.8586
  161DOPC   H8X19488   5.072   7.272   6.614  1.4721 -1.4267  0.6803
  161DOPC   H8Y19489   5.242   7.315   6.587  0.3326 -0.4129  0.7953
  161DOPC   C3919490   5.100   7.483   6.578  0.1952  0.7881  1.2951
  161DOPC   H9X19491   5.180   7.559   6.583  0.9991 -0.0860  2.1290
  161DOPC  C31019492   4.992   7.507   6.503  0.1819 -0.2913  0.2038
  161DOPC  H10X19493   4.966   7.609   6.471 -1.7729 -0.2793  1.6571
  161DOPC  C31119494   4.894   7.408   6.451 -0.2088  0.0214 -0.2905
  161DOPC  H11X19495   4.794   7.440   6.415  0.1975 -1.2544 -2.7368
  161DOPC  H11Y19496   4.862   7.338   6.532  0.9954  0.4974  0.6321
  161DOPC  C31219497   4.956   7.333   6.333 -0.0170 -0.3995  0.5107
  161DOPC  H12X19498   4.890   7.247   6.309 -1.4589  0.5556  0.9765
  161DOPC  H12Y19499   5.060   7.295   6.340  0.2441  0.4547  1.5824
  161DOPC  C31319500   4.944   7.422   6.201 -0.8820 -0.2969  0.3356
  161DOPC  H13X19501   4.843   7.465   6.184 -1.2373 -2.0535 -2.4532
  161DOPC  H13Y19502   5.014   7.509   6.209  2.9351 -3.1644  1.5645
  161DOPC  C31419503   5.003   7.354   6.073  0.4455  0.0519  0.1427
  161DOPC  H14X19504   5.112   7.333   6.073  0.4558  0.0908 -0.2468
  161DOPC  H14Y19505   4.949   7.257   6.063  0.5797  0.1239 -1.7117
  161DOPC  C31519506   4.969   7.441   5.947  0.0662  0.2321  0.2307
  161DOPC  H15X19507   4.989   7.548   5.971  0.5539 -0.0040  0.9084
  161DOPC  H15Y19508   4.858   7.442   5.934  0.1066  2.2095 -0.2860
  161DOPC  C31619509   5.045   7.396   5.825 -0.1166  0.2147 -0.1667
  161DOPC  H16X19510   5.144   7.364   5.863 -0.6320 -0.1763  0.9045
  161DOPC  H16Y19511   4.992   7.310   5.778 -0.1429  0.5176 -0.6913
  161DOPC  C31719512   5.059   7.505   5.726 -0.2963 -0.2930  0.3970
  161DOPC  H17X19513   4.954   7.529   5.697 -0.1947 -0.5370 -0.1888
  161DOPC  H17Y19514   5.096   7.596   5.777 -0.5338 -0.2621  0.5178
  161DOPC  C31819515   5.148   7.474   5.601 -0.4338  0.5412 -0.2097
  161DOPC  H18X19516   5.152   7.558   5.528  0.8149  0.6498 -0.0468
  161DOPC  H18Y19517   5.253   7.449   5.626 -0.4361 -0.3065 -1.0333
  161DOPC  H18Z19518   5.103   7.390   5.544 -0.5793  0.2882  0.2700
  162DOPC     N19519   0.719   6.723   7.075 -0.2772  0.7420 -0.5026
  162DOPC   C1219520   0.802   6.801   6.973  0.7196 -0.2014 -0.5155
  162DOPC  H12A19521   0.874   6.739   6.923 -0.1294  0.3074 -2.4652
  162DOPC  H12B19522   0.866   6.869   7.027 -0.0534 -0.3638  0.6565
  162DOPC   C1319523   0.824   6.678   7.183 -0.2249  0.4573 -0.0895
  162DOPC  H13A19524   0.897   6.615   7.135 -0.5388  0.1730 -0.1971
  162DOPC  H13B19525   0.872   6.760   7.234 -0.1806  0.3981 -0.0354
  162DOPC  H13C19526   0.773   6.608   7.248  2.5514 -0.4943  1.2383
  162DOPC   C1419527   0.656   6.608   7.004 -0.2661 -0.2517 -0.4484
  162DOPC  H14A19528   0.590   6.554   7.071  0.6135  1.4757  1.9567
  162DOPC  H14B19529   0.598   6.629   6.915 -2.0533  0.6722  0.8588
  162DOPC  H14C19530   0.726   6.529   6.982  0.9783  0.2826  1.3275
  162DOPC   C1519531   0.605   6.800   7.138 -0.5697 -0.1134  0.8032
  162DOPC  H15A19532   0.552   6.855   7.062  1.0453  0.8600  0.3204
  162DOPC  H15B19533   0.639   6.878   7.205  0.3537 -0.4114  0.7038
  162DOPC  H15C19534   0.531   6.734   7.180 -0.7833 -1.9568 -2.2065
  162DOPC   C1119535   0.738   6.888   6.862 -0.1952 -0.0302 -1.0696
  162DOPC  H11A19536   0.796   6.894   6.768  0.9964  2.2350 -0.2639
  162DOPC  H11B19537   0.643   6.835   6.841 -0.2360  0.3380 -1.8652
  162DOPC     P19538   0.794   7.142   6.890  0.1033  0.4741  0.2959
  162DOPC   O1319539   0.918   7.112   6.965  0.1825 -0.3269 -0.3184
  162DOPC   O1419540   0.728   7.271   6.917 -0.3437 -0.3644 -0.6887
  162DOPC   O1219541   0.704   7.017   6.906  0.2099 -0.6024 -0.6189
  162DOPC   O1119542   0.824   7.141   6.733 -0.3140  0.5060 -0.5876
  162DOPC    C119543   0.709   7.152   6.649 -0.3768  0.4365 -1.4522
  162DOPC    HA19544   0.621   7.194   6.703  0.5914 -0.4289  0.9800
  162DOPC    HB19545   0.669   7.053   6.617  1.2771 -0.6625 -0.2846
  162DOPC    C219546   0.732   7.256   6.534 -0.0536  0.0003 -0.1951
  162DOPC    HS19547   0.633   7.276   6.488 -0.6624 -1.8814  0.1849
  162DOPC   O2119548   0.825   7.205   6.438  0.0139  0.1160 -0.3759
  162DOPC   C2119549   0.798   7.239   6.309  0.4841  0.2191  0.1419
  162DOPC   O2219550   0.699   7.289   6.264  0.0633 -0.0305  0.1822
  162DOPC   C2219551   0.912   7.178   6.221 -0.2053 -0.0881  0.1864
  162DOPC   H2R19552   0.881   7.076   6.190 -0.3155  0.1925 -0.6268
  162DOPC   H2S19553   1.003   7.171   6.286 -1.4653 -1.3656  1.9036
  162DOPC    C319554   0.778   7.383   6.594 -0.3582 -0.7713 -0.5192
  162DOPC    HX19555   0.875   7.351   6.637 -0.4774  1.6067  1.7972
  162DOPC    HY19556   0.719   7.412   6.684 -0.6971  0.2496 -1.0593
  162DOPC   O3119557   0.809   7.493   6.503  0.9513 -0.4698  0.2225
  162DOPC   C3119558   0.705   7.576   6.481 -0.5821  0.0798  0.8624
  162DOPC   O3219559   0.608   7.591   6.552  0.3448 -0.3703  0.1126
  162DOPC   C3219560   0.733   7.645   6.344  0.4172 -0.0816  0.5496
  162DOPC   H2X19561   0.791   7.573   6.282  0.0312  0.8215 -0.9120
  162DOPC   H2Y19562   0.639   7.663   6.288  0.2366  0.7971  1.1187
  162DOPC   C2319563   0.954   7.273   6.099  0.2218  0.1059 -0.8933
  162DOPC   H3R19564   0.973   7.375   6.138 -0.8491  0.1223 -0.3667
  162DOPC   H3S19565   0.861   7.291   6.041  0.1146 -0.1716 -0.8114
  162DOPC   C2419566   1.064   7.204   6.021 -0.7428  0.6851 -0.4725
  162DOPC   H4R19567   1.020   7.117   5.967 -0.3122 -0.5849  1.1425
  162DOPC   H4S19568   1.133   7.160   6.095 -1.0677  0.2486 -0.4245
  162DOPC   C2519569   1.134   7.315   5.940 -0.7808 -0.0370  0.7194
  162DOPC   H5R19570   1.117   7.418   5.977  1.7101  0.1811  1.4323
  162DOPC   H5S19571   1.090   7.315   5.838  0.6779 -0.0964  0.0569
  162DOPC   C2619572   1.285   7.299   5.932  0.1009 -0.9390 -0.7740
  162DOPC   H6R19573   1.297   7.194   5.899 -0.9494 -1.7104  1.1207
  162DOPC   H6S19574   1.322   7.297   6.036  0.7021  0.5482 -0.9341
  162DOPC   C2719575   1.352   7.406   5.850 -0.5099 -0.2995 -0.4865
  162DOPC   H7R19576   1.345   7.505   5.899  0.4785 -1.4045  2.0931
  162DOPC   H7S19577   1.290   7.405   5.758 -0.1552 -1.1623 -0.7329
  162DOPC   C2819578   1.502   7.378   5.829 -0.0382 -1.2793  0.1973
  162DOPC   H8R19579   1.520   7.280   5.779 -2.1237 -0.4042 -2.4900
  162DOPC   H8S19580   1.542   7.372   5.932 -3.3838 -1.1240  1.6364
  162DOPC   C2919581   1.581   7.479   5.749  0.2627  0.3016  0.4930
  162DOPC   H9R19582   1.644   7.558   5.792 -0.0943  0.5966  0.4770
  162DOPC  C21019583   1.566   7.494   5.618  0.0546  0.1991 -0.3058
  162DOPC  H10R19584   1.630   7.556   5.554  0.4847  0.0568 -0.0170
  162DOPC  C21119585   1.472   7.425   5.529  0.7362  0.7945 -0.0856
  162DOPC  H11R19586   1.390   7.371   5.581  1.3918 -1.0569 -0.8648
  162DOPC  H11S19587   1.529   7.337   5.491  0.1988  0.4051  0.0059
  162DOPC  C21219588   1.409   7.513   5.419  0.4948 -0.2120 -0.6201
  162DOPC  H12R19589   1.477   7.596   5.389  0.4218  0.0766 -0.0050
  162DOPC  H12S19590   1.308   7.544   5.452 -0.3757 -2.0401 -1.4573
  162DOPC  C21319591   1.382   7.440   5.289  0.5730  0.9370  0.2667
  162DOPC  H13R19592   1.317   7.351   5.302  0.6664  0.6530 -1.0563
  162DOPC  H13S19593   1.478   7.399   5.250  0.3784 -1.3392  1.9741
  162DOPC  C21419594   1.302   7.530   5.193 -0.0193  0.0030  0.3254
  162DOPC  H14R19595   1.347   7.630   5.178 -2.5166  1.0257 -1.0007
  162DOPC  H14S19596   1.201   7.544   5.237 -1.0769 -1.7366 -1.3683
  162DOPC  C21519597   1.288   7.479   5.048 -0.4895 -0.1776  0.8435
  162DOPC  H15R19598   1.250   7.375   5.050 -0.3032 -0.2360  1.9958
  162DOPC  H15S19599   1.393   7.484   5.012 -0.6273  0.1307  0.4777
  162DOPC  C21619600   1.204   7.575   4.958  0.6865  0.2452 -0.3626
  162DOPC  H16R19601   1.238   7.548   4.855  1.9383  0.9041 -0.1450
  162DOPC  H16S19602   1.227   7.684   4.966  0.9660  0.1287  0.4646
  162DOPC  C21719603   1.051   7.551   4.986  0.3624  0.6770  0.4416
  162DOPC  H17R19604   1.014   7.637   4.926 -1.4590 -1.5275 -1.8341
  162DOPC  H17S19605   1.022   7.564   5.092  0.7075 -1.2825  0.8138
  162DOPC  C21819606   0.979   7.423   4.928 -0.5509 -0.0366 -0.3657
  162DOPC  H18R19607   0.868   7.425   4.934 -0.7096 -0.4348 -2.5189
  162DOPC  H18S19608   1.002   7.333   4.990 -0.1427 -0.3136 -0.9122
  162DOPC  H18T19609   1.009   7.407   4.822  0.6275 -0.6958  0.0454
  162DOPC   C3319610   0.799   7.781   6.354 -0.0199 -1.1033 -0.1552
  162DOPC   H3X19611   0.841   7.809   6.255  0.0346  0.0699  0.1878
  162DOPC   H3Y19612   0.878   7.786   6.432 -0.0182  1.3019 -0.2345
  162DOPC   C3419613   0.709   7.897   6.394 -0.2797  0.3082  0.6317
  162DOPC   H4X19614   0.781   7.981   6.387 -1.3518  1.1704 -0.3214
  162DOPC   H4Y19615   0.689   7.878   6.502 -1.1631  0.4690  0.4977
  162DOPC   C3519616   0.582   7.925   6.322  0.5365 -0.1345 -0.4798
  162DOPC   H5X19617   0.524   8.005   6.373  0.4611 -1.5334  1.7176
  162DOPC   H5Y19618   0.526   7.830   6.320 -0.3043  0.3097  0.8366
  162DOPC   C3619619   0.604   7.984   6.176 -0.8547  0.8367  0.3907
  162DOPC   H6X19620   0.683   8.062   6.169  0.8709 -0.9822 -2.6032
  162DOPC   H6Y19621   0.640   7.905   6.107 -3.5953  0.7393 -1.0780
  162DOPC   C3719622   0.473   8.046   6.119  0.1315 -0.5352 -0.0902
  162DOPC   H7X19623   0.411   7.956   6.098  0.7877 -1.1479  0.5308
  162DOPC   H7Y19624   0.436   8.109   6.202 -1.3395 -0.5686 -0.6790
  162DOPC   C3819625   0.504   8.111   5.984  0.5095 -0.0886  0.3375
  162DOPC   H8X19626   0.588   8.180   6.006 -0.0422  0.1081  1.9637
  162DOPC   H8Y19627   0.418   8.174   5.952  1.4854  0.9994 -0.2298
  162DOPC   C3919628   0.552   8.020   5.871 -0.4401 -0.1472  0.0413
  162DOPC   H9X19629   0.496   7.925   5.866  0.9179 -0.9252 -1.1736
  162DOPC  C31019630   0.653   8.039   5.782 -0.1379 -0.2563  0.4361
  162DOPC  H10X19631   0.670   7.959   5.709 -0.6716 -0.5370  0.6111
  162DOPC  C31119632   0.745   8.155   5.766  0.1281 -0.1376 -0.2623
  162DOPC  H11X19633   0.837   8.128   5.711  0.5130  0.6539 -0.0192
  162DOPC  H11Y19634   0.778   8.201   5.862  0.1243  3.0116 -1.6302
  162DOPC  C31219635   0.696   8.269   5.682  0.3479 -0.3847 -0.0342
  162DOPC  H12X19636   0.771   8.350   5.666  1.1464 -0.4465  2.8196
  162DOPC  H12Y19637   0.612   8.315   5.737  1.2235 -1.8924  2.7429
  162DOPC  C31319638   0.645   8.226   5.544 -0.1908 -0.6649 -0.9761
  162DOPC  H13X19639   0.566   8.149   5.550 -0.8651  0.1307  1.6856
  162DOPC  H13Y19640   0.590   8.316   5.509  1.7376  1.4377  0.9959
  162DOPC  C31419641   0.752   8.205   5.434 -0.1413  1.2648  0.1338
  162DOPC  H14X19642   0.844   8.241   5.484  0.0401  0.1780  0.6043
  162DOPC  H14Y19643   0.766   8.096   5.419 -0.8496  1.2452 -0.4609
  162DOPC  C31519644   0.729   8.273   5.298 -0.0010 -0.3080  0.5278
  162DOPC  H15X19645   0.817   8.256   5.231  0.1152  1.1754  0.2705
  162DOPC  H15Y19646   0.732   8.384   5.303  0.5477 -0.3080  0.2971
  162DOPC  C31619647   0.595   8.224   5.233  0.0897 -0.1742  0.0377
  162DOPC  H16X19648   0.610   8.114   5.222  3.0712 -0.0720  2.0392
  162DOPC  H16Y19649   0.507   8.235   5.300  1.7881  1.6288  2.1233
  162DOPC  C31719650   0.575   8.282   5.092 -0.3389  0.3964 -0.3105
  162DOPC  H17X19651   0.578   8.391   5.113  1.7292  0.0769  1.2985
  162DOPC  H17Y19652   0.659   8.256   5.024  1.7358  2.5692  1.2732
  162DOPC  C31819653   0.437   8.240   5.035  0.6266 -0.1996  0.4141
  162DOPC  H18X19654   0.426   8.280   4.932 -0.4811 -1.3009  0.0737
  162DOPC  H18Y19655   0.421   8.130   5.031  1.8171 -0.3660 -0.8577
  162DOPC  H18Z19656   0.349   8.279   5.091  1.3419  0.0470  1.3796
  163DOPC     N19657   6.833   2.576   8.099  0.0514  0.4088  0.1065
  163DOPC   C1219658   6.788   2.644   7.974  0.1801 -0.4785  1.0396
  163DOPC  H12A19659   6.684   2.630   7.950  0.3470  0.6774 -0.5600
  163DOPC  H12B19660   6.829   2.592   7.889 -2.7805 -2.1274  0.5093
  163DOPC   C1319661   6.808   2.421   8.091  0.4133 -0.1302  0.6400
  163DOPC  H13A19662   6.813   2.383   8.192  1.2955  1.8990  1.4179
  163DOPC  H13B19663   6.706   2.399   8.063  0.7077  1.8372 -2.5254
  163DOPC  H13C19664   6.866   2.359   8.024 -1.3018 -2.4916  1.2249
  163DOPC   C1419665   6.761   2.641   8.216  0.7203  0.5189 -0.1776
  163DOPC  H14A19666   6.659   2.655   8.183  0.8553 -1.9047 -1.8548
  163DOPC  H14B19667   6.759   2.581   8.306  0.3211  0.3928 -0.2708
  163DOPC  H14C19668   6.789   2.746   8.219 -0.8299  0.9998 -1.1044
  163DOPC   C1519669   6.982   2.577   8.113  0.0822 -0.0021 -0.0578
  163DOPC  H15A19670   7.004   2.680   8.136 -0.1022  0.2427 -0.9127
  163DOPC  H15B19671   7.035   2.536   8.028 -0.9652 -0.1942 -0.6398
  163DOPC  H15C19672   7.017   2.509   8.188  0.4918 -0.6192 -0.7896
  163DOPC   C1119673   6.830   2.792   7.950  0.1102  0.2475 -0.1312
  163DOPC  H11A19674   6.941   2.798   7.954  0.1110  2.1637 -1.3634
  163DOPC  H11B19675   6.802   2.815   7.845 -1.8076 -0.5068  0.1908
  163DOPC     P19676   6.829   3.018   8.089 -0.0277  0.0731  0.2006
  163DOPC   O1319677   6.948   3.049   8.008  0.1213 -0.3068  0.3199
  163DOPC   O1419678   6.848   3.015   8.238 -0.3344 -0.5915 -0.2236
  163DOPC   O1219679   6.763   2.888   8.043  0.3822  0.5146 -0.4051
  163DOPC   O1119680   6.723   3.134   8.055 -0.4155  0.4042  0.3742
  163DOPC    C119681   6.603   3.102   7.992 -0.8133 -0.0777 -0.3820
  163DOPC    HA19682   6.531   3.184   8.014  0.2326  0.4086  1.4468
  163DOPC    HB19683   6.552   3.011   8.031 -1.4377  0.7934  0.9026
  163DOPC    C219684   6.610   3.086   7.842  0.3001 -0.2930 -0.1793
  163DOPC    HS19685   6.668   2.992   7.826  3.5356  1.2695  1.6026
  163DOPC   O2119686   6.688   3.202   7.789  0.0595 -0.2784 -0.2490
  163DOPC   C2119687   6.770   3.170   7.689  0.8288 -0.4492 -0.0352
  163DOPC   O2219688   6.759   3.069   7.626 -0.2454 -1.0104  0.2809
  163DOPC   C2219689   6.850   3.291   7.646  0.3850  0.4371 -0.7834
  163DOPC   H2R19690   6.948   3.284   7.697  0.2145  2.1724 -0.1707
  163DOPC   H2S19691   6.803   3.375   7.700  0.0751 -0.9682  1.2450
  163DOPC    C319692   6.473   3.074   7.770  0.1498 -0.5141 -1.1490
  163DOPC    HX19693   6.425   3.174   7.784  0.6957 -0.6017  2.1742
  163DOPC    HY19694   6.404   2.999   7.814 -0.0433 -2.3403 -4.3184
  163DOPC   O3119695   6.493   3.057   7.629  0.2694  0.9140 -0.3371
  163DOPC   C3119696   6.493   2.927   7.591  0.1002  0.1376 -0.0958
  163DOPC   O3219697   6.494   2.832   7.661 -0.0520  0.5214  0.0609
  163DOPC   C3219698   6.504   2.922   7.439  0.3334 -0.0863  0.0447
  163DOPC   H2X19699   6.422   2.976   7.386  0.5809  0.8359  0.5735
  163DOPC   H2Y19700   6.600   2.964   7.402  0.2400  0.9166  0.8910
  163DOPC   C2319701   6.872   3.307   7.494 -0.1224  0.2662  0.2837
  163DOPC   H3R19702   6.922   3.405   7.475  1.6332 -0.5134  0.7144
  163DOPC   H3S19703   6.771   3.307   7.448 -0.4276  1.2878  0.9267
  163DOPC   C2419704   6.961   3.196   7.440  0.7494 -0.4002  0.2849
  163DOPC   H4R19705   6.918   3.094   7.438  0.1773 -0.1609  0.3037
  163DOPC   H4S19706   7.054   3.183   7.499  0.3026 -2.8308  0.5677
  163DOPC   C2519707   6.974   3.218   7.287 -0.3945 -0.3078 -0.9952
  163DOPC   H5R19708   7.008   3.322   7.271 -2.4888  0.2638 -2.0925
  163DOPC   H5S19709   6.872   3.207   7.244  0.2627 -1.7258 -2.3096
  163DOPC   C2619710   7.075   3.121   7.213 -0.3922 -0.1170  0.1040
  163DOPC   H6R19711   7.046   3.014   7.212 -0.6840 -0.0369 -0.6446
  163DOPC   H6S19712   7.173   3.122   7.266 -0.7362 -0.9974  0.7808
  163DOPC   C2719713   7.111   3.157   7.066  0.1781 -0.4116 -0.0841
  163DOPC   H7R19714   7.177   3.078   7.023  1.1909  0.8383 -0.8860
  163DOPC   H7S19715   7.163   3.254   7.077  0.2894 -0.6226  1.3158
  163DOPC   C2819716   6.997   3.182   6.962 -0.1672 -0.4443  0.9561
  163DOPC   H8R19717   7.055   3.216   6.873  2.4152  0.7686  2.9821
  163DOPC   H8S19718   6.936   3.267   7.000  0.6910  0.5139  0.2355
  163DOPC   C2919719   6.916   3.062   6.933  0.3754 -0.0216 -0.3361
  163DOPC   H9R19720   6.901   3.000   7.023 -0.3372  0.1974 -0.3002
  163DOPC  C21019721   6.863   3.018   6.819 -0.1281 -0.0009 -0.3835
  163DOPC  H10R19722   6.807   2.925   6.801  0.1502  0.2095 -2.6289
  163DOPC  C21119723   6.878   3.089   6.685 -0.5677 -0.5971  0.2431
  163DOPC  H11R19724   6.981   3.068   6.651 -0.4619  0.2367  0.0394
  163DOPC  H11S19725   6.853   3.197   6.691  0.3748 -0.0633 -3.3009
  163DOPC  C21219726   6.784   3.043   6.571 -0.0440 -0.0333 -0.2473
  163DOPC  H12R19727   6.676   3.067   6.584  0.1250  0.1075  1.0804
  163DOPC  H12S19728   6.786   2.933   6.555 -2.8836  0.0693 -1.8879
  163DOPC  C21319729   6.821   3.104   6.432 -0.2680  0.2604 -0.3957
  163DOPC  H13R19730   6.762   3.038   6.366  0.0444 -0.9973  0.5546
  163DOPC  H13S19731   6.930   3.105   6.411 -0.3220  1.5626 -0.7366
  163DOPC  C21419732   6.771   3.252   6.426 -0.3262  0.2019 -0.8044
  163DOPC  H14R19733   6.827   3.319   6.496  1.3935 -0.2989 -1.6337
  163DOPC  H14S19734   6.663   3.241   6.446  0.1252 -2.0486  0.7813
  163DOPC  C21519735   6.781   3.316   6.288  0.2001  0.2202  0.5750
  163DOPC  H15R19736   6.882   3.333   6.245  0.2997 -1.1727  0.2195
  163DOPC  H15S19737   6.745   3.421   6.300 -0.9505 -0.2536  1.4637
  163DOPC  C21619738   6.699   3.252   6.169 -0.7572  0.3958  0.2245
  163DOPC  H16R19739   6.589   3.260   6.185 -0.9132  1.9082 -1.3277
  163DOPC  H16S19740   6.730   3.145   6.169  0.5679  0.7581 -0.9550
  163DOPC  C21719741   6.739   3.307   6.030 -0.1279  0.1267 -0.5883
  163DOPC  H17R19742   6.850   3.297   6.022  0.0254  1.3793 -0.3098
  163DOPC  H17S19743   6.705   3.413   6.032  0.7667  0.4260 -0.4895
  163DOPC  C21819744   6.677   3.227   5.915 -0.0651 -0.1902 -0.8833
  163DOPC  H18R19745   6.742   3.229   5.825 -2.5501  0.1524 -2.7735
  163DOPC  H18S19746   6.582   3.272   5.878 -1.8563 -2.9522  0.0126
  163DOPC  H18T19747   6.656   3.122   5.948  1.6338 -0.4350 -0.4869
  163DOPC   C3319748   6.501   2.777   7.390 -0.1298  0.0214  0.6971
  163DOPC   H3X19749   6.405   2.732   7.422  0.5535 -2.0792 -0.0451
  163DOPC   H3Y19750   6.574   2.719   7.450 -0.1475  0.9745  1.6668
  163DOPC   C3419751   6.534   2.757   7.243 -0.2032  0.7152  0.6442
  163DOPC   H4X19752   6.549   2.648   7.227  0.3988  0.1989  4.0808
  163DOPC   H4Y19753   6.627   2.808   7.212  0.3011 -0.1067  0.7866
  163DOPC   C3519754   6.423   2.794   7.152  0.0183 -0.5087  0.0401
  163DOPC   H5X19755   6.404   2.902   7.170  1.8983 -0.1416  0.0351
  163DOPC   H5Y19756   6.326   2.744   7.173  0.9761 -2.5273 -0.1643
  163DOPC   C3619757   6.475   2.791   7.003  0.1089 -0.0427  0.0546
  163DOPC   H6X19758   6.527   2.887   6.983 -0.3280 -0.1105 -1.5544
  163DOPC   H6Y19759   6.546   2.708   6.984  1.5399  1.2740 -0.5921
  163DOPC   C3719760   6.353   2.767   6.920 -0.6990  0.0323 -0.2389
  163DOPC   H7X19761   6.290   2.685   6.961  0.7461 -1.5809 -1.1014
  163DOPC   H7Y19762   6.281   2.851   6.931 -0.4312  0.6293 -2.5845
  163DOPC   C3819763   6.390   2.742   6.776  0.0377  0.1996  0.3470
  163DOPC   H8X19764   6.308   2.679   6.733 -0.0785 -0.0357  0.9087
  163DOPC   H8Y19765   6.482   2.685   6.751 -1.2036 -1.9088  0.3451
  163DOPC   C3919766   6.401   2.877   6.703  0.7548  0.1067  0.3454
  163DOPC   H9X19767   6.465   2.956   6.746  1.7761 -1.2545  1.4384
  163DOPC  C31019768   6.322   2.913   6.605  0.6277 -0.2148  0.3937
  163DOPC  H10X19769   6.337   3.007   6.549  2.0045 -0.4287  0.3633
  163DOPC  C31119770   6.210   2.839   6.529 -1.3057  0.1728  0.1083
  163DOPC  H11X19771   6.111   2.888   6.545 -1.6296 -0.2461 -0.5356
  163DOPC  H11Y19772   6.193   2.730   6.539 -2.6187  0.1325 -1.8713
  163DOPC  C31219773   6.236   2.871   6.377 -0.2150  0.2702  0.1095
  163DOPC  H12X19774   6.166   2.801   6.327 -2.2620  1.1757  1.5715
  163DOPC  H12Y19775   6.335   2.839   6.337 -0.6429  0.6522 -1.3330
  163DOPC  C31319776   6.207   3.014   6.324  0.1957  0.2065 -0.6804
  163DOPC  H13X19777   6.109   3.043   6.368  0.9985 -0.5295  1.8116
  163DOPC  H13Y19778   6.276   3.094   6.357  0.2136  0.2096 -0.7248
  163DOPC  C31419779   6.213   3.011   6.164 -0.6327 -0.5789  0.0221
  163DOPC  H14X19780   6.154   2.921   6.134  0.2907 -1.5288  0.9567
  163DOPC  H14Y19781   6.171   3.111   6.138  0.1440 -0.2386  0.0674
  163DOPC  C31519782   6.358   2.986   6.106  0.7000  0.2778  0.0080
  163DOPC  H15X19783   6.395   2.887   6.142 -0.4462 -0.2802 -0.2842
  163DOPC  H15Y19784   6.427   3.058   6.155  1.4500 -0.4725  0.0737
  163DOPC  C31619785   6.363   3.009   5.956  0.0899 -0.2174  0.4620
  163DOPC  H16X19786   6.467   2.987   5.924  0.2124 -0.3313  0.9305
  163DOPC  H16Y19787   6.294   2.937   5.907 -1.6984  2.7402 -1.7560
  163DOPC  C31719788   6.324   3.151   5.924  0.0534 -0.6231 -0.3398
  163DOPC  H17X19789   6.224   3.177   5.965  0.7680 -1.8448  2.3916
  163DOPC  H17Y19790   6.394   3.218   5.979 -1.0225 -1.7888  2.6749
  163DOPC  C31819791   6.316   3.174   5.773  0.4480 -0.1610 -0.6303
  163DOPC  H18X19792   6.407   3.132   5.727  0.6409  1.8000 -2.1634
  163DOPC  H18Y19793   6.224   3.137   5.723 -1.0417  0.1428  1.7173
  163DOPC  H18Z19794   6.317   3.283   5.753  1.6921 -0.4374 -2.1564
  164DOPC     N19795   2.651   0.586   7.109  0.3473 -0.2133 -0.2472
  164DOPC   C1219796   2.622   0.692   7.006  1.2350  0.3615 -0.1012
  164DOPC  H12A19797   2.638   0.790   7.048 -0.2737  0.8443 -0.6213
  164DOPC  H12B19798   2.520   0.696   6.972  0.5394  1.3585  1.9757
  164DOPC   C1319799   2.559   0.597   7.224  0.4311 -0.2190 -0.0044
  164DOPC  H13A19800   2.560   0.503   7.277  0.1775 -0.4499 -0.3995
  164DOPC  H13B19801   2.585   0.672   7.298  0.1931 -0.0468 -0.0917
  164DOPC  H13C19802   2.459   0.623   7.194 -0.1598 -0.1399  1.9101
  164DOPC   C1419803   2.790   0.596   7.158 -0.4109 -0.2047 -0.3153
  164DOPC  H14A19804   2.858   0.596   7.073  1.3557  0.6337  1.0286
  164DOPC  H14B19805   2.808   0.686   7.214 -2.4809 -1.0974  1.9535
  164DOPC  H14C19806   2.812   0.509   7.219  0.0257 -0.5437 -0.9420
  164DOPC   C1519807   2.624   0.450   7.054 -0.1859  0.1917  1.1058
  164DOPC  H15A19808   2.678   0.442   6.961 -1.6706  2.3248 -0.0112
  164DOPC  H15B19809   2.521   0.432   7.028  0.5617 -1.6347 -0.8620
  164DOPC  H15C19810   2.668   0.368   7.110 -1.2050 -0.9223  0.3254
  164DOPC   C1119811   2.707   0.689   6.875 -0.4345 -0.6912  0.7512
  164DOPC  H11A19812   2.694   0.587   6.833  1.3570 -0.3683 -0.7392
  164DOPC  H11B19813   2.654   0.765   6.814  0.9599  1.1677  1.7591
  164DOPC     P19814   2.890   0.868   6.952 -0.1505 -0.4090 -0.0904
  164DOPC   O1319815   2.999   0.856   7.056  0.0848 -0.0784  0.0962
  164DOPC   O1419816   2.773   0.950   6.987  0.5508 -0.4633 -0.6379
  164DOPC   O1219817   2.846   0.728   6.896 -0.2022 -0.0171 -0.0318
  164DOPC   O1119818   2.949   0.931   6.817  0.0331 -0.1964 -0.2111
  164DOPC    C119819   3.027   0.848   6.731 -0.1296 -0.5966 -0.5815
  164DOPC    HA19820   2.971   0.781   6.662  0.8142  0.0987 -2.0715
  164DOPC    HB19821   3.093   0.788   6.798  0.4204  2.3374  1.7415
  164DOPC    C219822   3.117   0.929   6.636  0.3280 -0.1406 -0.1161
  164DOPC    HS19823   3.174   0.994   6.705 -0.3491 -1.0238  1.3336
  164DOPC   O2119824   3.033   1.009   6.550 -0.1563 -0.6453  0.1560
  164DOPC   C2119825   3.080   1.130   6.518  0.0042  0.4214  0.3537
  164DOPC   O2219826   3.181   1.179   6.559 -0.3707 -0.5276 -0.2721
  164DOPC   C2219827   2.997   1.203   6.419  0.2909  0.2105  0.7123
  164DOPC   H2R19828   2.914   1.246   6.479  0.8073  0.8591  0.9755
  164DOPC   H2S19829   2.959   1.118   6.358 -0.3049 -1.1032  2.8327
  164DOPC    C319830   3.217   0.849   6.546 -0.6467  0.1268 -0.1423
  164DOPC    HX19831   3.286   0.797   6.614 -2.0277 -2.6834 -0.7333
  164DOPC    HY19832   3.286   0.916   6.491 -0.2015  0.9600  1.3826
  164DOPC   O3119833   3.151   0.748   6.459  0.2964  0.7680  0.4952
  164DOPC   C3119834   3.126   0.788   6.331  0.3704  0.4722 -0.5468
  164DOPC   O3219835   3.142   0.901   6.292 -0.8431 -0.1580  0.1201
  164DOPC   C3219836   3.069   0.674   6.254 -0.0987  0.6493 -0.1681
  164DOPC   H2X19837   3.142   0.591   6.266  1.2558  1.7595 -0.4514
  164DOPC   H2Y19838   2.974   0.641   6.301  0.4956  2.0915  2.2467
  164DOPC   C2319839   3.053   1.322   6.345 -0.1376  0.2524  0.2038
  164DOPC   H3R19840   3.157   1.305   6.309  0.0385  0.7226  0.4858
  164DOPC   H3S19841   3.062   1.402   6.421  0.0392  1.5197 -1.1010
  164DOPC   C2419842   2.975   1.365   6.216 -0.1086  0.1545 -0.4785
  164DOPC   H4R19843   3.031   1.455   6.180  1.5837 -0.0545  1.4417
  164DOPC   H4S19844   2.874   1.394   6.253  0.1889 -0.2975  0.7145
  164DOPC   C2519845   2.986   1.253   6.110  0.0788  0.7219  0.3746
  164DOPC   H5R19846   2.940   1.286   6.015  0.6870 -0.6332 -0.4235
  164DOPC   H5S19847   2.940   1.159   6.148  2.5948 -0.8344 -0.1979
  164DOPC   C2619848   3.135   1.208   6.069  0.3827  0.2801  0.1321
  164DOPC   H6R19849   3.183   1.179   6.165 -1.1576 -0.9983  0.5556
  164DOPC   H6S19850   3.198   1.295   6.041  0.7161  0.2779  0.8516
  164DOPC   C2719851   3.139   1.093   5.969  0.1831 -0.0060 -0.0354
  164DOPC   H7R19852   3.073   1.128   5.886 -0.0386  2.3347  1.0381
  164DOPC   H7S19853   3.094   1.007   6.023 -0.7813  1.0510  0.9103
  164DOPC   C2819854   3.276   1.048   5.908 -0.3695  0.4799  0.3933
  164DOPC   H8R19855   3.339   1.032   5.998 -0.0003  3.3077  0.7327
  164DOPC   H8S19856   3.315   1.130   5.843 -0.8257 -0.3953 -1.0307
  164DOPC   C2919857   3.262   0.924   5.827 -0.2886 -0.7959  0.0356
  164DOPC   H9R19858   3.218   0.843   5.887  0.0336 -2.0189 -1.3245
  164DOPC  C21019859   3.293   0.898   5.698  0.7354  0.2125 -0.3688
  164DOPC  H10R19860   3.262   0.802   5.655 -1.1793  0.3923  0.5086
  164DOPC  C21119861   3.357   1.004   5.609  0.4006 -0.4277 -0.1289
  164DOPC  H11R19862   3.383   1.095   5.667  1.1450 -0.9505  0.3770
  164DOPC  H11S19863   3.299   1.022   5.516  1.5552  2.2785 -0.4050
  164DOPC  C21219864   3.497   0.957   5.557  0.5910 -0.1109 -0.3464
  164DOPC  H12R19865   3.560   0.927   5.644  1.3917 -0.2048 -0.9504
  164DOPC  H12S19866   3.536   1.046   5.504  1.2367 -0.3893 -0.3529
  164DOPC  C21319867   3.508   0.826   5.461  1.2240  0.2075 -0.6437
  164DOPC  H13R19868   3.424   0.851   5.392  0.1868  2.3734  1.2571
  164DOPC  H13S19869   3.480   0.735   5.518  4.1815  0.0048  0.6996
  164DOPC  C21419870   3.641   0.810   5.391 -0.0790  0.9674  0.0895
  164DOPC  H14R19871   3.722   0.812   5.466  1.5709  2.6587 -1.6197
  164DOPC  H14S19872   3.669   0.893   5.322 -1.2762  0.0757 -1.5432
  164DOPC  C21519873   3.643   0.693   5.295 -0.4696 -0.4696 -0.0284
  164DOPC  H15R19874   3.539   0.700   5.255 -0.0631 -0.4149 -1.1053
  164DOPC  H15S19875   3.651   0.596   5.349  1.0161  0.5112  1.6204
  164DOPC  C21619876   3.752   0.700   5.191 -0.1457  0.3156 -0.1121
  164DOPC  H16R19877   3.846   0.692   5.250 -0.9518 -1.3053  1.0524
  164DOPC  H16S19878   3.738   0.802   5.150 -0.3836  1.0241  1.6197
  164DOPC  C21719879   3.741   0.580   5.099  0.4071  0.3574  0.3323
  164DOPC  H17R19880   3.761   0.629   5.002 -2.5721  2.0568  0.4252
  164DOPC  H17S19881   3.632   0.554   5.096  0.8321 -1.7515  1.0847
  164DOPC  C21819882   3.826   0.459   5.128 -0.0990  0.8628  0.3467
  164DOPC  H18R19883   3.839   0.394   5.039 -1.3610  2.3309 -0.9572
  164DOPC  H18S19884   3.795   0.405   5.219 -2.4208 -0.2812 -1.0429
  164DOPC  H18T19885   3.931   0.494   5.144  0.6303 -1.7935  1.9397
  164DOPC   C3319886   3.054   0.703   6.105  0.1139 -0.0707 -0.8026
  164DOPC   H3X19887   3.155   0.743   6.085  1.1512 -0.5961  2.7061
  164DOPC   H3Y19888   2.980   0.785   6.091  0.6022  1.0091  2.0970
  164DOPC   C3419889   3.018   0.584   6.013  0.4115  1.1705 -0.3431
  164DOPC   H4X19890   2.945   0.515   6.060  1.3545  0.0214 -0.5046
  164DOPC   H4Y19891   3.104   0.522   5.980 -0.4173 -0.0272 -0.3028
  164DOPC   C3519892   2.954   0.624   5.885  0.1000 -0.0322 -0.9004
  164DOPC   H5X19893   3.005   0.716   5.851  0.2286  0.3194  0.1797
  164DOPC   H5Y19894   2.843   0.630   5.887  0.0968  0.3650  1.9036
  164DOPC   C3619895   2.978   0.513   5.775 -0.7683  0.3567  0.2734
  164DOPC   H6X19896   3.087   0.508   5.757 -1.0012  2.3403 -2.3772
  164DOPC   H6Y19897   2.954   0.411   5.812  0.8291  0.3302  1.3265
  164DOPC   C3719898   2.907   0.540   5.641 -0.2099 -0.0795 -0.2670
  164DOPC   H7X19899   2.800   0.520   5.661  0.3180 -3.0293  0.1347
  164DOPC   H7Y19900   2.920   0.641   5.598  0.0619 -0.7149 -1.7359
  164DOPC   C3819901   2.960   0.451   5.521 -0.2036  0.1337 -0.6054
  164DOPC   H8X19902   2.936   0.344   5.540 -0.1291  0.2792  0.3423
  164DOPC   H8Y19903   3.070   0.456   5.513 -0.2640  0.5169 -1.3367
  164DOPC   C3919904   2.886   0.474   5.394 -0.5387 -0.7815  0.6601
  164DOPC   H9X19905   2.787   0.426   5.403 -0.6119 -0.4187  1.9446
  164DOPC  C31019906   2.919   0.551   5.284 -1.1126  0.0704  0.5086
  164DOPC  H10X19907   2.864   0.545   5.189  0.2003 -1.5206 -0.2190
  164DOPC  C31119908   3.042   0.630   5.277  0.0677  0.1592  0.2406
  164DOPC  H11X19909   3.123   0.566   5.318  0.3705 -0.8359 -1.8295
  164DOPC  H11Y19910   3.038   0.720   5.343 -0.9553  0.4836 -0.2452
  164DOPC  C31219911   3.066   0.678   5.130  0.0352  0.4692 -0.0892
  164DOPC  H12X19912   2.978   0.738   5.098  1.5655  1.0532 -3.8323
  164DOPC  H12Y19913   3.064   0.588   5.065 -0.9108 -0.8210  1.6543
  164DOPC  C31319914   3.202   0.750   5.094 -0.0964 -0.5150  1.1337
  164DOPC  H13X19915   3.207   0.850   5.142 -1.5950  0.0116  0.2810
  164DOPC  H13Y19916   3.284   0.683   5.127  0.2780 -0.0072  1.2461
  164DOPC  C31419917   3.225   0.779   4.938  0.3466  0.7571  0.3809
  164DOPC  H14X19918   3.154   0.856   4.902  0.8257  1.3460  0.6842
  164DOPC  H14Y19919   3.183   0.690   4.887 -0.2395  0.2051  1.7583
  164DOPC  C31519920   3.370   0.803   4.914 -0.8501 -0.0275 -0.0590
  164DOPC  H15X19921   3.426   0.725   4.970 -0.3108  1.1304  1.0582
  164DOPC  H15Y19922   3.405   0.898   4.958  0.1307 -0.5709  0.3581
  164DOPC  C31619923   3.406   0.805   4.763 -0.6719  0.3276  0.1358
  164DOPC  H16X19924   3.347   0.730   4.706  0.1617  0.7957 -1.3861
  164DOPC  H16Y19925   3.382   0.911   4.739  0.8336  0.7300  0.3148
  164DOPC  C31719926   3.556   0.766   4.724  0.3863 -0.7889 -0.2696
  164DOPC  H17X19927   3.625   0.847   4.754 -0.0621 -0.3810 -0.3327
  164DOPC  H17Y19928   3.586   0.674   4.779 -1.2448 -0.8264  0.6246
  164DOPC  C31819929   3.559   0.751   4.567  0.6787 -0.5119 -0.2042
  164DOPC  H18X19930   3.656   0.713   4.529  0.7467  0.2989 -0.8650
  164DOPC  H18Y19931   3.478   0.679   4.544 -0.0542  0.3166 -0.2747
  164DOPC  H18Z19932   3.533   0.849   4.520 -1.0597 -1.0990 -0.5164
  165DOPC     N19933   6.360   0.348   8.096  0.2433 -0.1141 -0.6747
  165DOPC   C1219934   6.391   0.261   7.980  0.0752  1.2068  0.5124
  165DOPC  H12A19935   6.338   0.168   7.986  0.5659  0.9286  0.5969
  165DOPC  H12B19936   6.495   0.234   7.970 -0.4229 -0.4423 -0.5602
  165DOPC   C1319937   6.217   0.392   8.101  0.2585 -0.5505 -0.2342
  165DOPC  H13A19938   6.190   0.437   8.007  0.7007  2.5549  1.0162
  165DOPC  H13B19939   6.154   0.315   8.144 -1.2201  0.3196 -0.7779
  165DOPC  H13C19940   6.218   0.474   8.171  0.8908 -0.7219 -0.0369
  165DOPC   C1419941   6.440   0.470   8.091 -0.7944  0.2036  0.0028
  165DOPC  H14A19942   6.452   0.516   7.994  1.5032  1.5120  0.8332
  165DOPC  H14B19943   6.392   0.548   8.148  2.9469 -0.1722  4.2147
  165DOPC  H14C19944   6.545   0.455   8.113 -0.3782  0.8407 -1.4304
  165DOPC   C1519945   6.391   0.280   8.226 -0.0460  0.1820 -0.6886
  165DOPC  H15A19946   6.364   0.341   8.311 -0.1905  1.3937 -1.5803
  165DOPC  H15B19947   6.495   0.254   8.244 -0.5232 -0.2947  1.7378
  165DOPC  H15C19948   6.323   0.197   8.235 -0.6977  0.8476  0.8925
  165DOPC   C1119949   6.350   0.313   7.847  0.1148 -0.0611  0.0679
  165DOPC  H11A19950   6.365   0.234   7.771 -1.1241  1.8143 -2.2751
  165DOPC  H11B19951   6.243   0.341   7.836  1.0111  2.9962 -2.6039
  165DOPC     P19952   6.572   0.408   7.752  0.3271  0.0343 -0.2305
  165DOPC   O1319953   6.653   0.322   7.845 -0.4741 -0.2027 -0.0635
  165DOPC   O1419954   6.627   0.543   7.727  0.2657  0.6116  0.4452
  165DOPC   O1219955   6.423   0.426   7.807 -0.1429  0.3490 -0.1965
  165DOPC   O1119956   6.551   0.330   7.618 -0.0505  0.0442  0.3259
  165DOPC    C119957   6.461   0.387   7.521  0.1872 -0.0079 -0.2520
  165DOPC    HA19958   6.380   0.454   7.558  0.0195 -0.2812 -0.1225
  165DOPC    HB19959   6.403   0.303   7.479  0.9994 -0.6094 -0.1932
  165DOPC    C219960   6.542   0.452   7.401  0.0389  0.6092 -0.2989
  165DOPC    HS19961   6.596   0.542   7.438  1.3216  0.1065 -0.8911
  165DOPC   O2119962   6.451   0.480   7.296  0.3817  0.2447  0.4676
  165DOPC   C2119963   6.409   0.606   7.291  0.4278  0.2712 -0.1348
  165DOPC   O2219964   6.447   0.702   7.360 -0.4004  0.1070 -0.5289
  165DOPC   C2219965   6.303   0.627   7.180 -0.0970 -0.2935 -0.5781
  165DOPC   H2R19966   6.211   0.566   7.195 -0.5729  0.8907  2.0196
  165DOPC   H2S19967   6.352   0.603   7.084 -1.0494 -0.2542 -1.0806
  165DOPC    C319968   6.640   0.347   7.346 -0.6556  0.0470 -0.3846
  165DOPC    HX19969   6.572   0.267   7.307 -1.8191  1.3900 -1.2066
  165DOPC    HY19970   6.706   0.298   7.421 -1.4525 -1.1221 -0.4049
  165DOPC   O3119971   6.706   0.404   7.234  0.0994  0.3093 -0.3586
  165DOPC   C3119972   6.792   0.331   7.175 -0.4827  0.3303  0.2962
  165DOPC   O3219973   6.833   0.217   7.210  0.3901  0.2638  0.2255
  165DOPC   C3219974   6.851   0.409   7.060 -0.1187  0.2182  0.2313
  165DOPC   H2X19975   6.803   0.509   7.052  3.2350  1.8869 -0.7427
  165DOPC   H2Y19976   6.955   0.424   7.095  0.3625 -4.7551  1.7498
  165DOPC   C2319977   6.268   0.776   7.156 -0.5941 -0.0685 -0.0567
  165DOPC   H3R19978   6.365   0.830   7.155 -0.2798 -0.5224  2.1537
  165DOPC   H3S19979   6.204   0.818   7.237 -2.9652 -2.2318 -0.6649
  165DOPC   C2419980   6.193   0.804   7.023 -0.6550  0.5564 -0.1369
  165DOPC   H4R19981   6.168   0.912   7.012  1.1571  1.0787  0.3984
  165DOPC   H4S19982   6.109   0.732   7.022 -2.3767  2.4119  1.5041
  165DOPC   C2519983   6.288   0.783   6.898  0.0729  0.0193 -0.6479
  165DOPC   H5R19984   6.337   0.683   6.903  0.7044  0.3434 -0.2488
  165DOPC   H5S19985   6.375   0.851   6.908  1.0464 -1.2855 -0.0266
  165DOPC   C2619986   6.208   0.803   6.763 -0.2376  0.1750 -0.4007
  165DOPC   H6R19987   6.178   0.910   6.761 -0.7005  0.0542 -0.1063
  165DOPC   H6S19988   6.116   0.742   6.759 -0.4055  0.4668 -1.0134
  165DOPC   C2719989   6.309   0.784   6.651  0.0197 -0.0320 -0.3970
  165DOPC   H7R19990   6.332   0.675   6.655 -0.8232 -0.2289 -0.8127
  165DOPC   H7S19991   6.399   0.840   6.686 -0.1715  0.9393 -1.4192
  165DOPC   C2819992   6.266   0.836   6.508  0.2055 -0.2838  0.1516
  165DOPC   H8R19993   6.226   0.940   6.515  0.0290 -0.0953 -2.4549
  165DOPC   H8S19994   6.181   0.769   6.482  1.2720 -1.4518 -0.4297
  165DOPC   C2919995   6.379   0.847   6.404  0.4929 -0.1322  0.1186
  165DOPC   H9R19996   6.437   0.940   6.418 -1.1261  1.1745 -1.3310
  165DOPC  C21019997   6.387   0.779   6.286  0.0398  0.0087  0.0008
  165DOPC  H10R19998   6.469   0.805   6.217  0.2167 -2.0173 -0.6126
  165DOPC  C21119999   6.294   0.671   6.235 -0.2256 -0.8103 -0.6120
  165DOPC  H11R20000   6.187   0.699   6.248 -0.1041 -1.4613  2.4017
  165DOPC  H11S20001   6.307   0.580   6.296 -0.7184  0.3186  1.2545
  165DOPC  C21220002   6.324   0.637   6.092  0.5511  0.5463 -0.3694
  165DOPC  H12R20003   6.265   0.548   6.063 -0.0444  0.9979 -0.5801
  165DOPC  H12S20004   6.429   0.605   6.083 -0.1387 -2.3733  0.9523
  165DOPC  C21320005   6.304   0.743   5.990  0.0847  0.4017 -0.8136
  165DOPC  H13R20006   6.385   0.819   5.988  1.8284 -1.2434  1.7287
  165DOPC  H13S20007   6.211   0.802   6.010 -1.0332 -1.2890 -0.8580
  165DOPC  C21420008   6.289   0.684   5.845 -0.4397  0.2985  0.3074
  165DOPC  H14R20009   6.218   0.599   5.858 -1.5744  1.5384  3.0214
  165DOPC  H14S20010   6.384   0.641   5.806 -0.3307  0.9001 -0.1031
  165DOPC  C21520011   6.234   0.788   5.754  0.0098 -0.3383 -0.3507
  165DOPC  H15R20012   6.296   0.878   5.772 -2.1100  1.7286 -2.5130
  165DOPC  H15S20013   6.128   0.817   5.772  0.0087  0.0886 -0.9861
  165DOPC  C21620014   6.240   0.771   5.603  0.3867 -0.3218 -0.6284
  165DOPC  H16R20015   6.346   0.784   5.572 -0.5992  2.1307 -3.5530
  165DOPC  H16S20016   6.187   0.858   5.558 -0.3140 -0.8485 -0.8271
  165DOPC  C21720017   6.168   0.646   5.563  0.0467  0.4128  0.1261
  165DOPC  H17R20018   6.080   0.642   5.631  1.1536  1.1375  1.6398
  165DOPC  H17S20019   6.232   0.558   5.587  1.3255  1.2394 -0.2164
  165DOPC  C21820020   6.122   0.643   5.418  0.3977 -0.2325 -0.3326
  165DOPC  H18R20021   6.218   0.645   5.362  0.8503  2.0619  0.3965
  165DOPC  H18S20022   6.063   0.731   5.383 -0.1679  0.0330  1.2063
  165DOPC  H18T20023   6.070   0.547   5.396  0.8810 -0.8475  1.1155
  165DOPC   C3320024   6.839   0.343   6.929  0.1947 -0.4146  0.2460
  165DOPC   H3X20025   6.734   0.318   6.903  0.6703 -1.2507 -0.9751
  165DOPC   H3Y20026   6.901   0.251   6.923 -0.4128 -0.8065 -0.1814
  165DOPC   C3420027   6.902   0.426   6.818  0.3978 -0.2468  0.0158
  165DOPC   H4X20028   6.993   0.486   6.835 -0.1643  1.4988 -2.5169
  165DOPC   H4Y20029   6.837   0.511   6.788  2.1930  0.7124 -1.2943
  165DOPC   C3520030   6.926   0.339   6.689 -0.1171 -0.8053  0.0998
  165DOPC   H5X20031   6.836   0.282   6.659 -0.4232  0.0304 -0.6385
  165DOPC   H5Y20032   6.990   0.258   6.729 -0.2035 -0.6186  0.6193
  165DOPC   C3620033   6.987   0.420   6.572 -0.2340 -0.1478  0.2074
  165DOPC   H6X20034   6.903   0.485   6.539 -0.9132 -0.4947  1.1968
  165DOPC   H6Y20035   7.069   0.485   6.608  1.6961 -2.8365  0.9453
  165DOPC   C3720036   7.033   0.329   6.457 -0.2496 -0.2850  0.0096
  165DOPC   H7X20037   6.953   0.258   6.428 -0.4941 -0.3942  0.9276
  165DOPC   H7Y20038   7.113   0.263   6.498 -0.2632 -1.2032 -1.3767
  165DOPC   C3820039   7.096   0.401   6.339  0.0923 -0.0309 -0.3792
  165DOPC   H8X20040   7.137   0.328   6.265 -2.8493 -1.2791 -0.9259
  165DOPC   H8Y20041   7.188   0.455   6.371  0.6751 -1.4951  0.5118
  165DOPC   C3920042   7.002   0.489   6.258  0.7937 -0.0567 -1.3241
  165DOPC   H9X20043   6.960   0.573   6.314 -1.3573 -2.2246  0.5442
  165DOPC  C31020044   6.957   0.483   6.132  0.2621 -0.0134 -0.4609
  165DOPC  H10X20045   6.896   0.562   6.086 -0.5865  0.0907  0.8025
  165DOPC  C31120046   7.001   0.378   6.032 -0.0980 -0.4794 -0.6705
  165DOPC  H11X20047   7.052   0.291   6.078  1.3199  0.3145 -0.6542
  165DOPC  H11Y20048   7.093   0.421   5.986  0.0254 -0.8161 -0.7394
  165DOPC  C31220049   6.896   0.361   5.917  0.2062 -0.7629  0.2462
  165DOPC  H12X20050   6.808   0.305   5.955 -0.7782  0.2809 -0.4319
  165DOPC  H12Y20051   6.949   0.307   5.836 -0.6780 -0.1476 -0.7749
  165DOPC  C31320052   6.848   0.491   5.842  0.4834  0.8237 -0.2648
  165DOPC  H13X20053   6.765   0.536   5.901 -0.7746 -2.0201  0.2954
  165DOPC  H13Y20054   6.929   0.568   5.835  0.2852  1.0169 -0.4442
  165DOPC  C31420055   6.801   0.464   5.700 -0.1996  0.9774  0.1920
  165DOPC  H14X20056   6.747   0.367   5.693  0.5914  0.6393 -2.5738
  165DOPC  H14Y20057   6.725   0.538   5.668 -1.6059  0.1971  1.6149
  165DOPC  C31520058   6.906   0.473   5.587  0.3833 -0.0753 -0.3890
  165DOPC  H15X20059   6.956   0.573   5.584 -1.9507  1.1388 -1.6194
  165DOPC  H15Y20060   6.860   0.454   5.488 -0.9198  0.7907  0.0327
  165DOPC  C31620061   7.019   0.362   5.597  0.1643  0.7795 -0.4628
  165DOPC  H16X20062   7.075   0.397   5.687  0.9790 -0.5487 -0.4273
  165DOPC  H16Y20063   6.963   0.269   5.622  0.9652  0.3044 -0.4168
  165DOPC  C31720064   7.104   0.352   5.468 -0.0395  0.5316  0.1457
  165DOPC  H17X20065   7.167   0.441   5.446  1.2024 -0.3217  0.0919
  165DOPC  H17Y20066   7.181   0.275   5.490 -0.8318 -0.8867 -1.7555
  165DOPC  C31820067   7.035   0.318   5.339  0.6159  0.3551 -0.8613
  165DOPC  H18X20068   6.983   0.413   5.315  1.8650  1.8788  2.0413
  165DOPC  H18Y20069   7.110   0.297   5.260 -0.3703 -0.3729 -1.6426
  165DOPC  H18Z20070   6.966   0.231   5.352  0.7267 -0.3683 -4.2152
  166DOPC     N20071   6.156   2.409   8.116  0.6820  0.2299  0.2566
  166DOPC   C1220072   6.199   2.303   8.007  0.2156  0.0664 -0.3304
  166DOPC  H12A20073   6.113   2.283   7.944 -0.7980  3.7755 -0.3539
  166DOPC  H12B20074   6.220   2.209   8.055 -0.3586 -0.6462 -1.4229
  166DOPC   C1320075   6.259   2.438   8.218  1.4227 -0.4404  0.4146
  166DOPC  H13A20076   6.263   2.356   8.288  1.1693 -1.3101 -0.5737
  166DOPC  H13B20077   6.350   2.466   8.166  0.3804  1.2207 -0.6387
  166DOPC  H13C20078   6.227   2.528   8.269  0.6077  0.8092 -2.1128
  166DOPC   C1420079   6.031   2.359   8.190  0.3529 -0.4281  0.0919
  166DOPC  H14A20080   6.052   2.280   8.260  1.0589  0.7518  1.2597
  166DOPC  H14B20081   5.984   2.436   8.250 -1.2993 -1.1995 -0.1624
  166DOPC  H14C20082   5.954   2.327   8.121 -0.0195  0.8850 -0.1284
  166DOPC   C1520083   6.126   2.536   8.047  0.3964  0.5308 -0.4724
  166DOPC  H15A20084   6.045   2.513   7.979  0.0525 -2.3950  0.7482
  166DOPC  H15B20085   6.212   2.574   7.994  0.3134  1.8424  0.2972
  166DOPC  H15C20086   6.095   2.618   8.110  1.5839  0.5481  0.1141
  166DOPC   C1120087   6.318   2.329   7.919 -0.0730 -0.7075 -0.5049
  166DOPC  H11A20088   6.308   2.266   7.829 -1.4057 -1.4436  0.1174
  166DOPC  H11B20089   6.310   2.436   7.888  0.4136  0.2711  2.4134
  166DOPC     P20090   6.495   2.179   8.025  0.1645  0.3504  0.3116
  166DOPC   O1320091   6.395   2.093   8.080  0.5703 -0.1761  0.2192
  166DOPC   O1420092   6.615   2.202   8.110 -0.5171  0.1244 -0.0047
  166DOPC   O1220093   6.430   2.318   7.995 -0.4360  0.3449 -0.0451
  166DOPC   O1120094   6.538   2.127   7.888 -0.0154  0.4748 -0.2331
  166DOPC    C120095   6.480   2.007   7.830 -0.1817  0.4569  0.0605
  166DOPC    HA20096   6.373   1.986   7.849 -0.2353 -1.5371 -2.0482
  166DOPC    HB20097   6.540   1.917   7.855  0.9868  0.7055 -1.6668
  166DOPC    C220098   6.487   2.015   7.670  0.5456  0.2473  0.4253
  166DOPC    HS20099   6.594   2.013   7.639  0.9927  0.6271  1.8510
  166DOPC   O2120100   6.421   2.135   7.619 -0.3363  0.6258  0.8299
  166DOPC   C2120101   6.501   2.235   7.602 -0.1653 -0.2478  0.6287
  166DOPC   O2220102   6.622   2.238   7.598  0.1529  0.4397  0.4365
  166DOPC   C2220103   6.423   2.361   7.559 -0.1069  0.4076 -0.3842
  166DOPC   H2R20104   6.466   2.442   7.622 -0.2128  0.2710 -0.1311
  166DOPC   H2S20105   6.316   2.352   7.590 -0.0716  0.7466 -0.1559
  166DOPC    C320106   6.416   1.890   7.604 -0.7872 -0.1736 -0.7816
  166DOPC    HX20107   6.319   1.873   7.657  0.2325 -2.0878  0.6116
  166DOPC    HY20108   6.489   1.810   7.628  1.1934  1.8960  0.4540
  166DOPC   O3120109   6.410   1.913   7.458 -0.2561 -0.1952 -0.3134
  166DOPC   C3120110   6.522   1.904   7.391 -0.1808  0.0637  1.0870
  166DOPC   O3220111   6.628   1.866   7.436 -0.0808 -0.1695 -0.6695
  166DOPC   C3220112   6.492   1.934   7.240 -0.2401  0.1089  0.4587
  166DOPC   H2X20113   6.407   1.866   7.219 -0.6099  1.0029 -1.1103
  166DOPC   H2Y20114   6.459   2.040   7.227  2.4359  1.0150  0.4874
  166DOPC   C2320115   6.436   2.394   7.413  0.1001 -0.4224 -0.5597
  166DOPC   H3R20116   6.537   2.400   7.366  0.0756 -0.6712 -0.6469
  166DOPC   H3S20117   6.400   2.499   7.409  0.9598 -0.1544 -2.1476
  166DOPC   C2420118   6.340   2.312   7.322  0.1192 -0.0297 -0.6089
  166DOPC   H4R20119   6.243   2.294   7.372  1.7511 -3.4893  1.7200
  166DOPC   H4S20120   6.385   2.211   7.333 -1.4700 -0.7034  0.0247
  166DOPC   C2520121   6.327   2.360   7.178 -0.4771  0.0376  0.2407
  166DOPC   H5R20122   6.317   2.469   7.194 -0.8968  0.1701 -0.8063
  166DOPC   H5S20123   6.236   2.320   7.128  0.1515 -0.1334 -0.7893
  166DOPC   C2620124   6.441   2.327   7.081  0.6133  0.4293 -0.3213
  166DOPC   H6R20125   6.460   2.221   7.056 -0.4540 -0.0731  0.8542
  166DOPC   H6S20126   6.533   2.368   7.129  0.5638  0.1181  0.0480
  166DOPC   C2720127   6.418   2.399   6.949 -0.1410 -0.4396 -0.1496
  166DOPC   H7R20128   6.438   2.506   6.970 -2.0140 -0.3987  1.7466
  166DOPC   H7S20129   6.312   2.390   6.916 -0.7292 -0.3374  1.6263
  166DOPC   C2820130   6.504   2.340   6.839 -0.0555  0.1040  0.7803
  166DOPC   H8R20131   6.604   2.317   6.882  1.7386 -0.5107 -3.2990
  166DOPC   H8S20132   6.536   2.414   6.763 -1.0231  1.4828  1.6625
  166DOPC   C2920133   6.455   2.217   6.771  0.3941  0.4639 -0.3000
  166DOPC   H9R20134   6.482   2.125   6.825  0.5481  1.3943  1.2764
  166DOPC  C21020135   6.389   2.203   6.654  0.1198 -0.9723 -0.1892
  166DOPC  H10R20136   6.370   2.103   6.611  0.8729 -1.3213  0.2545
  166DOPC  C21120137   6.355   2.327   6.578 -0.4929 -0.3845  0.4644
  166DOPC  H11R20138   6.449   2.381   6.553  0.0819 -0.4711  2.3161
  166DOPC  H11S20139   6.297   2.399   6.640 -0.6181  0.7365 -0.8948
  166DOPC  C21220140   6.285   2.294   6.444 -0.2495  0.8258  0.0719
  166DOPC  H12R20141   6.189   2.240   6.456  0.4832 -0.4329  0.4585
  166DOPC  H12S20142   6.351   2.226   6.385 -0.4733  1.3008 -0.7464
  166DOPC  C21320143   6.268   2.419   6.364 -0.5241  0.4550  0.7233
  166DOPC  H13R20144   6.361   2.470   6.330  0.2154 -2.4998 -2.2445
  166DOPC  H13S20145   6.205   2.490   6.422 -1.8236 -0.5445  0.5740
  166DOPC  C21420146   6.181   2.396   6.238 -0.2117  0.2487  0.1121
  166DOPC  H14R20147   6.078   2.360   6.260  0.4474 -0.6116  2.0477
  166DOPC  H14S20148   6.228   2.313   6.182 -0.9928 -1.5108  1.9235
  166DOPC  C21520149   6.158   2.527   6.161 -0.1882 -0.3368  0.9206
  166DOPC  H15R20150   6.250   2.561   6.110 -0.0730 -1.6682  0.1693
  166DOPC  H15S20151   6.136   2.604   6.237 -3.1458  0.6207 -0.7341
  166DOPC  C21620152   6.039   2.522   6.059 -0.4498  0.6178 -0.5429
  166DOPC  H16R20153   5.949   2.495   6.119  0.3458 -0.1608  0.3239
  166DOPC  H16S20154   6.071   2.436   5.997  2.8071  1.7379 -0.5639
  166DOPC  C21720155   6.026   2.643   5.966  0.5490 -0.4864 -0.0779
  166DOPC  H17R20156   6.122   2.688   5.931  1.4431 -1.7645  0.6203
  166DOPC  H17S20157   5.991   2.726   6.032 -0.3313 -0.8752 -0.0386
  166DOPC  C21820158   5.934   2.623   5.846 -0.3834 -0.2604 -0.1165
  166DOPC  H18R20159   5.905   2.719   5.799 -1.5516 -1.4467 -1.9712
  166DOPC  H18S20160   5.838   2.578   5.880  0.5207 -0.7344  1.9972
  166DOPC  H18T20161   5.980   2.550   5.776  0.4132  1.0196 -0.9604
  166DOPC   C3320162   6.601   1.905   7.135 -0.5653  0.2507  0.7276
  166DOPC   H3X20163   6.553   1.890   7.036  1.8207 -1.1880 -0.2861
  166DOPC   H3Y20164   6.648   1.807   7.155 -2.1071 -0.9473 -1.1514
  166DOPC   C3420165   6.705   2.006   7.112 -0.6183 -0.4856  0.3416
  166DOPC   H4X20166   6.767   1.988   7.203  1.9976 -4.0094 -1.8378
  166DOPC   H4Y20167   6.675   2.112   7.102  0.8789 -0.1602 -1.1660
  166DOPC   C3520168   6.800   1.963   6.994 -0.3929 -0.4365  0.1572
  166DOPC   H5X20169   6.814   1.854   7.012 -1.5505 -0.3403  1.9193
  166DOPC   H5Y20170   6.890   2.021   7.022 -0.5823 -0.3753  0.6431
  166DOPC   C3620171   6.760   2.013   6.860 -0.4035 -0.1127  0.0140
  166DOPC   H6X20172   6.662   1.964   6.841  0.0151 -1.0825  0.2680
  166DOPC   H6Y20173   6.744   2.123   6.867 -2.1606 -0.4294  1.5328
  166DOPC   C3720174   6.865   1.973   6.752  0.4504  0.4064 -0.1817
  166DOPC   H7X20175   6.947   2.047   6.768  0.2668  0.5086  0.2895
  166DOPC   H7Y20176   6.914   1.874   6.762  0.6055  0.4528 -0.4539
  166DOPC   C3820177   6.809   1.978   6.612  0.6231 -0.6801  0.5158
  166DOPC   H8X20178   6.720   1.911   6.614 -1.3077  1.6466 -0.8938
  166DOPC   H8Y20179   6.886   1.929   6.549  2.2531 -0.9037  2.5761
  166DOPC   C3920180   6.761   2.111   6.558  0.1630  0.2973  0.8177
  166DOPC   H9X20181   6.742   2.185   6.638  0.1671  1.4159 -0.1966
  166DOPC  C31020182   6.708   2.144   6.441 -0.7262  0.1951  0.4162
  166DOPC  H10X20183   6.674   2.247   6.423  0.1034  0.5597  0.8676
  166DOPC  C31120184   6.679   2.049   6.328 -0.2511  0.4065  0.4598
  166DOPC  H11X20185   6.580   2.000   6.339  0.7197 -1.7950 -0.1049
  166DOPC  H11Y20186   6.757   1.970   6.331  0.0032  0.6157 -0.3953
  166DOPC  C31220187   6.667   2.130   6.200 -0.0569 -0.3962  0.4073
  166DOPC  H12X20188   6.748   2.202   6.176 -0.4747 -0.6136 -1.8828
  166DOPC  H12Y20189   6.570   2.185   6.205 -0.7139 -1.6220  1.9378
  166DOPC  C31320190   6.652   2.038   6.080  0.1652  0.2997 -0.4451
  166DOPC  H13X20191   6.737   1.967   6.091 -2.3720 -2.5600  3.0569
  166DOPC  H13Y20192   6.569   1.968   6.103  0.0217  0.7291  0.3930
  166DOPC  C31420193   6.646   2.096   5.943 -0.6305 -0.2914 -0.5162
  166DOPC  H14X20194   6.549   2.141   5.914  0.3976  1.6143 -1.2366
  166DOPC  H14Y20195   6.717   2.182   5.949 -0.3912 -0.5611  0.7430
  166DOPC  C31520196   6.695   1.994   5.842 -0.0130 -0.2801 -0.4088
  166DOPC  H15X20197   6.642   1.897   5.858 -1.2769  0.5617  0.7231
  166DOPC  H15Y20198   6.802   1.979   5.871  0.0476  0.4531 -0.2307
  166DOPC  C31620199   6.682   2.041   5.698  0.0737 -0.2257 -0.5835
  166DOPC  H16X20200   6.581   2.014   5.660  1.0617 -1.9261 -2.1131
  166DOPC  H16Y20201   6.686   2.152   5.692 -0.7236 -0.1521 -0.0409
  166DOPC  C31720202   6.785   1.974   5.606 -0.2484  0.3239 -0.2152
  166DOPC  H17X20203   6.887   1.984   5.651 -0.0640 -3.1031  0.3838
  166DOPC  H17Y20204   6.767   1.864   5.601  0.9598  0.1035 -0.1782
  166DOPC  C31820205   6.786   2.027   5.465  0.0448 -0.2678 -0.3281
  166DOPC  H18X20206   6.829   1.953   5.394 -0.5133 -1.0371  0.1165
  166DOPC  H18Y20207   6.681   2.052   5.438 -0.3843  0.4162  1.7911
  166DOPC  H18Z20208   6.830   2.129   5.459 -1.2239  0.2343 -1.6696
  167DOPC     N20209   6.333   1.492   8.276 -0.1551 -0.6062  0.1952
  167DOPC   C1220210   6.406   1.451   8.149 -0.2215 -0.2554  0.3648
  167DOPC  H12A20211   6.484   1.377   8.161  1.6957  1.6494  0.2266
  167DOPC  H12B20212   6.463   1.539   8.124  0.5238 -0.3111  1.7732
  167DOPC   C1320213   6.405   1.596   8.356 -0.3174 -0.2071 -0.1518
  167DOPC  H13A20214   6.333   1.662   8.402  1.4001 -0.8147  3.8235
  167DOPC  H13B20215   6.459   1.556   8.441  0.4784  0.6020 -0.2650
  167DOPC  H13C20216   6.476   1.655   8.300 -0.4191 -0.1577 -0.2278
  167DOPC   C1420217   6.299   1.368   8.355 -0.7204  0.0206 -0.5230
  167DOPC  H14A20218   6.392   1.321   8.384  1.0910  1.4926 -3.5341
  167DOPC  H14B20219   6.238   1.391   8.441  0.1679 -0.0108  0.1299
  167DOPC  H14C20220   6.250   1.285   8.305  1.6660 -0.4993 -2.1731
  167DOPC   C1520221   6.205   1.562   8.257 -0.1209  0.3121  1.0750
  167DOPC  H15A20222   6.141   1.499   8.198 -1.5231  1.0136  1.7892
  167DOPC  H15B20223   6.227   1.654   8.206  2.1006 -0.3257  0.7997
  167DOPC  H15C20224   6.162   1.581   8.355  0.3212 -1.7650  1.7288
  167DOPC   C1120225   6.324   1.420   8.014 -0.3907  0.2637  0.0914
  167DOPC  H11A20226   6.397   1.391   7.935  1.2634  1.3582  1.1476
  167DOPC  H11B20227   6.268   1.327   8.037 -0.0577 -0.1645 -0.7670
  167DOPC     P20228   6.306   1.651   7.900  0.3135 -0.2291  0.1494
  167DOPC   O1320229   6.448   1.673   7.948  0.2395 -0.3442 -0.0186
  167DOPC   O1420230   6.216   1.768   7.913  0.1272  0.1552 -0.0619
  167DOPC   O1220231   6.234   1.526   7.969  0.0734 -0.2273  0.0931
  167DOPC   O1120232   6.308   1.612   7.747  0.1682  0.2255  0.4123
  167DOPC    C120233   6.182   1.609   7.675 -0.0354  0.3434  0.0515
  167DOPC    HA20234   6.196   1.682   7.592  0.2545  0.3945  0.1438
  167DOPC    HB20235   6.096   1.642   7.737  0.5745  1.6579  0.2299
  167DOPC    C220236   6.148   1.471   7.610 -0.6309  0.5511 -0.3020
  167DOPC    HS20237   6.129   1.400   7.693  1.7595 -1.6664 -1.5099
  167DOPC   O2120238   6.263   1.420   7.528 -0.2205  0.1409  0.1921
  167DOPC   C2120239   6.270   1.289   7.503  0.0840  0.5070 -0.1797
  167DOPC   O2220240   6.201   1.200   7.548  0.3119 -0.1846 -0.5796
  167DOPC   C2220241   6.386   1.264   7.399  0.1845  0.3312 -0.5979
  167DOPC   H2R20242   6.474   1.280   7.464  0.2888 -1.2658 -0.3250
  167DOPC   H2S20243   6.385   1.343   7.320 -1.4878 -0.9240 -1.9105
  167DOPC    C320244   6.018   1.482   7.516 -0.4369  0.3299 -0.2073
  167DOPC    HX20245   5.942   1.515   7.590 -0.1512 -0.2697  0.3634
  167DOPC    HY20246   6.000   1.376   7.490  1.3244 -0.1516  0.3435
  167DOPC   O3120247   6.040   1.574   7.404  0.3079 -0.6616  0.4770
  167DOPC   C3120248   6.067   1.519   7.290  0.4320  0.3637 -0.4901
  167DOPC   O3220249   6.067   1.400   7.263 -1.0073  0.0013 -0.4628
  167DOPC   C3220250   6.105   1.624   7.182  0.1606 -0.4787 -0.3489
  167DOPC   H2X20251   6.008   1.669   7.149  1.1727  1.7183 -0.5084
  167DOPC   H2Y20252   6.163   1.705   7.231  0.4207 -1.4548  0.9926
  167DOPC   C2320253   6.372   1.121   7.341 -0.5560 -0.5701 -0.1997
  167DOPC   H3R20254   6.330   1.054   7.419  0.9222 -0.1339  1.0110
  167DOPC   H3S20255   6.465   1.071   7.307 -0.2320  0.5341 -0.9644
  167DOPC   C2420256   6.301   1.136   7.204  0.6385  0.1759 -0.4870
  167DOPC   H4R20257   6.203   1.185   7.222  1.1725  0.5243  1.8589
  167DOPC   H4S20258   6.284   1.034   7.164  1.4244 -0.7703  1.4666
  167DOPC   C2520259   6.386   1.207   7.099  0.0748  0.0482 -0.4801
  167DOPC   H5R20260   6.489   1.166   7.094 -0.1492 -0.5495 -0.2421
  167DOPC   H5S20261   6.396   1.315   7.124  1.3443 -0.3354  0.7636
  167DOPC   C2620262   6.327   1.196   6.962 -0.0879 -0.5301  0.1588
  167DOPC   H6R20263   6.227   1.244   6.964  0.1248 -0.0829  0.4034
  167DOPC   H6S20264   6.311   1.088   6.944 -2.0519 -0.1007 -0.9398
  167DOPC   C2720265   6.420   1.261   6.857  0.0781  0.1170 -0.0418
  167DOPC   H7R20266   6.516   1.207   6.866 -0.3305 -0.7575 -0.7795
  167DOPC   H7S20267   6.435   1.364   6.896 -1.5566 -0.4558  2.2818
  167DOPC   C2820268   6.358   1.252   6.717 -0.2660  0.4651  0.6001
  167DOPC   H8R20269   6.294   1.338   6.689  1.3329  2.1978  2.0076
  167DOPC   H8S20270   6.297   1.160   6.706  1.5826 -0.8596  0.8487
  167DOPC   C2920271   6.470   1.228   6.612  0.4205  0.5546 -0.4849
  167DOPC   H9R20272   6.564   1.203   6.664  0.6554 -1.0786 -1.6512
  167DOPC  C21020273   6.479   1.251   6.478  0.6201 -0.1671 -0.6243
  167DOPC  H10R20274   6.577   1.219   6.439  0.2592 -1.3336 -0.6230
  167DOPC  C21120275   6.380   1.305   6.377 -0.1175 -1.0027  0.0282
  167DOPC  H11R20276   6.435   1.368   6.303 -0.2946 -2.2635 -1.2285
  167DOPC  H11S20277   6.302   1.370   6.422  1.2641  2.6634 -2.3950
  167DOPC  C21220278   6.310   1.200   6.289  0.0974  0.0153 -0.0079
  167DOPC  H12R20279   6.393   1.156   6.229  0.4639  0.3484  0.2445
  167DOPC  H12S20280   6.250   1.123   6.341  2.1853 -0.3878  1.9616
  167DOPC  C21320281   6.205   1.259   6.201 -0.0329 -0.4246 -0.0809
  167DOPC  H13R20282   6.243   1.358   6.168 -2.3581 -0.1618 -2.2686
  167DOPC  H13S20283   6.117   1.288   6.262  0.1773 -0.7594  0.3912
  167DOPC  C21420284   6.147   1.160   6.096  0.2231 -0.7811  0.4141
  167DOPC  H14R20285   6.078   1.097   6.157 -0.7729 -0.1816 -0.0707
  167DOPC  H14S20286   6.227   1.093   6.057 -0.5592 -2.6527  1.8076
  167DOPC  C21520287   6.076   1.229   5.970  0.9920  0.0225  0.4533
  167DOPC  H15R20288   6.137   1.315   5.935  1.3053 -0.0691  0.7683
  167DOPC  H15S20289   5.980   1.275   6.001  1.5473  0.7796  1.0942
  167DOPC  C21620290   6.053   1.137   5.855  0.0491  0.6449  0.1279
  167DOPC  H16R20291   5.981   1.055   5.873  0.5451  0.0046 -0.7307
  167DOPC  H16S20292   6.154   1.102   5.825  0.3347  0.7669  0.9276
  167DOPC  C21720293   6.001   1.210   5.734  0.0246 -0.2995 -0.1488
  167DOPC  H17R20294   6.074   1.286   5.698  0.9199 -0.9381  0.2772
  167DOPC  H17S20295   5.908   1.263   5.764 -1.0384 -1.3140 -1.4987
  167DOPC  C21820296   5.968   1.115   5.608  0.0923  0.7271 -0.0084
  167DOPC  H18R20297   6.067   1.068   5.587 -0.4003  0.3595 -1.5941
  167DOPC  H18S20298   5.922   1.169   5.523 -2.0029 -0.6592  0.1619
  167DOPC  H18T20299   5.889   1.044   5.642 -0.8673  1.3933 -0.8012
  167DOPC   C3320300   6.179   1.562   7.062 -0.2014  0.3247  0.4009
  167DOPC   H3X20301   6.113   1.479   7.028 -1.7858  1.5941  0.2641
  167DOPC   H3Y20302   6.275   1.521   7.099 -1.2404 -1.2880  1.4659
  167DOPC   C3420303   6.193   1.665   6.952  0.4823 -0.1278  0.2584
  167DOPC   H4X20304   6.232   1.760   6.994  2.2695 -0.5901 -0.2329
  167DOPC   H4Y20305   6.094   1.694   6.914  0.4699 -0.2382  0.2038
  167DOPC   C3520306   6.286   1.615   6.833  0.2174  0.1103 -0.4306
  167DOPC   H5X20307   6.242   1.532   6.774  2.6174 -0.5975 -1.3129
  167DOPC   H5Y20308   6.376   1.575   6.883 -0.3040 -1.5183 -0.7580
  167DOPC   C3620309   6.311   1.724   6.731  0.3123 -0.0610  0.1198
  167DOPC   H6X20310   6.216   1.768   6.694  0.0505 -0.8911 -0.2325
  167DOPC   H6Y20311   6.360   1.812   6.777 -0.5925  0.4138  0.2023
  167DOPC   C3720312   6.395   1.687   6.606  0.1232 -0.8078  0.4512
  167DOPC   H7X20313   6.498   1.659   6.637  0.2337 -0.1042  0.7335
  167DOPC   H7Y20314   6.358   1.591   6.563 -1.0079  0.0287 -0.5347
  167DOPC   C3820315   6.402   1.814   6.515  0.2507  0.6545  0.1461
  167DOPC   H8X20316   6.484   1.783   6.447 -1.2825  0.1089 -1.5318
  167DOPC   H8Y20317   6.430   1.902   6.577 -1.6165 -0.1422  2.2640
  167DOPC   C3920318   6.284   1.839   6.430 -0.7356 -0.4310 -0.0251
  167DOPC   H9X20319   6.217   1.911   6.481 -2.4357 -3.4182  2.2965
  167DOPC  C31020320   6.259   1.804   6.298  0.7536  0.1150 -0.4951
  167DOPC  H10X20321   6.172   1.834   6.237  0.3565 -0.9397 -0.4836
  167DOPC  C31120322   6.356   1.722   6.218  0.2993  0.1339  0.7606
  167DOPC  H11X20323   6.367   1.619   6.259  1.1410  0.0866  0.4375
  167DOPC  H11Y20324   6.461   1.754   6.237  1.6788 -1.9703 -2.3990
  167DOPC  C31220325   6.324   1.702   6.071  0.1424 -0.4045 -0.3927
  167DOPC  H12X20326   6.235   1.637   6.061 -1.3433  1.1368  1.8805
  167DOPC  H12Y20327   6.409   1.648   6.025  0.2641 -1.0997  0.6209
  167DOPC  C31320328   6.289   1.824   5.992 -0.2131 -0.9659 -0.5454
  167DOPC  H13X20329   6.187   1.856   6.025  1.4308  3.6391  0.9084
  167DOPC  H13Y20330   6.358   1.909   6.014 -2.0116  0.2064  0.9587
  167DOPC  C31420331   6.277   1.795   5.845  0.1036  0.3335 -0.0241
  167DOPC  H14X20332   6.372   1.755   5.803  0.9244  0.1947  1.8691
  167DOPC  H14Y20333   6.203   1.716   5.820 -0.6942  0.9045  0.4865
  167DOPC  C31520334   6.238   1.914   5.758 -0.0171 -0.1163 -0.1069
  167DOPC  H15X20335   6.283   2.007   5.799 -2.7387  1.9415 -1.4286
  167DOPC  H15Y20336   6.127   1.923   5.752 -0.1537 -2.3208 -3.3153
  167DOPC  C31620337   6.280   1.881   5.608 -0.7714 -0.2962  0.8326
  167DOPC  H16X20338   6.389   1.862   5.621  0.2857  0.5616 -4.2871
  167DOPC  H16Y20339   6.227   1.792   5.568 -0.0536 -0.0065 -0.8729
  167DOPC  C31720340   6.274   2.001   5.510 -0.3242 -0.2783  0.1176
  167DOPC  H17X20341   6.337   2.085   5.548  1.3815 -1.8289  0.8716
  167DOPC  H17Y20342   6.324   1.967   5.417  0.0677  2.4589 -0.7712
  167DOPC  C31820343   6.131   2.043   5.465 -0.4241 -0.4763  0.0440
  167DOPC  H18X20344   6.075   1.956   5.425  0.1679 -0.0464 -1.7857
  167DOPC  H18Y20345   6.069   2.068   5.555  0.1555  0.2499  0.2561
  167DOPC  H18Z20346   6.135   2.121   5.386  1.1919 -1.0344 -0.4465
  168DOPC     N20347   2.024   0.824   7.150  0.2067 -0.2763 -0.2471
  168DOPC   C1220348   2.169   0.869   7.133  0.1543 -0.4062 -0.5224
  168DOPC  H12A20349   2.217   0.863   7.230  0.3782  0.6746 -0.5507
  168DOPC  H12B20350   2.163   0.975   7.109  1.2078 -0.4186 -0.9240
  168DOPC   C1320351   2.023   0.678   7.172 -0.1807 -0.1861 -0.5620
  168DOPC  H13A20352   1.924   0.637   7.186 -0.2988  0.3306  0.1790
  168DOPC  H13B20353   2.074   0.632   7.089  0.4002 -0.9543  0.2046
  168DOPC  H13C20354   2.071   0.660   7.267  0.0948  1.6323 -0.3146
  168DOPC   C1420355   1.936   0.843   7.029 -0.3504 -0.2729  0.7706
  168DOPC  H14A20356   1.970   0.765   6.963 -1.7209 -1.0280  0.9261
  168DOPC  H14B20357   1.830   0.838   7.051 -0.2390  0.3851  1.5056
  168DOPC  H14C20358   1.940   0.943   6.988 -1.1581  0.4580  2.3714
  168DOPC   C1520359   1.960   0.893   7.272 -0.2623  0.8691 -0.4297
  168DOPC  H15A20360   2.004   0.848   7.361  0.6132 -0.4499 -1.4854
  168DOPC  H15B20361   1.856   0.863   7.275 -0.3636  1.1836 -0.7954
  168DOPC  H15C20362   1.960   1.000   7.280  2.0079  0.8101  1.5381
  168DOPC   C1120363   2.247   0.796   7.017  0.0685 -0.0720  0.4236
  168DOPC  H11A20364   2.198   0.810   6.918  1.3640 -0.6304 -0.3149
  168DOPC  H11B20365   2.346   0.844   6.999  0.4297 -0.8306  0.3592
  168DOPC     P20366   2.269   0.546   6.930 -0.0759  0.3867  0.3528
  168DOPC   O1320367   2.146   0.564   6.855  0.0914  0.2561 -0.4311
  168DOPC   O1420368   2.285   0.414   6.992  0.3752  0.9210  0.2637
  168DOPC   O1220369   2.273   0.656   7.045  0.1699 -0.0994 -0.2616
  168DOPC   O1120370   2.393   0.582   6.839 -0.5056 -0.1006  0.6540
  168DOPC    C120371   2.379   0.672   6.727 -0.1212 -0.4997 -0.7986
  168DOPC    HA20372   2.452   0.750   6.757  0.0240 -0.4934 -1.1645
  168DOPC    HB20373   2.277   0.715   6.712 -0.1504 -0.8493 -1.6972
  168DOPC    C220374   2.435   0.616   6.599  0.1368  0.4561  0.0536
  168DOPC    HS20375   2.521   0.555   6.634  1.1781  1.3159 -0.9138
  168DOPC   O2120376   2.486   0.730   6.527  0.0300  0.1197  0.2753
  168DOPC   C2120377   2.592   0.717   6.458  0.1160 -0.4839  0.1609
  168DOPC   O2220378   2.658   0.613   6.448  0.5597  0.3022 -0.1699
  168DOPC   C2220379   2.615   0.847   6.376 -0.2556 -0.5088  0.7369
  168DOPC   H2R20380   2.669   0.919   6.441  1.2802 -2.1292  1.3381
  168DOPC   H2S20381   2.517   0.888   6.341  1.5025  0.7955 -3.1891
  168DOPC    C320382   2.329   0.540   6.522  0.6550 -0.0764  0.0353
  168DOPC    HX20383   2.240   0.605   6.505 -1.9988 -3.7501 -1.6680
  168DOPC    HY20384   2.294   0.462   6.593  3.1474 -0.8552  0.5152
  168DOPC   O3120385   2.382   0.488   6.397 -0.1785  0.5750  0.7633
  168DOPC   C3120386   2.450   0.372   6.408  0.1976  0.7524  0.2946
  168DOPC   O3220387   2.471   0.313   6.510  0.5761  0.1498 -0.0429
  168DOPC   C3220388   2.488   0.315   6.266 -0.3186 -0.5214 -0.2368
  168DOPC   H2X20389   2.526   0.212   6.283  0.4177 -0.4903 -1.5414
  168DOPC   H2Y20390   2.398   0.309   6.201 -1.3886 -0.1660  1.1636
  168DOPC   C2320391   2.716   0.836   6.249  0.4565  0.5853 -0.2991
  168DOPC   H3R20392   2.675   0.757   6.183  1.9316  0.6029 -1.2683
  168DOPC   H3S20393   2.819   0.802   6.273  0.2492  1.7718  2.7076
  168DOPC   C2420394   2.696   0.959   6.156 -0.3521  0.2093  0.4070
  168DOPC   H4R20395   2.730   1.053   6.204 -0.9856  0.5038  0.2839
  168DOPC   H4S20396   2.588   0.966   6.130 -0.0753 -0.8977 -1.2366
  168DOPC   C2520397   2.779   0.935   6.026  1.0085  0.1273  0.7458
  168DOPC   H5R20398   2.770   0.828   5.999  0.6066  0.4124 -0.3017
  168DOPC   H5S20399   2.886   0.960   6.042  0.8068  0.9640  0.8542
  168DOPC   C2620400   2.742   1.015   5.902  0.4086  0.3517 -0.5538
  168DOPC   H6R20401   2.764   1.122   5.921  2.2200 -0.1321  0.3147
  168DOPC   H6S20402   2.637   1.002   5.867  0.0808 -1.0384  0.8286
  168DOPC   C2720403   2.834   0.984   5.779 -0.1545 -0.0322  0.0332
  168DOPC   H7R20404   2.779   0.910   5.717 -1.9423  0.7248  0.6475
  168DOPC   H7S20405   2.929   0.937   5.813 -0.4594  0.1998  1.2842
  168DOPC   C2820406   2.864   1.110   5.690  0.5027  0.6502 -0.0627
  168DOPC   H8R20407   2.929   1.178   5.749  2.3406  0.7706 -2.0978
  168DOPC   H8S20408   2.768   1.163   5.671 -0.4678  0.5881  3.8843
  168DOPC   C2920409   2.943   1.061   5.570  0.2916  0.5799 -0.5112
  168DOPC   H9R20410   3.051   1.056   5.588  0.4516 -1.7043 -1.7547
  168DOPC  C21020411   2.900   1.045   5.443  0.1023 -0.6713  0.3004
  168DOPC  H10R20412   2.967   0.997   5.371  0.5647  0.7730 -0.2704
  168DOPC  C21120413   2.759   1.081   5.395 -0.4075  0.0517 -0.7954
  168DOPC  H11R20414   2.756   1.190   5.379 -1.4649  0.3138  0.9466
  168DOPC  H11S20415   2.680   1.063   5.471  1.1812  1.5368  1.3300
  168DOPC  C21220416   2.719   1.014   5.259 -0.3216 -0.7773  0.4511
  168DOPC  H12R20417   2.616   1.051   5.240 -0.5720 -0.9931  1.3434
  168DOPC  H12S20418   2.717   0.904   5.271  2.5671 -0.9947 -0.3361
  168DOPC  C21320419   2.807   1.049   5.140  0.2351  0.5723  0.0990
  168DOPC  H13R20420   2.889   0.975   5.127 -0.5602  0.0496 -2.5441
  168DOPC  H13S20421   2.848   1.152   5.147 -1.0116  1.1121 -0.2286
  168DOPC  C21420422   2.731   1.022   5.007  0.0443  0.3491  0.8550
  168DOPC  H14R20423   2.634   1.076   5.010 -0.9250 -1.3687  2.7853
  168DOPC  H14S20424   2.701   0.915   4.996  2.1178 -0.2362  0.4385
  168DOPC  C21520425   2.799   1.072   4.874  0.1823  0.3572 -0.2279
  168DOPC  H15R20426   2.903   1.103   4.900  0.1007  0.3645  0.0922
  168DOPC  H15S20427   2.749   1.167   4.846 -0.1195  0.8063  1.6957
  168DOPC  C21620428   2.803   0.962   4.757  0.3157 -0.9775  0.1903
  168DOPC  H16R20429   2.698   0.945   4.723  0.2052  1.9650 -1.2117
  168DOPC  H16S20430   2.842   0.873   4.810 -0.9903 -1.1562  0.8812
  168DOPC  C21720431   2.900   1.005   4.642 -0.3473  0.9455  0.0999
  168DOPC  H17R20432   2.870   1.109   4.618 -0.2767  1.4915  2.2186
  168DOPC  H17S20433   2.884   0.938   4.554 -0.6446 -2.2013  2.3734
  168DOPC  C21820434   3.046   1.005   4.678 -0.0896  0.1724 -0.2963
  168DOPC  H18R20435   3.103   1.069   4.607  0.9760 -1.4762 -0.9911
  168DOPC  H18S20436   3.098   0.907   4.673 -1.6351 -0.6449 -1.3740
  168DOPC  H18T20437   3.062   1.039   4.783 -1.6514 -0.2685  0.1030
  168DOPC   C3320438   2.612   0.394   6.206  0.2489  0.5463  0.1189
  168DOPC   H3X20439   2.690   0.408   6.283  3.0173 -0.6326 -2.2982
  168DOPC   H3Y20440   2.573   0.493   6.172  0.4045  1.2624  1.9257
  168DOPC   C3420441   2.686   0.315   6.094 -0.0130 -0.0828  0.5784
  168DOPC   H4X20442   2.692   0.214   6.140 -1.7656 -0.3475  0.2902
  168DOPC   H4Y20443   2.786   0.360   6.079 -0.6267  0.9272 -0.7505
  168DOPC   C3520444   2.608   0.307   5.959  0.2377 -0.3758  0.0205
  168DOPC   H5X20445   2.597   0.409   5.917  0.9658  0.5159  1.8785
  168DOPC   H5Y20446   2.510   0.259   5.976  0.5503 -1.2224 -0.4668
  168DOPC   C3620447   2.679   0.218   5.859 -0.0126 -0.4244  0.5925
  168DOPC   H6X20448   2.773   0.256   5.812  0.1304 -0.3654  0.9204
  168DOPC   H6Y20449   2.702   0.114   5.891  0.2605 -1.4049 -2.5139
  168DOPC   C3720450   2.587   0.192   5.735 -0.0408 -0.5356 -0.8300
  168DOPC   H7X20451   2.491   0.142   5.759 -0.2037 -0.0660 -0.4776
  168DOPC   H7Y20452   2.559   0.287   5.685  0.4545 -0.6646 -1.3620
  168DOPC   C3820453   2.656   0.103   5.628 -0.2882 -0.0555 -0.5679
  168DOPC   H8X20454   2.681   0.006   5.676 -3.8099 -1.2171 -0.8027
  168DOPC   H8Y20455   2.750   0.153   5.596  0.5849 -2.1918 -1.4578
  168DOPC   C3920456   2.561   0.069   5.516  0.6225  0.2756 -0.1451
  168DOPC   H9X20457   2.465   0.034   5.556  0.3468  2.6512  1.5019
  168DOPC  C31020458   2.594   0.060   5.389 -0.3094 -0.0998  0.2090
  168DOPC  H10X20459   2.511   0.033   5.321 -0.1231 -1.6552  0.5754
  168DOPC  C31120460   2.724   0.081   5.316 -0.1715  0.5668  0.4716
  168DOPC  H11X20461   2.761  -0.023   5.308 -1.6714  0.1246 -1.6903
  168DOPC  H11Y20462   2.784   0.141   5.388  0.5148  0.5456 -0.0755
  168DOPC  C31220463   2.705   0.154   5.185  0.1165 -0.9329 -0.4092
  168DOPC  H12X20464   2.806   0.189   5.152 -1.4206  2.7315 -1.7076
  168DOPC  H12Y20465   2.655   0.246   5.220 -1.8191 -1.2170 -2.1923
  168DOPC  C31320466   2.609   0.094   5.084 -0.2390  0.6310  0.7056
  168DOPC  H13X20467   2.511   0.057   5.122 -1.1167  0.3120 -1.6694
  168DOPC  H13Y20468   2.586   0.173   5.009  0.3113  1.6702  1.6053
  168DOPC  C31420469   2.668  -0.028   5.004  0.3398  0.6883 -0.3582
  168DOPC  H14X20470   2.755  -0.012   4.937 -0.1936 -1.4159 -1.6367
  168DOPC  H14Y20471   2.708  -0.095   5.084  0.6093  2.1276  0.7519
  168DOPC  C31520472   2.552  -0.106   4.931  0.0575  0.4226 -0.5030
  168DOPC  H15X20473   2.594  -0.148   4.837  0.9983 -3.7031  1.5131
  168DOPC  H15Y20474   2.478  -0.030   4.898 -0.9795 -1.0666 -1.7746
  168DOPC  C31620475   2.498  -0.223   5.014  0.1113  0.1266  0.1364
  168DOPC  H16X20476   2.584  -0.278   5.058  1.0695  1.6091  0.1957
  168DOPC  H16Y20477   2.447  -0.182   5.104 -0.9842 -2.7230  0.9268
  168DOPC  C31720478   2.402  -0.310   4.934 -0.3927  0.0818  0.5195
  168DOPC  H17X20479   2.326  -0.235   4.904  1.2099  0.2594 -3.7623
  168DOPC  H17Y20480   2.449  -0.346   4.841 -3.0083 -1.9843 -0.1164
  168DOPC  C31820481   2.357  -0.434   5.019  0.1358 -0.2684 -0.1934
  168DOPC  H18X20482   2.302  -0.394   5.107 -3.0392  0.5200 -2.3452
  168DOPC  H18Y20483   2.271  -0.476   4.961 -0.6675  0.2612  0.5791
  168DOPC  H18Z20484   2.437  -0.509   5.037  1.7446  0.9240 -2.0190
  169DOPC     N20485   7.074   1.480   7.475 -0.2413  0.3320 -0.0509
  169DOPC   C1220486   7.227   1.492   7.490 -0.2816 -0.6106 -0.2096
  169DOPC  H12A20487   7.264   1.413   7.554 -0.9370  0.3912  1.4681
  169DOPC  H12B20488   7.238   1.582   7.548 -2.1329  0.7684 -1.8569
  169DOPC   C1320489   7.024   1.585   7.393  0.1295 -0.4231  0.8502
  169DOPC  H13A20490   7.100   1.628   7.329  0.0146 -1.3404  0.0832
  169DOPC  H13B20491   6.933   1.554   7.344 -0.3245  0.5158  1.0757
  169DOPC  H13C20492   7.007   1.672   7.455 -1.0828  1.0674 -1.4148
  169DOPC   C1420493   7.000   1.480   7.608 -0.0833  0.2101 -0.4396
  169DOPC  H14A20494   7.021   1.567   7.667 -1.4160  0.6099 -0.5424
  169DOPC  H14B20495   6.894   1.487   7.593 -0.0139  1.7248 -0.3130
  169DOPC  H14C20496   7.033   1.396   7.668  0.0371  1.5907  1.4832
  169DOPC   C1520497   7.051   1.345   7.409 -0.1152 -0.8343 -0.1254
  169DOPC  H15A20498   6.958   1.351   7.356  0.5920  0.5560 -1.2946
  169DOPC  H15B20499   7.054   1.263   7.479 -0.0984  0.4019  1.3885
  169DOPC  H15C20500   7.128   1.324   7.336  1.4391 -1.8294  1.7120
  169DOPC   C1120501   7.312   1.509   7.362  0.3339  0.7533  0.3351
  169DOPC  H11A20502   7.265   1.592   7.305 -1.4535  0.0629  0.7315
  169DOPC  H11B20503   7.414   1.549   7.378  0.8131 -0.1732 -0.3202
  169DOPC     P20504   7.407   1.268   7.286 -0.2746 -0.0841  0.0073
  169DOPC   O1320505   7.341   1.155   7.349  0.3922  0.3185 -0.2351
  169DOPC   O1420506   7.535   1.317   7.348  0.1472 -0.1965 -0.6469
  169DOPC   O1220507   7.306   1.390   7.284 -0.1040 -0.2993  0.0944
  169DOPC   O1120508   7.435   1.243   7.128  0.0349  0.0793  0.6576
  169DOPC    C120509   7.326   1.243   7.031  0.1570 -0.2836  0.0987
  169DOPC    HA20510   7.231   1.294   7.057  0.0398 -0.4931  0.0835
  169DOPC    HB20511   7.291   1.142   7.003 -1.4831  0.5048 -0.8647
  169DOPC    C220512   7.382   1.300   6.896 -0.0478  0.5402 -0.0766
  169DOPC    HS20513   7.464   1.228   6.874  0.5443  0.1068  3.0212
  169DOPC   O2120514   7.429   1.433   6.923 -0.1170 -0.2231  0.2378
  169DOPC   C2120515   7.534   1.464   6.848 -0.1140  0.1510 -0.2400
  169DOPC   O2220516   7.591   1.387   6.770  1.0064 -0.0145 -0.5704
  169DOPC   C2220517   7.576   1.613   6.876 -0.0797  0.5422  0.0711
  169DOPC   H2R20518   7.686   1.632   6.874 -0.1238  1.5688  2.8287
  169DOPC   H2S20519   7.551   1.643   6.980 -0.5868  1.4595 -0.2998
  169DOPC    C320520   7.274   1.294   6.783  0.0597 -1.1955  0.1799
  169DOPC    HX20521   7.187   1.354   6.819  0.1507  0.1568 -1.7141
  169DOPC    HY20522   7.232   1.193   6.765 -1.8202 -0.6489  1.2246
  169DOPC   O3120523   7.306   1.356   6.660 -0.3098  0.9589  0.3726
  169DOPC   C3120524   7.379   1.287   6.568  0.6077 -0.0424 -0.1972
  169DOPC   O3220525   7.412   1.171   6.591  0.3619 -0.2638 -0.0013
  169DOPC   C3220526   7.417   1.373   6.451  0.1294  0.3719 -0.5001
  169DOPC   H2X20527   7.350   1.459   6.429  0.4206  0.4892 -0.9426
  169DOPC   H2Y20528   7.507   1.425   6.489  0.9177 -0.9769 -0.4615
  169DOPC   C2320529   7.500   1.712   6.784 -0.5410 -0.0779 -0.1387
  169DOPC   H3R20530   7.516   1.813   6.827 -0.5668 -0.2199  0.2090
  169DOPC   H3S20531   7.391   1.690   6.793 -0.3723 -0.5370  0.8716
  169DOPC   C2420532   7.549   1.713   6.639 -0.0514  0.1644 -0.6045
  169DOPC   H4R20533   7.559   1.608   6.605 -1.6313  0.8654 -3.6582
  169DOPC   H4S20534   7.648   1.763   6.647 -0.1279 -0.0254  2.5203
  169DOPC   C2520535   7.461   1.797   6.541 -0.1756 -0.6465 -0.3761
  169DOPC   H5R20536   7.465   1.903   6.574  5.0414 -0.2490 -1.5313
  169DOPC   H5S20537   7.357   1.759   6.552  0.0670 -0.9955  0.8685
  169DOPC   C2620538   7.501   1.795   6.391 -0.4710  0.2830 -0.1660
  169DOPC   H6R20539   7.521   1.691   6.359 -0.9408 -0.2799  1.2919
  169DOPC   H6S20540   7.595   1.854   6.394 -0.1016 -0.2796 -0.6099
  169DOPC   C2720541   7.385   1.854   6.313 -0.4443 -0.3413 -0.5458
  169DOPC   H7R20542   7.364   1.962   6.328  1.3236  0.2761 -2.1405
  169DOPC   H7S20543   7.303   1.788   6.348 -0.6358  0.6609  1.0271
  169DOPC   C2820544   7.413   1.846   6.162  0.5518 -0.0425  0.1995
  169DOPC   H8R20545   7.505   1.907   6.154  1.0938 -0.8164  0.3940
  169DOPC   H8S20546   7.326   1.896   6.115 -0.5711  1.4117  3.4644
  169DOPC   C2920547   7.446   1.711   6.096 -0.0298 -0.1942  0.2351
  169DOPC   H9R20548   7.543   1.669   6.127  0.7205  0.0885 -1.5887
  169DOPC  C21020549   7.363   1.634   6.016 -1.2625  0.5712 -0.1806
  169DOPC  H10R20550   7.399   1.547   5.959 -3.0160  0.5236 -1.2849
  169DOPC  C21120551   7.220   1.659   5.974  0.0454  0.0036  0.1003
  169DOPC  H11R20552   7.177   1.757   6.005 -1.4530 -0.3248 -0.8570
  169DOPC  H11S20553   7.157   1.575   6.010  0.9096 -1.0783 -0.8270
  169DOPC  C21220554   7.199   1.653   5.820 -0.3946 -0.2888 -0.5494
  169DOPC  H12R20555   7.269   1.581   5.772  1.7575  0.9864  0.5281
  169DOPC  H12S20556   7.236   1.752   5.785 -1.2338  1.4751  3.0774
  169DOPC  C21320557   7.053   1.634   5.768  0.7380 -0.3290  0.1842
  169DOPC  H13R20558   6.980   1.706   5.813 -0.1959  0.4140 -2.3406
  169DOPC  H13S20559   7.015   1.536   5.802 -0.0080 -0.0448  0.1875
  169DOPC  C21420560   7.038   1.669   5.623 -0.6309 -0.5996 -0.0262
  169DOPC  H14R20561   7.117   1.613   5.569  0.4888  0.5722  0.3305
  169DOPC  H14S20562   7.034   1.779   5.605  0.1730 -0.9724 -2.9115
  169DOPC  C21520563   6.901   1.619   5.572  0.0238  0.1203 -0.1399
  169DOPC  H15R20564   6.812   1.669   5.616 -0.2808 -0.6544  0.1372
  169DOPC  H15S20565   6.888   1.516   5.610  3.1170 -0.6955 -0.9654
  169DOPC  C21620566   6.880   1.623   5.423  0.9659 -0.4910 -0.0621
  169DOPC  H16R20567   6.954   1.572   5.358 -0.2660 -0.0942 -1.8662
  169DOPC  H16S20568   6.883   1.727   5.382 -2.5447 -0.4682 -0.6061
  169DOPC  C21720569   6.745   1.555   5.383  0.0274 -0.2370 -0.1722
  169DOPC  H17R20570   6.654   1.596   5.430 -1.0494  1.6259 -3.5082
  169DOPC  H17S20571   6.753   1.446   5.403  1.6842 -0.1093  0.0369
  169DOPC  C21820572   6.717   1.573   5.235 -0.3392  0.0242 -0.3343
  169DOPC  H18R20573   6.731   1.678   5.204  1.9859 -0.3852 -0.8555
  169DOPC  H18S20574   6.616   1.536   5.208 -0.6695  1.5595 -1.3167
  169DOPC  H18T20575   6.792   1.519   5.173  0.9009  0.9679  0.3154
  169DOPC   C3320576   7.432   1.299   6.314 -0.2176  0.2007  0.3547
  169DOPC   H3X20577   7.465   1.194   6.330  1.7980  0.4611 -1.5861
  169DOPC   H3Y20578   7.517   1.344   6.257  2.6003 -3.4881  1.2379
  169DOPC   C3420579   7.312   1.300   6.216 -0.1025  0.3027 -0.3336
  169DOPC   H4X20580   7.272   1.403   6.209  0.6178  0.5998 -0.1938
  169DOPC   H4Y20581   7.246   1.231   6.272  0.2417 -0.0653 -0.3753
  169DOPC   C3520582   7.348   1.237   6.084  0.2451  0.4644  0.5783
  169DOPC   H5X20583   7.390   1.136   6.103 -0.5064 -0.6075 -2.7142
  169DOPC   H5Y20584   7.436   1.285   6.035  2.4327 -3.2157  0.4340
  169DOPC   C3620585   7.238   1.219   5.982 -0.0179 -0.2467 -0.5878
  169DOPC   H6X20586   7.168   1.165   6.050  0.3905  1.1368  1.0026
  169DOPC   H6Y20587   7.187   1.317   5.967  1.6857  1.0321  1.4542
  169DOPC   C3720588   7.271   1.147   5.850 -0.6946 -0.2469 -0.2564
  169DOPC   H7X20589   7.362   1.202   5.819 -0.7718 -0.6040 -1.1225
  169DOPC   H7Y20590   7.297   1.047   5.890  1.0020  0.3438  0.1778
  169DOPC   C3820591   7.167   1.138   5.740 -0.1177  0.0483 -0.8438
  169DOPC   H8X20592   7.077   1.090   5.783  0.0281  1.7090  1.5066
  169DOPC   H8Y20593   7.211   1.064   5.670  0.0250 -0.7981  0.1104
  169DOPC   C3920594   7.138   1.268   5.669 -0.3565 -0.3914 -0.5447
  169DOPC   H9X20595   7.121   1.347   5.744 -1.8070 -0.4593 -0.7815
  169DOPC  C31020596   7.143   1.296   5.537  0.1831 -0.2514 -0.2784
  169DOPC  H10X20597   7.124   1.400   5.507 -1.3234 -0.4801 -0.1893
  169DOPC  C31120598   7.186   1.213   5.421 -0.3239 -0.2667 -0.5378
  169DOPC  H11X20599   7.102   1.211   5.349 -1.5859  2.4350  0.6881
  169DOPC  H11Y20600   7.197   1.107   5.452 -0.4157  0.0534  0.6531
  169DOPC  C31220601   7.308   1.266   5.333 -0.4183  0.5864  0.0040
  169DOPC  H12X20602   7.305   1.199   5.245 -2.2528  1.0313 -0.3311
  169DOPC  H12Y20603   7.404   1.268   5.388  0.1827  1.3904 -1.0390
  169DOPC  C31320604   7.293   1.411   5.273 -0.2009 -0.3591  0.5362
  169DOPC  H13X20605   7.186   1.424   5.245 -0.2249 -1.5948 -0.0035
  169DOPC  H13Y20606   7.300   1.469   5.368 -0.5045 -0.5107  0.6557
  169DOPC  C31420607   7.405   1.439   5.166  0.1439  0.1851 -0.0234
  169DOPC  H14X20608   7.507   1.419   5.204  0.6299  0.2897 -1.2321
  169DOPC  H14Y20609   7.382   1.374   5.078 -1.0887 -1.8610  1.7231
  169DOPC  C31520610   7.394   1.582   5.141 -0.3517 -0.0186  0.0103
  169DOPC  H15X20611   7.398   1.643   5.233 -1.2023 -1.5267  1.0925
  169DOPC  H15Y20612   7.295   1.605   5.095 -1.4018 -0.7168  1.8157
  169DOPC  C31620613   7.505   1.632   5.051 -0.0259 -0.0632 -0.4296
  169DOPC  H16X20614   7.602   1.619   5.103  0.1775  0.1030 -0.7625
  169DOPC  H16Y20615   7.521   1.560   4.967 -1.7230 -1.4415  0.3534
  169DOPC  C31720616   7.498   1.779   5.023  0.3959  0.2306 -0.3530
  169DOPC  H17X20617   7.402   1.816   4.982 -0.4777 -2.1612 -0.6534
  169DOPC  H17Y20618   7.514   1.820   5.126  0.6057  1.1958 -0.7607
  169DOPC  C31820619   7.612   1.843   4.940 -0.1344 -0.3048 -0.0299
  169DOPC  H18X20620   7.620   1.952   4.959 -0.8927 -0.4366  1.1498
  169DOPC  H18Y20621   7.714   1.807   4.963  0.7928  1.0213 -1.8137
  169DOPC  H18Z20622   7.594   1.826   4.832 -0.4307  2.3676 -0.4699
  170DOPC     N20623   6.809   0.828   7.898 -0.0532  0.2446  0.1978
  170DOPC   C1220624   6.847   0.738   7.774  0.8300  0.1551 -0.7490
  170DOPC  H12A20625   6.765   0.671   7.755  0.6131  0.5227 -1.1224
  170DOPC  H12B20626   6.927   0.671   7.801 -1.3707 -1.9747  0.8808
  170DOPC   C1320627   6.670   0.884   7.881 -0.3636 -0.4908 -1.2451
  170DOPC  H13A20628   6.644   0.948   7.965  1.7992 -1.0130 -0.1063
  170DOPC  H13B20629   6.649   0.944   7.793 -0.5538  0.9711 -0.2472
  170DOPC  H13C20630   6.592   0.810   7.884 -0.0520 -0.8097  1.0052
  170DOPC   C1420631   6.910   0.933   7.924  0.0467 -0.0798 -0.3127
  170DOPC  H14A20632   6.892   1.012   7.995  2.4621 -0.6159  1.0003
  170DOPC  H14B20633   7.009   0.890   7.929 -1.1401 -3.2048 -1.0305
  170DOPC  H14C20634   6.914   0.986   7.830 -0.5464  0.6240  0.0475
  170DOPC   C1520635   6.808   0.732   8.012 -0.1410  0.3190 -0.2746
  170DOPC  H15A20636   6.799   0.791   8.102 -0.2131 -0.4033  0.1992
  170DOPC  H15B20637   6.893   0.667   8.027 -2.8690 -3.8465 -1.3270
  170DOPC  H15C20638   6.727   0.661   8.012 -0.0686  0.2101  1.2522
  170DOPC   C1120639   6.867   0.818   7.637  0.0751  0.3520  0.0180
  170DOPC  H11A20640   6.845   0.745   7.556  0.1636  0.7386 -0.3566
  170DOPC  H11B20641   6.783   0.890   7.623  0.5586  0.7864 -0.6610
  170DOPC     P20642   7.107   0.806   7.560 -0.0544 -0.1689  0.0965
  170DOPC   O1320643   7.103   0.665   7.601 -0.4305  0.2690 -0.2659
  170DOPC   O1420644   7.238   0.866   7.584  0.0886 -0.0021 -0.2800
  170DOPC   O1220645   6.996   0.885   7.634 -0.0691  0.2181 -0.0847
  170DOPC   O1120646   7.075   0.817   7.408  0.4773  0.7936 -0.0124
  170DOPC    C120647   7.068   0.947   7.350 -0.5564 -0.4038 -0.8167
  170DOPC    HA20648   7.164   0.999   7.372  0.0325 -1.5083 -0.6846
  170DOPC    HB20649   6.990   1.013   7.394  0.3709  1.6070 -2.0382
  170DOPC    C220650   7.053   0.948   7.200 -0.4065 -0.4634  0.9977
  170DOPC    HS20651   7.033   1.052   7.166  1.1535 -0.1337  0.9856
  170DOPC   O2120652   6.949   0.859   7.153  0.5004 -0.2065  0.6041
  170DOPC   C2120653   6.827   0.894   7.185 -0.2168  0.1761  0.1960
  170DOPC   O2220654   6.800   1.003   7.231 -0.3417  0.0220 -0.2104
  170DOPC   C2220655   6.729   0.784   7.144 -0.3075  0.0917  0.2546
  170DOPC   H2R20656   6.636   0.799   7.204 -0.1701 -0.0368  0.5013
  170DOPC   H2S20657   6.781   0.694   7.181  2.0435  1.7300  1.1570
  170DOPC    C320658   7.185   0.914   7.133  0.8241 -0.2365 -0.1343
  170DOPC    HX20659   7.214   0.816   7.175 -1.2505 -0.8316  0.0472
  170DOPC    HY20660   7.264   0.985   7.164  0.6713  0.4407 -1.2362
  170DOPC   O3120661   7.171   0.908   6.988  1.1830 -0.9175 -0.3330
  170DOPC   C3120662   7.230   0.814   6.920 -0.1702 -0.2793 -0.7067
  170DOPC   O3220663   7.316   0.740   6.966 -0.1455 -0.2233  0.0475
  170DOPC   C3220664   7.197   0.830   6.774 -0.0421  0.0751 -0.1527
  170DOPC   H2X20665   7.088   0.826   6.752  0.1815  0.6266 -1.4630
  170DOPC   H2Y20666   7.233   0.928   6.737 -0.5250  0.4293  0.2937
  170DOPC   C2320667   6.721   0.764   6.986 -0.5570  0.3659  1.1523
  170DOPC   H3R20668   6.650   0.681   6.967  0.6723 -0.7834  1.4229
  170DOPC   H3S20669   6.821   0.722   6.962  0.2472  0.2628  4.2464
  170DOPC   C2420670   6.692   0.895   6.914  0.0909  0.3013  0.4115
  170DOPC   H4R20671   6.763   0.980   6.919 -0.4161  0.9754 -2.2492
  170DOPC   H4S20672   6.597   0.929   6.959  0.1300  0.5847  0.2787
  170DOPC   C2520673   6.659   0.875   6.766 -0.2141  0.1503 -0.0088
  170DOPC   H5R20674   6.586   0.946   6.722  0.3154  0.4316 -0.4430
  170DOPC   H5S20675   6.602   0.780   6.758 -2.5088  1.4495 -0.0643
  170DOPC   C2620676   6.777   0.874   6.672 -0.0813  0.1005 -0.1370
  170DOPC   H6R20677   6.863   0.832   6.728 -0.4559  0.1940  0.5264
  170DOPC   H6S20678   6.801   0.981   6.654  2.7131  0.0004  2.2494
  170DOPC   C2720679   6.728   0.794   6.542 -0.5142 -1.0097 -0.3541
  170DOPC   H7R20680   6.622   0.811   6.515 -0.1523  0.8144 -0.7291
  170DOPC   H7S20681   6.748   0.685   6.556 -1.6137 -1.0759  0.8583
  170DOPC   C2820682   6.814   0.829   6.414  0.3214 -0.3158 -0.4869
  170DOPC   H8R20683   6.922   0.807   6.425  0.3113  0.1993  0.8013
  170DOPC   H8S20684   6.813   0.940   6.413  1.0762 -0.1760  2.4874
  170DOPC   C2920685   6.767   0.757   6.292 -0.2062 -0.2714 -0.6808
  170DOPC   H9R20686   6.748   0.649   6.296 -1.0936 -0.0960  0.1166
  170DOPC  C21020687   6.746   0.806   6.167  0.1424  0.3104 -0.4246
  170DOPC  H10R20688   6.689   0.750   6.092 -1.3926  1.1824  0.0429
  170DOPC  C21120689   6.769   0.948   6.128 -0.4422 -0.0408  0.4689
  170DOPC  H11R20690   6.871   0.981   6.099 -0.8213  3.9582  2.8934
  170DOPC  H11S20691   6.748   1.010   6.218 -0.0309  1.3237 -0.3387
  170DOPC  C21220692   6.667   1.006   6.027 -0.2312 -0.1419  0.7353
  170DOPC  H12R20693   6.706   1.108   6.004  0.3476 -0.2742  1.1125
  170DOPC  H12S20694   6.567   1.018   6.074 -0.8521  1.7640 -0.8947
  170DOPC  C21320695   6.638   0.926   5.901 -0.1691 -0.7253 -0.4948
  170DOPC  H13R20696   6.554   0.976   5.848  1.4777  0.9567 -1.6273
  170DOPC  H13S20697   6.603   0.824   5.928  0.1231 -1.7688 -3.6068
  170DOPC  C21420698   6.753   0.916   5.799  0.0153  0.2696 -0.7223
  170DOPC  H14R20699   6.840   0.859   5.838 -1.9108 -2.0248  0.5252
  170DOPC  H14S20700   6.780   1.019   5.767 -0.7037  0.9096  0.6419
  170DOPC  C21520701   6.709   0.837   5.667  0.3910 -0.3449 -0.5154
  170DOPC  H15R20702   6.612   0.884   5.640  0.8117  0.7368 -0.2052
  170DOPC  H15S20703   6.680   0.734   5.696 -1.3593  0.3833  0.4528
  170DOPC  C21620704   6.807   0.849   5.551 -0.6578  0.0075 -0.1028
  170DOPC  H16R20705   6.891   0.778   5.566  0.4135  1.1107 -0.6279
  170DOPC  H16S20706   6.843   0.954   5.547  0.7039 -0.4791 -3.3288
  170DOPC  C21720707   6.735   0.830   5.419 -0.1319  0.3198 -0.9772
  170DOPC  H17R20708   6.814   0.850   5.343  0.0306 -0.1867 -0.9474
  170DOPC  H17S20709   6.650   0.901   5.414  0.9218  1.6504 -0.5743
  170DOPC  C21820710   6.683   0.687   5.390  0.0751 -0.2864 -0.2423
  170DOPC  H18R20711   6.763   0.612   5.371  0.4979  0.2030 -0.4397
  170DOPC  H18S20712   6.612   0.690   5.305  0.2238 -0.1288 -0.3612
  170DOPC  H18T20713   6.626   0.652   5.479 -0.0039 -0.3670 -0.3245
  170DOPC   C3320714   7.256   0.715   6.690 -0.5951  0.1234  0.0634
  170DOPC   H3X20715   7.216   0.616   6.721 -1.3777  0.6843  0.8928
  170DOPC   H3Y20716   7.366   0.715   6.705  0.0514 -0.0860 -3.7122
  170DOPC   C3420717   7.235   0.725   6.536 -0.3308  0.1276 -0.1957
  170DOPC   H4X20718   7.132   0.690   6.513 -0.3465 -0.0753  0.1756
  170DOPC   H4Y20719   7.315   0.669   6.484  0.5583  2.1537 -1.1143
  170DOPC   C3520720   7.249   0.872   6.479  0.6388 -0.5404 -0.0587
  170DOPC   H5X20721   7.319   0.930   6.543  1.3834  1.0253 -2.1836
  170DOPC   H5Y20722   7.153   0.921   6.508 -1.2753 -3.8291 -0.3739
  170DOPC   C3620723   7.282   0.883   6.331 -0.0616  1.3139  0.1111
  170DOPC   H6X20724   7.329   0.979   6.298 -0.7467  1.4726 -0.4275
  170DOPC   H6Y20725   7.354   0.801   6.312 -0.3773  1.4112 -1.7015
  170DOPC   C3720726   7.165   0.847   6.228 -0.1118 -0.0754 -0.2100
  170DOPC   H7X20727   7.124   0.747   6.253 -0.7529  0.8456  2.8092
  170DOPC   H7Y20728   7.081   0.919   6.224 -0.1561 -0.1412 -0.4647
  170DOPC   C3820729   7.227   0.847   6.085  0.5062  0.0108 -0.5402
  170DOPC   H8X20730   7.306   0.769   6.089  2.5722  1.9642  3.7703
  170DOPC   H8Y20731   7.280   0.944   6.073  0.4061  0.2721  1.0266
  170DOPC   C3920732   7.115   0.834   5.985  0.8878 -0.2856  0.0884
  170DOPC   H9X20733   7.023   0.889   6.009  0.6019  0.0612 -1.6446
  170DOPC  C31020734   7.120   0.759   5.867  0.4309  0.0973 -0.1107
  170DOPC  H10X20735   7.030   0.749   5.805 -0.9292  0.2827  1.7514
  170DOPC  C31120736   7.240   0.679   5.821  0.4890 -0.0643  0.5271
  170DOPC  H11X20737   7.217   0.572   5.803  0.4149  0.2832 -1.7114
  170DOPC  H11Y20738   7.316   0.684   5.902  1.1119 -2.0036  0.1197
  170DOPC  C31220739   7.292   0.742   5.691 -1.0529  0.9653 -0.1431
  170DOPC  H12X20740   7.381   0.682   5.661 -1.0301  1.2215 -0.5977
  170DOPC  H12Y20741   7.322   0.848   5.701 -3.0788  1.6879 -1.0900
  170DOPC  C31320742   7.192   0.738   5.573  0.0067 -0.4566  0.9760
  170DOPC  H13X20743   7.159   0.634   5.554  0.0087 -0.3119  0.1645
  170DOPC  H13Y20744   7.101   0.797   5.598  0.8931  1.1395  0.6193
  170DOPC  C31420745   7.256   0.786   5.435 -0.2512 -0.4892 -0.8077
  170DOPC  H14X20746   7.324   0.868   5.465 -0.2991 -0.4102 -0.9124
  170DOPC  H14Y20747   7.321   0.707   5.392  0.0615 -0.7106  0.0525
  170DOPC  C31520748   7.150   0.844   5.342 -0.9744 -0.4748 -0.8892
  170DOPC  H15X20749   7.193   0.906   5.260 -1.1319  0.7072 -0.1153
  170DOPC  H15Y20750   7.085   0.914   5.400  0.2186 -0.1846  0.1331
  170DOPC  C31620751   7.070   0.731   5.286 -0.0040 -0.7130 -0.1269
  170DOPC  H16X20752   7.127   0.638   5.262 -0.0713 -0.2059 -2.5578
  170DOPC  H16Y20753   6.993   0.703   5.360  1.3262 -0.3670  1.4373
  170DOPC  C31720754   6.998   0.767   5.151 -0.5080 -0.1341  0.0159
  170DOPC  H17X20755   6.936   0.856   5.175  0.6350  0.7590 -0.1906
  170DOPC  H17Y20756   7.073   0.803   5.077  1.0343  1.8879  2.3958
  170DOPC  C31820757   6.925   0.655   5.084  0.3214 -0.1060 -0.6482
  170DOPC  H18X20758   6.869   0.680   4.992 -0.5383  1.1190  0.1778
  170DOPC  H18Y20759   6.987   0.563   5.071  0.6917  0.3270 -2.1019
  170DOPC  H18Z20760   6.851   0.621   5.160  1.5288 -1.3815 -0.0060
  171DOPC     N20761   2.084   3.803   2.527 -0.1375 -0.4284  0.9084
  171DOPC   C1220762   2.038   3.672   2.580 -0.0143 -0.2054  0.7670
  171DOPC  H12A20763   2.122   3.612   2.613 -0.7991 -3.2730 -2.2316
  171DOPC  H12B20764   1.995   3.619   2.496 -0.1172  2.1977 -0.7986
  171DOPC   C1320765   2.196   3.779   2.426  0.3987  0.1893 -0.3572
  171DOPC  H13A20766   2.157   3.717   2.347 -0.0843  0.3904 -0.2787
  171DOPC  H13B20767   2.233   3.871   2.383  3.7088  0.6060  2.8727
  171DOPC  H13C20768   2.282   3.730   2.470  0.1195  0.4606  0.5229
  171DOPC   C1420769   2.138   3.898   2.637 -0.4525 -0.0078  0.3050
  171DOPC  H14A20770   2.058   3.934   2.700 -1.9031 -0.9828 -0.8986
  171DOPC  H14B20771   2.212   3.841   2.690 -2.5142 -2.8017  0.3906
  171DOPC  H14C20772   2.189   3.984   2.595  1.8787 -0.4919  1.9619
  171DOPC   C1520773   1.976   3.880   2.455  0.1518  0.2372  0.0728
  171DOPC  H15A20774   1.886   3.889   2.515 -0.4398 -2.9025 -0.1421
  171DOPC  H15B20775   1.941   3.822   2.371 -0.6099  0.1031  0.4735
  171DOPC  H15C20776   2.009   3.982   2.440 -2.7740  1.0982 -1.1983
  171DOPC   C1120777   1.931   3.680   2.693 -0.5680 -0.3050 -0.1203
  171DOPC  H11A20778   1.926   3.588   2.756  1.6976 -0.0741  0.5007
  171DOPC  H11B20779   1.964   3.764   2.758  1.6736 -0.1271 -1.3982
  171DOPC     P20780   1.727   3.614   2.556  0.1078 -0.3921 -0.0325
  171DOPC   O1320781   1.817   3.545   2.457  0.2836 -1.1664 -0.1463
  171DOPC   O1420782   1.604   3.670   2.496  0.1265  0.5404  0.0647
  171DOPC   O1220783   1.809   3.718   2.633 -0.1829 -0.6033  0.0380
  171DOPC   O1120784   1.690   3.517   2.669 -0.0791  0.6029 -0.4250
  171DOPC    C120785   1.587   3.551   2.758  0.3186 -0.2030  0.1442
  171DOPC    HA20786   1.498   3.496   2.720  0.6006 -0.6780  0.1594
  171DOPC    HB20787   1.564   3.659   2.762 -3.9384 -0.9454  0.5021
  171DOPC    C220788   1.610   3.504   2.905 -0.3512 -0.6265 -0.1454
  171DOPC    HS20789   1.509   3.495   2.950 -0.0795  0.2336  0.6821
  171DOPC   O2120790   1.687   3.606   2.971 -0.1160 -0.8139  0.4223
  171DOPC   C2120791   1.612   3.706   3.011 -0.3079  0.4043 -0.2126
  171DOPC   O2220792   1.490   3.715   3.008  0.7237 -0.3391 -0.7020
  171DOPC   C2220793   1.702   3.817   3.061 -0.1512 -0.2851  0.3542
  171DOPC   H2R20794   1.680   3.910   3.004 -2.1351 -0.7314  0.3188
  171DOPC   H2S20795   1.807   3.792   3.037 -0.0894 -0.0472  0.3802
  171DOPC    C320796   1.683   3.368   2.905 -0.4215 -0.2117 -0.1246
  171DOPC    HX20797   1.781   3.365   2.853 -0.4178 -0.4877 -0.1055
  171DOPC    HY20798   1.615   3.296   2.853  0.4545 -1.8867  0.9430
  171DOPC   O3120799   1.705   3.325   3.039 -0.4631  0.1171 -0.2589
  171DOPC   C3120800   1.823   3.352   3.100 -0.0455 -0.2618  0.8558
  171DOPC   O3220801   1.927   3.401   3.053  0.6748  0.0453  0.0672
  171DOPC   C3220802   1.815   3.286   3.239 -0.0230 -0.2744  0.1711
  171DOPC   H2X20803   1.804   3.176   3.224 -0.5736 -0.3506  1.0599
  171DOPC   H2Y20804   1.909   3.304   3.296  0.4820 -1.2634 -0.3158
  171DOPC   C2320805   1.673   3.869   3.209  0.0866  0.3786  0.4908
  171DOPC   H3R20806   1.565   3.894   3.210 -0.1849 -0.6970 -0.1167
  171DOPC   H3S20807   1.727   3.965   3.225 -0.4940  0.8074 -0.1022
  171DOPC   C2420808   1.709   3.776   3.328  0.6099  0.2694  0.6525
  171DOPC   H4R20809   1.818   3.756   3.318  0.6385  1.3508 -1.9935
  171DOPC   H4S20810   1.643   3.690   3.306  0.9497  0.1705  0.0049
  171DOPC   C2520811   1.668   3.826   3.468  0.6012 -0.9067  0.6756
  171DOPC   H5R20812   1.569   3.877   3.464  0.0301 -1.9518  1.0267
  171DOPC   H5S20813   1.736   3.904   3.508 -0.3947  0.5533 -0.3562
  171DOPC   C2620814   1.680   3.715   3.572  0.6220 -0.2988 -0.1973
  171DOPC   H6R20815   1.788   3.703   3.593  1.2280  2.3511 -1.4471
  171DOPC   H6S20816   1.642   3.618   3.532  0.9901  0.2944 -2.1091
  171DOPC   C2720817   1.607   3.746   3.704  0.4580  0.0236  0.8307
  171DOPC   H7R20818   1.498   3.763   3.691  0.6072 -0.0891 -0.7766
  171DOPC   H7S20819   1.641   3.847   3.735 -2.7039  1.3492  0.3718
  171DOPC   C2820820   1.642   3.643   3.815  0.0151 -0.7403  0.3120
  171DOPC   H8R20821   1.753   3.629   3.808 -0.0805 -1.8174  0.6593
  171DOPC   H8S20822   1.604   3.543   3.785  0.4720 -1.2267  1.2855
  171DOPC   C2920823   1.595   3.683   3.955  0.8737  0.0850 -0.0728
  171DOPC   H9R20824   1.486   3.685   3.963  0.7507  0.6405 -1.5911
  171DOPC  C21020825   1.671   3.703   4.066 -0.5324  0.0276  0.2221
  171DOPC  H10R20826   1.616   3.707   4.162  0.5290  2.0760  0.8225
  171DOPC  C21120827   1.818   3.683   4.076 -0.7111  0.0026  0.0665
  171DOPC  H11R20828   1.855   3.610   4.000  1.2842 -0.1109  1.0843
  171DOPC  H11S20829   1.853   3.640   4.172  0.0064 -0.5675 -0.4377
  171DOPC  C21220830   1.890   3.817   4.057 -0.0213 -0.2728 -0.0801
  171DOPC  H12R20831   1.859   3.876   4.146  3.0158  0.6490  0.5028
  171DOPC  H12S20832   1.870   3.861   3.957  2.4999 -1.8713 -1.4099
  171DOPC  C21320833   2.042   3.806   4.061 -0.4103  0.1049 -0.3014
  171DOPC  H13R20834   2.073   3.738   3.979  1.7044  1.5112 -0.7469
  171DOPC  H13S20835   2.084   3.763   4.154 -0.4206 -0.7965 -0.6968
  171DOPC  C21420836   2.099   3.945   4.026 -0.0051  0.2301 -0.3378
  171DOPC  H14R20837   2.042   3.985   3.940  0.1195  2.1634  0.4385
  171DOPC  H14S20838   2.207   3.928   4.009  0.2436  2.7049 -1.5705
  171DOPC  C21520839   2.097   4.048   4.146  0.5102 -0.1056 -0.0680
  171DOPC  H15R20840   1.989   4.072   4.153  0.1961 -1.1889 -0.8767
  171DOPC  H15S20841   2.140   4.146   4.117 -0.1414  0.7766  1.8365
  171DOPC  C21620842   2.161   4.010   4.280  1.2249  0.1061  0.1549
  171DOPC  H16R20843   2.253   3.951   4.259 -0.2149 -1.8006 -1.1248
  171DOPC  H16S20844   2.089   3.937   4.323  0.0118  0.8277 -0.5865
  171DOPC  C21720845   2.189   4.129   4.368 -1.3910 -0.1219  0.0776
  171DOPC  H17R20846   2.092   4.171   4.401 -1.6736 -1.6669  1.3224
  171DOPC  H17S20847   2.251   4.197   4.305  0.8118 -2.3410 -0.2707
  171DOPC  C21820848   2.289   4.087   4.479 -0.1056 -0.0289  0.4296
  171DOPC  H18R20849   2.383   4.047   4.437 -1.8300 -1.9274 -1.9145
  171DOPC  H18S20850   2.252   4.014   4.554  2.0257  2.7002  4.5524
  171DOPC  H18T20851   2.317   4.178   4.536  0.3977 -0.1480  0.3763
  171DOPC   C3320852   1.706   3.332   3.329  0.5673 -0.6977  0.2023
  171DOPC   H3X20853   1.611   3.339   3.273 -0.5745 -1.2392  1.9919
  171DOPC   H3Y20854   1.715   3.429   3.381 -1.0042 -0.2058 -0.4034
  171DOPC   C3420855   1.670   3.225   3.434 -0.9942 -0.3238  0.7773
  171DOPC   H4X20856   1.766   3.186   3.473 -0.7999  0.5593  1.1934
  171DOPC   H4Y20857   1.607   3.155   3.375 -0.5239 -0.5119  0.4892
  171DOPC   C3520858   1.582   3.289   3.544 -0.5273 -0.4502  0.4363
  171DOPC   H5X20859   1.503   3.347   3.491  0.1742  0.8309  0.7590
  171DOPC   H5Y20860   1.645   3.357   3.605 -0.2461  0.2266 -0.5827
  171DOPC   C3620861   1.514   3.182   3.621 -0.5919 -0.1718 -0.0433
  171DOPC   H6X20862   1.429   3.230   3.674 -0.3140 -0.3651  0.5884
  171DOPC   H6Y20863   1.466   3.101   3.564 -0.4718 -0.8723  0.8235
  171DOPC   C3720864   1.602   3.119   3.728 -0.1895  0.4624  0.5949
  171DOPC   H7X20865   1.689   3.067   3.684  0.5575  1.8279  0.4118
  171DOPC   H7Y20866   1.659   3.203   3.773  1.7939 -0.2928 -0.3838
  171DOPC   C3820867   1.521   3.052   3.841  0.4122  0.0103  0.3634
  171DOPC   H8X20868   1.477   2.966   3.786  0.2691  1.9165 -2.7585
  171DOPC   H8Y20869   1.437   3.112   3.881  0.4822 -0.6463  1.5573
  171DOPC   C3920870   1.614   3.001   3.948 -0.1634 -0.4949 -0.2091
  171DOPC   H9X20871   1.682   2.922   3.914  0.6480  0.9242 -2.0235
  171DOPC  C31020872   1.612   3.034   4.080  0.6309  0.2933  0.0489
  171DOPC  H10X20873   1.698   3.022   4.147  0.4504  0.5016  0.3173
  171DOPC  C31120874   1.513   3.132   4.144  0.1507  0.6570  0.4270
  171DOPC  H11X20875   1.505   3.111   4.253 -2.1292 -1.2106 -0.0180
  171DOPC  H11Y20876   1.407   3.122   4.111 -0.4136  2.6326  1.4404
  171DOPC  C31220877   1.560   3.282   4.126 -0.1615  0.6213  0.4591
  171DOPC  H12X20878   1.564   3.299   4.016  0.7492  0.4255  0.4553
  171DOPC  H12Y20879   1.665   3.288   4.159  1.0588 -1.6313 -2.5241
  171DOPC  C31320880   1.461   3.386   4.189  0.3339  0.9408 -0.4492
  171DOPC  H13X20881   1.475   3.482   4.136  0.7115  0.0158 -2.0994
  171DOPC  H13Y20882   1.353   3.360   4.183  0.3478 -0.8190  3.5776
  171DOPC  C31420883   1.476   3.392   4.342  0.6267  0.0882 -0.3631
  171DOPC  H14X20884   1.452   3.288   4.372  0.3008  0.5168  0.9045
  171DOPC  H14Y20885   1.579   3.410   4.378  0.2174 -0.0333  0.9160
  171DOPC  C31520886   1.397   3.498   4.418 -0.1905 -0.4243 -0.1915
  171DOPC  H15X20887   1.429   3.509   4.524 -0.6309 -1.5714  0.0651
  171DOPC  H15Y20888   1.288   3.482   4.405 -0.2855 -0.4782  0.6239
  171DOPC  C31620889   1.413   3.636   4.350 -0.3117  0.4261  0.0480
  171DOPC  H16X20890   1.519   3.667   4.362 -0.8119  1.6231  1.8351
  171DOPC  H16Y20891   1.381   3.636   4.244  1.8337  0.3361 -0.6625
  171DOPC  C31720892   1.331   3.741   4.438 -0.0960 -0.4534  0.2325
  171DOPC  H17X20893   1.228   3.700   4.446 -0.5516  0.3995 -0.9613
  171DOPC  H17Y20894   1.367   3.743   4.543 -0.7764  4.0254  0.5855
  171DOPC  C31820895   1.317   3.878   4.373  0.1252  0.3212  1.0747
  171DOPC  H18X20896   1.271   3.955   4.440 -0.7249  0.3049  0.5227
  171DOPC  H18Y20897   1.418   3.918   4.348  0.5733 -0.0857  2.1717
  171DOPC  H18Z20898   1.257   3.862   4.281  1.6723 -0.2465  0.1287
  172DOPC     N20899   3.742   6.259   2.769 -0.2700  0.1521 -0.3069
  172DOPC   C1220900   3.768   6.217   2.913 -0.0286 -0.3508 -0.2069
  172DOPC  H12A20901   3.753   6.303   2.977 -0.7343 -0.1875 -0.5803
  172DOPC  H12B20902   3.871   6.192   2.930 -0.0949 -0.7465 -0.3591
  172DOPC   C1320903   3.832   6.368   2.725 -0.6586  0.3348  0.0128
  172DOPC  H13A20904   3.848   6.375   2.618 -1.1367  1.5738  0.0069
  172DOPC  H13B20905   3.801   6.464   2.763 -1.7084 -0.7133  1.9591
  172DOPC  H13C20906   3.932   6.352   2.761  0.0705 -4.4345 -3.1736
  172DOPC   C1420907   3.607   6.311   2.754  0.3432 -0.2187 -0.2913
  172DOPC  H14A20908   3.581   6.391   2.822  0.1263 -0.6807  0.1782
  172DOPC  H14B20909   3.591   6.348   2.654 -1.9801 -0.3119  0.0017
  172DOPC  H14C20910   3.542   6.226   2.769 -1.0104  0.4782 -2.0049
  172DOPC   C1520911   3.771   6.137   2.685 -0.1322  0.0417 -0.7930
  172DOPC  H15A20912   3.742   6.149   2.582  0.0722 -0.0377 -0.8613
  172DOPC  H15B20913   3.711   6.056   2.725 -0.1079  0.6769  0.6072
  172DOPC  H15C20914   3.873   6.107   2.706 -0.4257  0.2070  1.0328
  172DOPC   C1120915   3.687   6.097   2.974  0.0494 -0.6313 -0.1218
  172DOPC  H11A20916   3.714   6.094   3.082 -1.1472 -2.5871  0.1616
  172DOPC  H11B20917   3.580   6.128   2.976 -0.1323 -1.2717  0.9177
  172DOPC     P20918   3.645   5.842   2.938  0.3171 -0.0503  0.4107
  172DOPC   O1320919   3.682   5.730   2.845  0.3452  0.3348 -0.9646
  172DOPC   O1420920   3.500   5.881   2.944 -0.3322 -0.0815  0.2724
  172DOPC   O1220921   3.723   5.977   2.910  0.1617  0.0848 -0.0473
  172DOPC   O1120922   3.699   5.814   3.079  0.1842  0.2924 -0.1603
  172DOPC    C120923   3.798   5.716   3.103  0.3622  0.6000  0.1658
  172DOPC    HA20924   3.892   5.743   3.051  0.3071  2.5743  0.9882
  172DOPC    HB20925   3.765   5.617   3.065  1.1041  0.1293  0.7134
  172DOPC    C220926   3.806   5.700   3.252 -0.2586 -0.6046  0.6478
  172DOPC    HS20927   3.815   5.804   3.288 -0.6600  0.3814 -1.8913
  172DOPC   O2120928   3.929   5.623   3.288  0.2199 -0.1208  0.1995
  172DOPC   C2120929   4.054   5.675   3.265  0.7903 -0.0746  0.4227
  172DOPC   O2220930   4.076   5.789   3.228  0.1736  0.4462 -0.8562
  172DOPC   C2220931   4.155   5.561   3.287  0.2271 -0.1119 -0.1224
  172DOPC   H2R20932   4.257   5.604   3.299  1.4818 -3.0758  0.8675
  172DOPC   H2S20933   4.156   5.501   3.194 -1.0240  0.4663 -0.5299
  172DOPC    C320934   3.684   5.627   3.316 -0.8730 -0.2496  0.2137
  172DOPC    HX20935   3.678   5.529   3.264  0.8559  1.1137 -2.8494
  172DOPC    HY20936   3.586   5.667   3.284  0.0960  1.5754 -0.6160
  172DOPC   O3120937   3.704   5.600   3.452  0.3627  0.0038  0.1909
  172DOPC   C3120938   3.712   5.696   3.539  0.3757  0.5676  0.2971
  172DOPC   O3220939   3.692   5.815   3.520 -0.1970  0.3935  0.0052
  172DOPC   C3220940   3.763   5.634   3.669  0.3948 -0.1246 -0.5900
  172DOPC   H2X20941   3.740   5.526   3.678  0.3954 -0.1972 -1.4180
  172DOPC   H2Y20942   3.872   5.653   3.675  0.3784 -0.2604  0.2959
  172DOPC   C2320943   4.127   5.465   3.405  0.0601 -0.4752 -0.0995
  172DOPC   H3R20944   4.036   5.408   3.378  0.6497 -2.1505  1.2541
  172DOPC   H3S20945   4.094   5.521   3.495 -0.4087 -2.3428  0.9524
  172DOPC   C2420946   4.240   5.374   3.445  0.0916 -0.2261  0.3766
  172DOPC   H4R20947   4.326   5.440   3.467 -1.4373  2.1403 -0.3802
  172DOPC   H4S20948   4.275   5.322   3.353 -0.6027  0.0477 -0.0573
  172DOPC   C2520949   4.215   5.261   3.548  1.0130  0.5495  0.1483
  172DOPC   H5R20950   4.296   5.185   3.552  2.5374  2.1347  1.3525
  172DOPC   H5S20951   4.131   5.206   3.502  1.7012  0.6788 -1.3268
  172DOPC   C2620952   4.162   5.305   3.685  0.7882  0.5661  1.1415
  172DOPC   H6R20953   4.126   5.225   3.753  0.5910  1.0020  1.5571
  172DOPC   H6S20954   4.062   5.349   3.664 -0.8363 -2.8345  1.0906
  172DOPC   C2720955   4.244   5.412   3.743 -0.2851 -0.7785  0.1651
  172DOPC   H7R20956   4.263   5.501   3.680 -0.7081 -0.0880  0.9907
  172DOPC   H7S20957   4.340   5.366   3.773  0.5685  0.5426 -0.4599
  172DOPC   C2820958   4.182   5.485   3.861 -0.0374  0.2448  0.0185
  172DOPC   H8R20959   4.087   5.532   3.828 -1.6914 -1.5442  1.9175
  172DOPC   H8S20960   4.244   5.572   3.893 -0.6228  0.4574  0.6099
  172DOPC   C2920961   4.143   5.383   3.970 -0.3533  0.7889 -0.1167
  172DOPC   H9R20962   4.041   5.342   3.957  0.0550  0.5045 -3.0641
  172DOPC  C21020963   4.220   5.355   4.076 -0.7307 -0.1261 -0.4553
  172DOPC  H10R20964   4.187   5.282   4.151  0.4786  0.8399  1.0638
  172DOPC  C21120965   4.364   5.410   4.106 -0.0676  0.4760 -0.2034
  172DOPC  H11R20966   4.415   5.423   4.009  0.1778 -4.2340 -0.9260
  172DOPC  H11S20967   4.425   5.337   4.163 -1.6434 -0.7323  0.0253
  172DOPC  C21220968   4.349   5.543   4.186 -0.1929 -0.0017  0.5692
  172DOPC  H12R20969   4.267   5.610   4.151 -1.6185 -1.9433 -0.0147
  172DOPC  H12S20970   4.448   5.585   4.157 -0.6286 -1.0853 -3.0467
  172DOPC  C21320971   4.350   5.521   4.338  0.4157  0.3681 -0.0074
  172DOPC  H13R20972   4.429   5.446   4.359  1.0721  0.7621 -1.0079
  172DOPC  H13S20973   4.257   5.463   4.359 -0.8481  1.9125 -1.0981
  172DOPC  C21420974   4.356   5.653   4.420  0.7048 -0.3190 -0.5829
  172DOPC  H14R20975   4.274   5.714   4.377  2.5655  1.7489 -1.3870
  172DOPC  H14S20976   4.449   5.713   4.420  1.2844 -1.1805 -1.0639
  172DOPC  C21520977   4.321   5.626   4.568  0.5033 -0.2209  0.2378
  172DOPC  H15R20978   4.350   5.710   4.635 -1.1977  0.4157  0.2281
  172DOPC  H15S20979   4.382   5.540   4.602  1.3865  0.2300 -0.1690
  172DOPC  C21620980   4.166   5.606   4.584 -0.0468  0.3277 -0.1599
  172DOPC  H16R20981   4.127   5.532   4.511  1.1214 -0.8014  0.3247
  172DOPC  H16S20982   4.111   5.698   4.552 -1.7113 -0.1518  1.1584
  172DOPC  C21720983   4.116   5.550   4.715 -0.4762 -0.2586 -0.4586
  172DOPC  H17R20984   4.160   5.606   4.800  0.4093  0.1837 -1.1869
  172DOPC  H17S20985   4.161   5.449   4.730  1.9228  0.7881 -0.1526
  172DOPC  C21820986   3.963   5.540   4.712 -0.3275 -0.2230 -0.6212
  172DOPC  H18R20987   3.923   5.476   4.630 -1.3683  1.0067 -1.1113
  172DOPC  H18S20988   3.921   5.643   4.708 -1.1686 -0.3831  2.0180
  172DOPC  H18T20989   3.934   5.502   4.812 -0.1050  0.8990 -0.1220
  172DOPC   C3320990   3.693   5.700   3.795 -0.6225 -0.7108 -0.2368
  172DOPC   H3X20991   3.582   5.705   3.785 -0.6345  0.5271  0.3024
  172DOPC   H3Y20992   3.729   5.805   3.795  0.5972 -1.0530 -2.8561
  172DOPC   C3420993   3.726   5.623   3.932  0.1016 -0.3767  0.2922
  172DOPC   H4X20994   3.834   5.645   3.951  0.1502  1.1394 -1.4184
  172DOPC   H4Y20995   3.700   5.515   3.923  1.4552 -0.6206 -1.0145
  172DOPC   C3520996   3.643   5.672   4.047 -0.4010  0.2115  0.1362
  172DOPC   H5X20997   3.536   5.675   4.020 -0.3764  1.2141  0.0969
  172DOPC   H5Y20998   3.679   5.775   4.072 -1.5933  0.3869  1.2226
  172DOPC   C3620999   3.667   5.603   4.187  0.5351  0.9087 -0.1152
  172DOPC   H6X21000   3.603   5.647   4.266  2.5668  0.0204  2.1692
  172DOPC   H6Y21001   3.639   5.496   4.172 -1.2366  1.1495  1.1717
  172DOPC   C3721002   3.809   5.603   4.235 -0.1346 -0.1513 -0.2663
  172DOPC   H7X21003   3.886   5.551   4.174  0.4345 -0.5569  0.7744
  172DOPC   H7Y21004   3.842   5.708   4.246  0.8369 -0.6610  2.6455
  172DOPC   C3821005   3.819   5.534   4.366 -0.0687 -0.2549  0.0847
  172DOPC   H8X21006   3.751   5.582   4.441  2.8257 -0.5013  3.0763
  172DOPC   H8Y21007   3.916   5.555   4.416 -1.3238  1.4992  1.9949
  172DOPC   C3921008   3.789   5.384   4.374  0.1217  0.1724 -0.1701
  172DOPC   H9X21009   3.866   5.322   4.326 -0.8522 -0.9148 -0.3517
  172DOPC  C31021010   3.691   5.318   4.441 -0.5140 -0.1959 -0.4792
  172DOPC  H10X21011   3.707   5.212   4.465  0.8384  0.0715 -0.1380
  172DOPC  C31121012   3.577   5.377   4.519 -0.1951 -0.0326 -0.6427
  172DOPC  H11X21013   3.492   5.307   4.501 -2.2345  2.1316  0.0587
  172DOPC  H11Y21014   3.553   5.477   4.476 -1.9883 -0.8014 -1.5462
  172DOPC  C31221015   3.617   5.379   4.667 -0.0832 -0.0243  0.2827
  172DOPC  H12X21016   3.700   5.452   4.676 -0.9306  0.9718  0.3458
  172DOPC  H12Y21017   3.646   5.280   4.706 -2.6478 -0.2954  1.7804
  172DOPC  C31321018   3.493   5.435   4.752  0.8195 -1.1239  0.3584
  172DOPC  H13X21019   3.452   5.516   4.688  1.9011  0.4824  1.5961
  172DOPC  H13Y21020   3.413   5.362   4.776 -0.6825  0.7794  1.4498
  172DOPC  C31421021   3.532   5.506   4.884  0.7214 -0.1599 -0.6648
  172DOPC  H14X21022   3.578   5.604   4.862  1.4623 -0.4041 -0.2310
  172DOPC  H14Y21023   3.438   5.521   4.942 -0.2557 -2.2069 -1.6057
  172DOPC  C31521024   3.617   5.414   4.973 -0.1300 -0.2371  0.4847
  172DOPC  H15X21025   3.713   5.395   4.920  0.0451 -1.0753  1.0859
  172DOPC  H15Y21026   3.561   5.323   5.003  0.2002 -0.6048  0.0035
  172DOPC  C31621027   3.646   5.493   5.105 -0.0167  0.3731 -0.2487
  172DOPC  H16X21028   3.671   5.601   5.097  0.9567  0.3212  1.4981
  172DOPC  H16Y21029   3.546   5.506   5.153 -0.0247 -1.1416  0.1935
  172DOPC  C31721030   3.722   5.420   5.205  0.0615  0.3387 -0.3550
  172DOPC  H17X21031   3.684   5.440   5.307  1.1540  0.9858 -0.0720
  172DOPC  H17Y21032   3.695   5.312   5.195  0.3641  0.1097  1.0465
  172DOPC  C31821033   3.871   5.437   5.197  0.2769 -0.3654 -0.4293
  172DOPC  H18X21034   3.891   5.544   5.173  1.0310  0.0671  1.8748
  172DOPC  H18Y21035   3.917   5.408   5.294 -1.5484 -0.8290  0.3256
  172DOPC  H18Z21036   3.922   5.380   5.116  1.8525  2.3280 -1.4834
  173DOPC     N21037   0.728   5.230   2.590  0.0266  0.3135  0.1178
  173DOPC   C1221038   0.699   5.270   2.729  0.6835 -0.0619 -0.1079
  173DOPC  H12A21039   0.696   5.377   2.740 -2.8860 -0.2410  2.7089
  173DOPC  H12B21040   0.784   5.238   2.787  0.5723 -2.4137 -1.1176
  173DOPC   C1321041   0.735   5.079   2.582 -0.3925 -0.2679 -0.6594
  173DOPC  H13A21042   0.753   5.053   2.479  1.0004  4.1424 -1.7316
  173DOPC  H13B21043   0.808   5.033   2.648 -3.4637 -4.4177  0.2350
  173DOPC  H13C21044   0.640   5.048   2.622  0.3745 -1.3586  0.3978
  173DOPC   C1421045   0.846   5.308   2.532 -0.3375  0.0999 -0.0525
  173DOPC  H14A21046   0.940   5.293   2.582  0.3116 -0.1582 -1.3035
  173DOPC  H14B21047   0.858   5.284   2.427 -0.6880 -0.1553 -0.0327
  173DOPC  H14C21048   0.828   5.415   2.527  0.4131  0.2225 -0.2983
  173DOPC   C1521049   0.612   5.265   2.501 -0.6269 -0.5941 -0.7924
  173DOPC  H15A21050   0.590   5.370   2.510 -0.8721 -0.7760  1.0922
  173DOPC  H15B21051   0.534   5.197   2.531 -0.7725 -0.7338 -1.4665
  173DOPC  H15C21052   0.637   5.244   2.398 -1.0845 -1.2834 -0.7699
  173DOPC   C1121053   0.565   5.231   2.798  0.5063  0.2843  0.3298
  173DOPC  H11A21054   0.554   5.122   2.781 -2.2789  0.7572 -1.5336
  173DOPC  H11B21055   0.574   5.249   2.907  0.8671 -0.8038  0.4856
  173DOPC     P21056   0.318   5.259   2.806  0.0486 -0.4670  0.1804
  173DOPC   O1321057   0.290   5.116   2.798  0.4063 -0.4680  0.1910
  173DOPC   O1421058   0.219   5.351   2.743 -0.3725 -0.3874 -0.3824
  173DOPC   O1221059   0.452   5.297   2.737 -0.5109 -0.4946  0.1009
  173DOPC   O1121060   0.326   5.307   2.955  0.4121 -0.4438 -0.1659
  173DOPC    C121061   0.386   5.431   2.995 -1.0075 -0.5967 -0.3640
  173DOPC    HA21062   0.344   5.504   2.923 -1.2966  0.5382  0.9209
  173DOPC    HB21063   0.497   5.429   2.998 -0.7944 -5.8249  3.2307
  173DOPC    C221064   0.326   5.472   3.133  0.6408  0.2059 -0.0933
  173DOPC    HS21065   0.290   5.576   3.124 -0.2115 -0.0039  0.8159
  173DOPC   O2121066   0.437   5.471   3.224  0.1286 -0.2629 -0.2180
  173DOPC   C2121067   0.425   5.543   3.336 -0.5053  0.6300 -0.1038
  173DOPC   O2221068   0.332   5.615   3.363  0.2321 -0.2707  0.3678
  173DOPC   C2221069   0.528   5.498   3.431  0.5511  0.4845 -0.2794
  173DOPC   H2R21070   0.620   5.559   3.423 -0.1260  1.5473 -0.0925
  173DOPC   H2S21071   0.563   5.393   3.419  0.7583  0.3719  1.1621
  173DOPC    C321072   0.209   5.378   3.181  0.0897  0.1029 -0.2223
  173DOPC    HX21073   0.264   5.286   3.211 -0.6071 -0.2135  0.1221
  173DOPC    HY21074   0.143   5.347   3.098  1.4442 -0.4761 -1.1158
  173DOPC   O3121075   0.140   5.416   3.304 -0.2155 -0.2497  0.4630
  173DOPC   C3121076   0.037   5.499   3.274  0.6402 -0.4642  0.1141
  173DOPC   O3221077   0.013   5.552   3.165  0.5943  0.0346 -0.2763
  173DOPC   C3221078  -0.035   5.523   3.405  0.1654  0.1660  0.4452
  173DOPC   H2X21079   0.026   5.492   3.493 -0.6582 -0.6174  0.7483
  173DOPC   H2Y21080  -0.043   5.631   3.429 -1.1448  0.1657  0.0950
  173DOPC   C2321081   0.468   5.495   3.575  0.1829 -0.3043 -0.4156
  173DOPC   H3R21082   0.376   5.432   3.575  0.5230 -0.8514 -2.1008
  173DOPC   H3S21083   0.432   5.599   3.590 -1.6279 -0.8960 -0.3946
  173DOPC   C2421084   0.581   5.450   3.668  0.0872  0.2299  0.4035
  173DOPC   H4R21085   0.657   5.532   3.666  0.1473  0.1783  0.5624
  173DOPC   H4S21086   0.640   5.367   3.622  0.3882  1.1593 -0.9573
  173DOPC   C2521087   0.546   5.437   3.820 -0.8637  0.2065  0.0088
  173DOPC   H5R21088   0.646   5.427   3.868  0.0013  0.1120 -1.7343
  173DOPC   H5S21089   0.487   5.344   3.832  1.6712 -1.4675  0.4312
  173DOPC   C2621090   0.469   5.552   3.876  0.0379 -0.1947 -0.5412
  173DOPC   H6R21091   0.449   5.538   3.984 -0.1268 -0.2145 -0.5738
  173DOPC   H6S21092   0.369   5.561   3.828  0.0731 -2.3438 -1.0882
  173DOPC   C2721093   0.536   5.690   3.860 -0.1764 -0.7021 -0.0318
  173DOPC   H7R21094   0.534   5.713   3.751  0.2622 -1.1187 -0.1365
  173DOPC   H7S21095   0.643   5.698   3.890 -0.6174  1.9271  1.0285
  173DOPC   C2821096   0.455   5.797   3.928  0.0901 -0.0249  0.1177
  173DOPC   H8R21097   0.498   5.897   3.909  0.0791 -0.0703 -0.1579
  173DOPC   H8S21098   0.462   5.780   4.037  0.3575 -1.6928 -0.1339
  173DOPC   C2921099   0.305   5.802   3.880  0.1170  0.3746  1.4715
  173DOPC   H9R21100   0.287   5.826   3.774  1.4169  0.2174  1.1928
  173DOPC  C21021101   0.192   5.786   3.956 -0.0089  0.3436  0.1114
  173DOPC  H10R21102   0.094   5.773   3.907 -0.2251  1.2554  0.2944
  173DOPC  C21121103   0.187   5.757   4.104 -0.3851  0.1809 -0.2117
  173DOPC  H11R21104   0.121   5.827   4.160  1.4709  2.0817 -0.2943
  173DOPC  H11S21105   0.288   5.759   4.150 -1.2132  3.4953  1.7642
  173DOPC  C21221106   0.119   5.619   4.115 -0.0712 -0.2377 -0.4216
  173DOPC  H12R21107   0.189   5.546   4.068  0.1391 -0.5349  0.3506
  173DOPC  H12S21108   0.025   5.618   4.055 -0.6660 -0.8046  0.4931
  173DOPC  C21321109   0.100   5.571   4.258  0.2960 -0.3043 -0.7948
  173DOPC  H13R21110   0.054   5.470   4.248  0.5183 -0.3245 -1.6537
  173DOPC  H13S21111   0.024   5.636   4.308  0.3024  0.5907 -1.9052
  173DOPC  C21421112   0.228   5.557   4.339 -0.6887 -0.7234 -0.1204
  173DOPC  H14R21113   0.262   5.657   4.371 -1.3452 -0.2030 -0.9867
  173DOPC  H14S21114   0.309   5.515   4.275  0.9468 -2.4859  2.8976
  173DOPC  C21521115   0.204   5.454   4.455  0.1127 -0.5871  0.4943
  173DOPC  H15R21116   0.211   5.351   4.413  3.9542 -0.1203 -0.4022
  173DOPC  H15S21117   0.110   5.481   4.508  0.2390 -0.6260  0.7371
  173DOPC  C21621118   0.321   5.471   4.558  0.2634  0.5185 -0.5788
  173DOPC  H16R21119   0.339   5.581   4.563  2.0729  0.2470 -0.4250
  173DOPC  H16S21120   0.408   5.419   4.513 -1.5209  0.3229 -4.2123
  173DOPC  C21721121   0.285   5.440   4.706  0.1435  0.4089  0.0420
  173DOPC  H17R21122   0.198   5.505   4.728 -0.8744  0.3701 -3.3418
  173DOPC  H17S21123   0.376   5.470   4.762  1.8109 -2.8390 -0.6976
  173DOPC  C21821124   0.255   5.292   4.727  0.1191  0.3891 -0.1551
  173DOPC  H18R21125   0.164   5.257   4.674  1.4612  0.2715 -2.4852
  173DOPC  H18S21126   0.246   5.268   4.836 -1.7027 -0.7802 -0.5095
  173DOPC  H18T21127   0.337   5.228   4.689 -1.0216 -1.1739 -0.1297
  173DOPC   C3321128  -0.172   5.458   3.408 -0.3632  0.2647 -0.5560
  173DOPC   H3X21129  -0.210   5.446   3.512  2.3003  3.7438  1.0535
  173DOPC   H3Y21130  -0.169   5.353   3.371 -2.6517  0.0549 -0.3007
  173DOPC   C3421131  -0.276   5.539   3.326 -0.1238 -0.7981 -0.5242
  173DOPC   H4X21132  -0.236   5.575   3.228  1.3484 -0.8943  0.0138
  173DOPC   H4Y21133  -0.294   5.630   3.386  2.8470  0.9303 -1.9968
  173DOPC   C3521134  -0.409   5.453   3.302 -0.0332 -0.6464  0.1437
  173DOPC   H5X21135  -0.377   5.358   3.256 -1.2946 -0.9008 -0.2386
  173DOPC   H5Y21136  -0.459   5.513   3.222  1.6610 -0.4194 -0.7982
  173DOPC   C3621137  -0.498   5.429   3.420  0.5613 -0.0088 -0.2232
  173DOPC   H6X21138  -0.590   5.384   3.378  0.4464  0.0527 -0.0420
  173DOPC   H6Y21139  -0.444   5.359   3.487  0.0493 -1.0047 -0.8414
  173DOPC   C3721140  -0.539   5.558   3.493  0.6046 -0.7061 -0.9347
  173DOPC   H7X21141  -0.460   5.624   3.534 -0.8297  1.0951 -0.9796
  173DOPC   H7Y21142  -0.593   5.628   3.426 -0.5744 -1.3174 -0.6622
  173DOPC   C3821143  -0.637   5.539   3.609 -0.1692 -0.3210 -0.7800
  173DOPC   H8X21144  -0.651   5.639   3.656  2.8979 -0.3729  0.4719
  173DOPC   H8Y21145  -0.580   5.486   3.688  0.6942  1.7813  0.0975
  173DOPC   C3921146  -0.760   5.459   3.591 -0.1272  0.0497  0.4433
  173DOPC   H9X21147  -0.747   5.350   3.590 -0.3923  0.0146  0.6872
  173DOPC  C31021148  -0.884   5.509   3.575 -0.2219  0.4636  0.1065
  173DOPC  H10X21149  -0.976   5.451   3.557 -0.3473  0.7054 -0.0442
  173DOPC  C31121150  -0.917   5.660   3.562  0.4275 -0.8224  0.5448
  173DOPC  H11X21151  -0.967   5.680   3.465 -0.6624 -0.4949  1.1569
  173DOPC  H11Y21152  -0.822   5.716   3.564  0.0994 -0.2698  1.0863
  173DOPC  C31221153  -1.010   5.715   3.677 -0.1088 -0.7427  0.4502
  173DOPC  H12X21154  -0.952   5.709   3.772 -0.9191 -0.1533  0.9977
  173DOPC  H12Y21155  -1.098   5.647   3.674  2.1791 -3.8658 -0.6299
  173DOPC  C31321156  -1.041   5.871   3.676 -0.5072  0.3231  0.0711
  173DOPC  H13X21157  -1.112   5.881   3.761 -0.4879 -2.8289  0.5949
  173DOPC  H13Y21158  -0.948   5.930   3.692 -1.0390  0.7793  1.5895
  173DOPC  C31421159  -1.126   5.915   3.558  0.2052 -0.6986  0.9012
  173DOPC  H14X21160  -1.069   5.915   3.463  2.0261 -1.8070  1.9272
  173DOPC  H14Y21161  -1.205   5.841   3.533  0.8596 -0.2765 -3.1006
  173DOPC  C31521162  -1.174   6.061   3.591 -0.2557  0.2565  0.0439
  173DOPC  H15X21163  -1.081   6.122   3.594 -0.0251  0.3600 -3.8437
  173DOPC  H15Y21164  -1.223   6.063   3.690 -0.3168  1.6501 -0.0025
  173DOPC  C31621165  -1.250   6.122   3.477 -0.4889 -0.4276 -0.3817
  173DOPC  H16X21166  -1.314   6.039   3.441 -0.4538 -1.3187  1.4563
  173DOPC  H16Y21167  -1.315   6.202   3.518  0.6407  0.5447 -0.4465
  173DOPC  C31721168  -1.180   6.171   3.353 -0.3216 -1.2036  0.6790
  173DOPC  H17X21169  -1.113   6.098   3.304  3.4372  2.8685 -0.8814
  173DOPC  H17Y21170  -1.265   6.208   3.291 -1.0784 -2.0164  1.2051
  173DOPC  C31821171  -1.095   6.300   3.369 -0.0400  0.6862  0.1658
  173DOPC  H18X21172  -1.144   6.386   3.419 -1.0876  0.6065 -0.6814
  173DOPC  H18Y21173  -1.012   6.268   3.435  0.2582  1.7056  0.2991
  173DOPC  H18Z21174  -1.050   6.334   3.274  1.5393 -0.9235  0.2841
  174DOPC     N21175   3.533   3.820   2.150 -0.6729 -0.0880  0.7030
  174DOPC   C1221176   3.448   3.857   2.267  0.0583 -0.9087 -0.0413
  174DOPC  H12A21177   3.372   3.782   2.281 -1.2363  0.1916 -0.9117
  174DOPC  H12B21178   3.398   3.949   2.241  0.5398 -0.2423  1.2989
  174DOPC   C1321179   3.435   3.770   2.038 -1.0582  0.5919  0.1410
  174DOPC  H13A21180   3.407   3.671   2.073  1.5796  0.4690  2.2979
  174DOPC  H13B21181   3.344   3.826   2.032  0.3709  2.9342 -0.7366
  174DOPC  H13C21182   3.479   3.762   1.940 -1.0339 -0.7147  0.2273
  174DOPC   C1421183   3.622   3.706   2.193  0.9501  0.1886  0.2183
  174DOPC  H14A21184   3.689   3.661   2.122 -2.1092 -2.6797 -1.1613
  174DOPC  H14B21185   3.684   3.743   2.273  0.2338  1.6128  0.1451
  174DOPC  H14C21186   3.558   3.637   2.246  0.3941  0.9057  0.4969
  174DOPC   C1521187   3.616   3.930   2.092 -0.1272  0.2576 -0.5781
  174DOPC  H15A21188   3.642   4.003   2.167  1.9767 -0.3847 -0.6379
  174DOPC  H15B21189   3.567   3.997   2.022  2.0170  1.5390 -0.9487
  174DOPC  H15C21190   3.704   3.901   2.037  0.1207  0.5200 -0.3196
  174DOPC   C1121191   3.521   3.890   2.395 -0.2616 -0.1497 -0.0476
  174DOPC  H11A21192   3.445   3.905   2.474  0.4884  0.5036  0.5681
  174DOPC  H11B21193   3.581   3.806   2.436  0.1105  1.1752  2.2906
  174DOPC     P21194   3.750   4.022   2.412 -0.3313 -0.4650 -0.3534
  174DOPC   O1321195   3.796   4.152   2.356  0.7625  0.1096  0.3613
  174DOPC   O1421196   3.808   3.899   2.358 -0.2941 -0.2866  0.1552
  174DOPC   O1221197   3.593   4.012   2.385 -0.3658 -1.1211 -0.4525
  174DOPC   O1121198   3.773   4.026   2.569 -0.1354 -0.3461  0.6060
  174DOPC    C121199   3.744   4.136   2.652  0.2436 -0.2204  0.5093
  174DOPC    HA21200   3.669   4.199   2.601  1.0678  1.6584  1.5372
  174DOPC    HB21201   3.831   4.200   2.675  0.0008 -0.4291  2.0769
  174DOPC    C221202   3.669   4.082   2.781 -0.0386 -0.5868  0.5040
  174DOPC    HS21203   3.620   4.164   2.837  1.7938 -0.6267  2.2782
  174DOPC   O2121204   3.772   4.029   2.867  0.0585  0.1361  0.2342
  174DOPC   C2121205   3.842   4.125   2.928  0.9565  0.3112 -0.3515
  174DOPC   O2221206   3.819   4.243   2.920 -0.0450 -0.1812 -0.1218
  174DOPC   C2221207   3.939   4.050   3.027  0.2042  0.1521 -0.0761
  174DOPC   H2R21208   3.998   3.977   2.967 -2.4136 -1.3444 -1.0026
  174DOPC   H2S21209   3.887   3.976   3.091  2.7121 -0.9044  0.8365
  174DOPC    C321210   3.562   3.975   2.749  0.8034  0.5073 -0.8474
  174DOPC    HX21211   3.615   3.878   2.735 -0.5904 -0.2730 -0.8666
  174DOPC    HY21212   3.505   3.999   2.656  0.5069  2.1995 -0.2482
  174DOPC   O3121213   3.481   3.951   2.870  0.3044  0.7038  0.1944
  174DOPC   C3121214   3.364   4.012   2.880 -0.1667  0.0662  0.2302
  174DOPC   O3221215   3.332   4.114   2.821  0.1940 -0.2906 -0.1909
  174DOPC   C3221216   3.282   3.945   2.991  0.1353  0.1442 -0.4677
  174DOPC   H2X21217   3.188   4.004   3.000  0.1974  0.0493  1.0414
  174DOPC   H2Y21218   3.257   3.847   2.947 -0.5238  0.8348 -1.6742
  174DOPC   C2321219   4.011   4.147   3.122  0.1128 -0.6138  0.3797
  174DOPC   H3R21220   4.054   4.228   3.060 -0.1429 -1.6240 -1.1869
  174DOPC   H3S21221   4.088   4.082   3.170 -0.4152 -1.7641 -0.2814
  174DOPC   C2421222   3.925   4.210   3.229  0.3466  0.0647  0.2117
  174DOPC   H4R21223   3.857   4.131   3.266 -1.1389  0.8033 -0.8610
  174DOPC   H4S21224   3.855   4.275   3.173  1.5576 -0.7379 -2.4121
  174DOPC   C2521225   4.013   4.274   3.345  0.0738  0.2242  0.2607
  174DOPC   H5R21226   4.069   4.352   3.289 -0.5426 -0.0440 -0.7598
  174DOPC   H5S21227   4.090   4.215   3.399 -0.5134 -0.5747  0.2390
  174DOPC   C2621228   3.920   4.332   3.450 -0.2252  0.4827 -0.3199
  174DOPC   H6R21229   3.838   4.394   3.408  0.1268  1.0840 -0.1407
  174DOPC   H6S21230   3.978   4.394   3.522  1.0942 -0.1891 -0.7766
  174DOPC   C2721231   3.845   4.228   3.538  0.0863 -0.7788  0.9530
  174DOPC   H7R21232   3.782   4.176   3.463  0.4128 -0.0507  0.1627
  174DOPC   H7S21233   3.774   4.280   3.606 -1.5548 -1.5189 -0.1298
  174DOPC   C2821234   3.929   4.123   3.606  0.0030 -0.2452  0.7686
  174DOPC   H8R21235   4.033   4.160   3.619  0.1565 -0.0462 -0.7901
  174DOPC   H8S21236   3.941   4.030   3.545 -0.1000 -0.6696  1.3896
  174DOPC   C2921237   3.867   4.089   3.734 -0.0940  0.0492 -0.1929
  174DOPC   H9R21238   3.802   4.000   3.736  0.7967 -0.6438 -1.0137
  174DOPC  C21021239   3.896   4.148   3.851 -0.2424  0.0687  0.0099
  174DOPC  H10R21240   3.839   4.115   3.939  0.5365 -0.0275  0.4823
  174DOPC  C21121241   3.999   4.261   3.880 -0.2994 -0.8536 -0.1915
  174DOPC  H11R21242   3.937   4.352   3.899 -1.2234 -1.4756 -0.1373
  174DOPC  H11S21243   4.072   4.283   3.799  0.9745  0.5295  1.2646
  174DOPC  C21221244   4.086   4.241   4.006  0.0338  0.0105  0.3573
  174DOPC  H12R21245   4.161   4.323   3.996  1.1510 -1.1826 -1.9790
  174DOPC  H12S21246   4.149   4.150   3.997  0.6504  0.3928  0.6847
  174DOPC  C21321247   3.997   4.252   4.135  0.5305 -0.2751 -0.7217
  174DOPC  H13R21248   3.932   4.163   4.119  1.0018 -0.5600 -1.0801
  174DOPC  H13S21249   3.933   4.342   4.141  0.9567 -0.0419  0.7361
  174DOPC  C21421250   4.084   4.251   4.260 -0.0776 -0.3924  0.4964
  174DOPC  H14R21251   4.143   4.344   4.267 -1.4042  0.3976  1.8887
  174DOPC  H14S21252   4.159   4.169   4.257  0.9614  0.5501  0.0066
  174DOPC  C21521253   4.002   4.234   4.387  1.2219  0.5242  0.4997
  174DOPC  H15R21254   3.918   4.164   4.366  3.0877 -1.0805 -2.3128
  174DOPC  H15S21255   3.949   4.330   4.402 -1.2416 -0.8223  1.0936
  174DOPC  C21621256   4.076   4.207   4.514  0.0549  0.1870 -0.4187
  174DOPC  H16R21257   4.151   4.283   4.546 -1.0838  1.7103 -1.2343
  174DOPC  H16S21258   4.120   4.105   4.511 -1.7748 -0.6698  0.1388
  174DOPC  C21721259   3.985   4.178   4.634  0.6961 -0.2627 -0.1932
  174DOPC  H17R21260   3.917   4.096   4.604 -0.9633  1.2951 -0.8628
  174DOPC  H17S21261   3.923   4.269   4.646 -1.6682 -1.5407 -1.9005
  174DOPC  C21821262   4.051   4.150   4.763 -0.5158  0.3679 -0.1456
  174DOPC  H18R21263   4.132   4.073   4.763 -0.7549  0.0860 -1.6424
  174DOPC  H18S21264   3.986   4.114   4.846  0.0883  1.0311  0.6404
  174DOPC  H18T21265   4.092   4.244   4.806 -1.8092  0.9924 -0.2448
  174DOPC   C3321266   3.352   3.918   3.130  0.0402 -0.1880  0.1686
  174DOPC   H3X21267   3.455   3.876   3.122 -0.2963 -1.0265  0.1239
  174DOPC   H3Y21268   3.293   3.836   3.176  0.0442  0.2542  0.9869
  174DOPC   C3421269   3.346   4.042   3.219  0.1385  0.3190  0.1207
  174DOPC   H4X21270   3.401   4.018   3.312  0.9158 -0.6634 -0.5748
  174DOPC   H4Y21271   3.242   4.075   3.242  0.2234  2.4612 -2.1612
  174DOPC   C3521272   3.405   4.168   3.153  0.5001  0.5987  0.7114
  174DOPC   H5X21273   3.343   4.213   3.073 -0.8063 -0.0824  1.2993
  174DOPC   H5Y21274   3.500   4.144   3.102 -0.5114 -3.3986  0.3629
  174DOPC   C3621275   3.429   4.269   3.266 -0.0958 -0.0709 -0.3931
  174DOPC   H6X21276   3.339   4.281   3.329 -0.6284 -4.2849 -0.1011
  174DOPC   H6Y21277   3.511   4.234   3.332 -1.1431 -0.9939  0.4591
  174DOPC   C3721278   3.479   4.402   3.211  0.3260 -0.0408  0.1737
  174DOPC   H7X21279   3.555   4.380   3.133 -1.3894 -0.5811 -1.4214
  174DOPC   H7Y21280   3.395   4.455   3.162  0.1313 -1.9447 -1.6808
  174DOPC   C3821281   3.542   4.487   3.322 -1.1229 -0.6545 -0.3242
  174DOPC   H8X21282   3.611   4.432   3.390 -1.8753 -1.5664 -0.2845
  174DOPC   H8Y21283   3.461   4.520   3.390 -0.5149  0.2404 -0.0147
  174DOPC   C3921284   3.612   4.613   3.266 -0.2525 -0.1230 -0.6808
  174DOPC   H9X21285   3.718   4.605   3.237  0.5783  1.7937  1.4447
  174DOPC  C31021286   3.553   4.732   3.253 -0.0850  0.1673 -0.1176
  174DOPC  H10X21287   3.617   4.810   3.208 -0.1203 -0.2820 -0.9677
  174DOPC  C31121288   3.412   4.777   3.286 -0.1915 -0.2179 -0.3711
  174DOPC  H11X21289   3.342   4.705   3.239  0.3149 -0.5810 -0.5815
  174DOPC  H11Y21290   3.402   4.879   3.242 -0.0783 -1.6769 -4.1851
  174DOPC  C31221291   3.377   4.804   3.432  0.0219  0.3376  0.4284
  174DOPC  H12X21292   3.401   4.708   3.483 -0.3594  0.0360  0.0553
  174DOPC  H12Y21293   3.270   4.815   3.459 -0.1521 -0.3588  0.0624
  174DOPC  C31321294   3.446   4.922   3.505 -0.2356  0.9419  0.4440
  174DOPC  H13X21295   3.552   4.895   3.524  0.0462  0.8864 -1.1273
  174DOPC  H13Y21296   3.443   5.000   3.426  0.6024  1.1412  0.6075
  174DOPC  C31421297   3.378   4.968   3.632 -0.0322 -0.3005 -0.0175
  174DOPC  H14X21298   3.448   5.039   3.682 -1.1129  1.2549 -0.6111
  174DOPC  H14Y21299   3.291   5.028   3.595 -1.3421 -2.6549 -0.9506
  174DOPC  C31521300   3.325   4.868   3.739 -0.3519 -0.3716  0.0747
  174DOPC  H15X21301   3.418   4.821   3.778 -1.3604 -2.9392 -0.3522
  174DOPC  H15Y21302   3.274   4.782   3.690  1.4670  0.2254 -3.1301
  174DOPC  C31621303   3.237   4.931   3.853 -0.2049  0.2879  0.0626
  174DOPC  H16X21304   3.305   4.999   3.909 -0.4008 -1.1361  2.1223
  174DOPC  H16Y21305   3.152   4.988   3.808 -0.6046 -0.6720 -0.4365
  174DOPC  C31721306   3.175   4.818   3.938  0.6093 -0.1235 -0.1552
  174DOPC  H17X21307   3.118   4.757   3.863 -1.4188  0.5470  0.7684
  174DOPC  H17Y21308   3.254   4.754   3.981 -0.6486 -1.0168  0.9161
  174DOPC  C31821309   3.082   4.864   4.046  0.3079  0.0612 -0.4807
  174DOPC  H18X21310   2.994   4.918   4.003 -0.1735 -1.3148 -1.2696
  174DOPC  H18Y21311   3.039   4.788   4.114  0.7307  0.5119  0.3075
  174DOPC  H18Z21312   3.140   4.944   4.098  1.7757 -0.8399 -0.6811
  175DOPC     N21313   3.290   6.540   2.874 -0.1487 -0.2911 -0.7007
  175DOPC   C1221314   3.356   6.580   3.000  0.3098 -0.4546 -1.0264
  175DOPC  H12A21315   3.282   6.562   3.077 -1.3449 -0.3568 -2.5381
  175DOPC  H12B21316   3.379   6.685   2.992 -1.0843 -0.0728 -0.4241
  175DOPC   C1321317   3.170   6.623   2.862 -0.0225  0.1345  0.1024
  175DOPC  H13A21318   3.084   6.576   2.908 -0.4680 -0.4407 -1.2711
  175DOPC  H13B21319   3.179   6.725   2.895 -2.4319 -0.1139  1.7938
  175DOPC  H13C21320   3.145   6.631   2.758 -0.6202  1.3744  0.3219
  175DOPC   C1421321   3.256   6.396   2.868  0.2297 -1.0250  0.2078
  175DOPC  H14A21322   3.194   6.390   2.780  1.3867 -0.8448 -0.6422
  175DOPC  H14B21323   3.339   6.327   2.862  0.2450 -1.0026  0.1557
  175DOPC  H14C21324   3.195   6.375   2.955  4.5957 -1.4080  3.5028
  175DOPC   C1521325   3.375   6.578   2.751  0.0506  0.3192  0.2544
  175DOPC  H15A21326   3.382   6.685   2.742 -0.5620  0.4715  1.4357
  175DOPC  H15B21327   3.324   6.533   2.667 -0.6981 -0.7608  1.2434
  175DOPC  H15C21328   3.476   6.538   2.752  0.4184  1.2335  0.8850
  175DOPC   C1121329   3.487   6.505   3.032 -1.0083 -0.2380 -0.0268
  175DOPC  H11A21330   3.532   6.529   3.131  0.9763  2.4894 -1.4783
  175DOPC  H11B21331   3.474   6.395   3.019 -0.4274 -0.1872 -1.1767
  175DOPC     P21332   3.696   6.651   2.962  0.1774 -0.3195 -0.4110
  175DOPC   O1321333   3.624   6.781   2.948  0.0396  0.1572 -0.2698
  175DOPC   O1421334   3.809   6.624   2.873  0.5568 -0.2089 -0.6283
  175DOPC   O1221335   3.585   6.547   2.938  0.2577 -0.8661  0.1418
  175DOPC   O1121336   3.746   6.628   3.110  0.2451  0.2339  0.2888
  175DOPC    C121337   3.773   6.729   3.207 -0.4339 -0.3131  0.1194
  175DOPC    HA21338   3.733   6.691   3.303  1.1087  0.2361  1.0124
  175DOPC    HB21339   3.739   6.830   3.176 -0.2647 -0.8527 -1.9833
  175DOPC    C221340   3.936   6.739   3.226  0.7124 -0.0955  0.9600
  175DOPC    HS21341   3.969   6.762   3.122 -1.0475 -0.4362  0.2812
  175DOPC   O2121342   3.988   6.613   3.268  0.3027 -0.4723 -0.1601
  175DOPC   C2121343   4.116   6.595   3.265  0.4422 -0.0904 -0.3648
  175DOPC   O2221344   4.193   6.663   3.202 -0.2784 -0.5444  1.1144
  175DOPC   C2221345   4.153   6.477   3.344  0.2119 -0.3628  0.2748
  175DOPC   H2R21346   4.262   6.459   3.345 -0.0357 -2.0211  0.2996
  175DOPC   H2S21347   4.107   6.390   3.292  2.7680 -2.4290  1.2827
  175DOPC    C321348   3.982   6.849   3.323 -0.3150  0.4852  0.8568
  175DOPC    HX21349   4.092   6.846   3.308 -0.3782  0.2504  0.4333
  175DOPC    HY21350   3.952   6.810   3.423 -3.1570 -0.6940 -0.3697
  175DOPC   O3121351   3.922   6.976   3.302  0.4022 -0.0618 -0.4259
  175DOPC   C3121352   4.002   7.074   3.349  0.3764  0.6377 -0.0629
  175DOPC   O3221353   4.099   7.056   3.423 -0.4879  0.3997  0.0682
  175DOPC   C3221354   3.939   7.208   3.319 -0.4988  0.4650  0.1163
  175DOPC   H2X21355   4.017   7.273   3.273 -1.1131  1.7627  0.8363
  175DOPC   H2Y21356   3.847   7.191   3.260 -0.8085 -0.5411  0.8627
  175DOPC   C2321357   4.096   6.493   3.489 -0.6710 -0.2026  0.8833
  175DOPC   H3R21358   3.986   6.498   3.476 -1.1901 -3.7242  2.6351
  175DOPC   H3S21359   4.140   6.587   3.529 -0.7024  0.0881  0.2552
  175DOPC   C2421360   4.124   6.377   3.582 -0.2827  0.5719 -0.0406
  175DOPC   H4R21361   4.110   6.406   3.688 -0.7227 -1.1390  0.3988
  175DOPC   H4S21362   4.233   6.368   3.562 -0.1975  1.9305 -0.3033
  175DOPC   C2521363   4.041   6.258   3.545  0.0088 -0.5808 -0.5342
  175DOPC   H5R21364   4.063   6.237   3.438 -1.2107  1.2823 -1.2134
  175DOPC   H5S21365   3.932   6.279   3.555  0.0295  0.7273 -2.4331
  175DOPC   C2621366   4.057   6.126   3.621 -0.1557 -0.2313  0.2489
  175DOPC   H6R21367   4.148   6.065   3.602 -0.9471 -1.7938  1.2518
  175DOPC   H6S21368   3.974   6.061   3.586 -0.8318  0.8757 -0.2643
  175DOPC   C2721369   4.023   6.136   3.764  0.1282  0.6538 -0.3995
  175DOPC   H7R21370   3.922   6.182   3.769 -0.3761 -0.3660 -0.8767
  175DOPC   H7S21371   4.093   6.205   3.816  1.3239  0.7383 -2.0422
  175DOPC   C2821372   4.004   5.997   3.825 -0.1586  0.1017 -0.4512
  175DOPC   H8R21373   3.945   5.931   3.757 -0.9487  1.1352 -0.8012
  175DOPC   H8S21374   3.937   5.999   3.913 -1.2466  0.2410 -1.2583
  175DOPC   C2921375   4.138   5.945   3.863  0.2813  0.3016 -0.5984
  175DOPC   H9R21376   4.214   5.959   3.786 -0.2863  1.7039 -0.9361
  175DOPC  C21021377   4.184   5.907   3.986 -0.6556  0.1551 -0.4595
  175DOPC  H10R21378   4.289   5.877   3.999 -0.7566 -1.3122 -2.6603
  175DOPC  C21121379   4.104   5.915   4.116  0.6165  0.1421 -0.3674
  175DOPC  H11R21380   4.136   5.831   4.181  1.1632 -1.4672 -2.5875
  175DOPC  H11S21381   3.998   5.891   4.093  0.1724  1.4535  0.1981
  175DOPC  C21221382   4.109   6.049   4.191 -0.7098 -0.2366  0.5743
  175DOPC  H12R21383   4.125   6.131   4.118  1.3431 -1.8880 -0.9599
  175DOPC  H12S21384   4.204   6.052   4.249  1.7769 -1.7410 -3.0380
  175DOPC  C21321385   3.993   6.068   4.283 -0.0657 -0.0239  0.0536
  175DOPC  H13R21386   3.898   6.057   4.227 -1.6505 -1.1779  2.7472
  175DOPC  H13S21387   4.016   6.167   4.327 -0.8570  0.7206 -1.1596
  175DOPC  C21421388   3.980   5.968   4.399  0.1918  0.0382 -0.6047
  175DOPC  H14R21389   4.077   5.952   4.450  1.4235  0.3179 -2.7387
  175DOPC  H14S21390   3.954   5.876   4.342  0.0672  0.6610 -1.5794
  175DOPC  C21521391   3.866   6.005   4.504 -0.5946 -0.4520  0.1513
  175DOPC  H15R21392   3.857   5.932   4.587  0.3987 -1.7711 -0.8644
  175DOPC  H15S21393   3.774   5.997   4.443  0.4235  0.2173 -1.5253
  175DOPC  C21621394   3.865   6.159   4.554 -0.8985 -0.5176 -0.0806
  175DOPC  H16R21395   3.792   6.164   4.639  0.4434 -1.6480  1.1923
  175DOPC  H16S21396   3.828   6.234   4.481  0.2786  0.1224 -0.0334
  175DOPC  C21721397   4.004   6.206   4.610  0.7892  0.2648  0.1704
  175DOPC  H17R21398   4.003   6.307   4.656 -0.4491  0.2045  0.3157
  175DOPC  H17S21399   4.073   6.218   4.524  0.9085  0.2086  0.2566
  175DOPC  C21821400   4.070   6.110   4.710  0.2497 -0.2103  0.4697
  175DOPC  H18R21401   4.013   6.091   4.803  1.3961 -0.5984  1.1092
  175DOPC  H18S21402   4.176   6.137   4.725  0.9108 -2.5129  0.3313
  175DOPC  H18T21403   4.088   6.009   4.668  1.4430  0.5953 -1.0789
  175DOPC   C3321404   3.910   7.288   3.448 -0.4055  0.2195 -0.8263
  175DOPC   H3X21405   3.844   7.375   3.430 -0.1414  0.2292 -1.7694
  175DOPC   H3Y21406   4.005   7.325   3.494 -2.0928  4.0162  0.0586
  175DOPC   C3421407   3.831   7.206   3.557 -0.3350 -0.2940  0.1870
  175DOPC   H4X21408   3.889   7.117   3.590 -1.2636 -1.2470 -0.6777
  175DOPC   H4Y21409   3.733   7.167   3.522 -0.4682 -0.3933  0.6580
  175DOPC   C3521410   3.799   7.302   3.678  0.3916  0.4693  0.3083
  175DOPC   H5X21411   3.717   7.366   3.640  2.4281  2.1439 -1.5796
  175DOPC   H5Y21412   3.873   7.383   3.697 -0.6478  1.4882  0.0792
  175DOPC   C3621413   3.761   7.238   3.806 -0.1006 -0.2010 -0.2376
  175DOPC   H6X21414   3.666   7.181   3.790 -0.4530  0.4725 -0.5933
  175DOPC   H6Y21415   3.837   7.162   3.836  0.4706 -0.0862 -1.3611
  175DOPC   C3721416   3.730   7.334   3.923  0.6032  0.2182  0.0754
  175DOPC   H7X21417   3.714   7.264   4.007 -0.5501 -1.3849 -1.4155
  175DOPC   H7Y21418   3.818   7.397   3.949  0.5356  0.3123  0.0771
  175DOPC   C3821419   3.619   7.439   3.885 -0.6161  0.4032 -0.2086
  175DOPC   H8X21420   3.536   7.377   3.845  0.9406 -1.0141 -1.3754
  175DOPC   H8Y21421   3.633   7.502   3.795 -2.0622  3.5403  1.5992
  175DOPC   C3921422   3.570   7.524   3.996 -1.1525  0.6365 -0.7402
  175DOPC   H9X21423   3.632   7.613   4.017  0.0413 -0.6264  1.3406
  175DOPC  C31021424   3.459   7.506   4.068  0.7696  1.0327  0.0226
  175DOPC  H10X21425   3.433   7.588   4.136 -2.0713  1.1362 -1.0758
  175DOPC  C31121426   3.350   7.394   4.057  0.1755 -0.4486 -0.3133
  175DOPC  H11X21427   3.387   7.312   3.992  2.6663  0.2558  0.1196
  175DOPC  H11Y21428   3.262   7.440   4.006  0.6768  1.4760  0.4729
  175DOPC  C31221429   3.286   7.338   4.187  0.2296  0.3202 -0.5826
  175DOPC  H12X21430   3.230   7.246   4.160 -1.5712  0.8232  1.1817
  175DOPC  H12Y21431   3.231   7.417   4.244 -0.0196 -0.3819  0.1690
  175DOPC  C31321432   3.391   7.279   4.279 -0.5787  0.6312 -0.2710
  175DOPC  H13X21433   3.414   7.173   4.257  0.2067  0.7103  0.1200
  175DOPC  H13Y21434   3.489   7.332   4.274  0.6993 -1.5528  0.1632
  175DOPC  C31421435   3.368   7.272   4.435  0.0355  0.2787  0.1333
  175DOPC  H14X21436   3.352   7.379   4.462 -1.8113  0.1332 -0.2475
  175DOPC  H14Y21437   3.272   7.218   4.453 -0.4907  1.2902  0.4899
  175DOPC  C31521438   3.476   7.211   4.512 -0.3724  0.3157 -0.1936
  175DOPC  H15X21439   3.573   7.263   4.500  2.0244 -3.3309  1.6284
  175DOPC  H15Y21440   3.504   7.114   4.465  1.4038  1.2762 -1.2225
  175DOPC  C31621441   3.448   7.208   4.666  0.3750 -0.3666 -0.0480
  175DOPC  H16X21442   3.461   7.309   4.711  1.8058 -1.0398  1.1369
  175DOPC  H16Y21443   3.342   7.177   4.668 -0.1416  1.0893 -1.8721
  175DOPC  C31721444   3.529   7.099   4.742  0.1036 -0.3239  0.3796
  175DOPC  H17X21445   3.636   7.104   4.712 -0.1970 -1.5929 -1.0283
  175DOPC  H17Y21446   3.514   7.118   4.850  0.9964  1.3786  0.2384
  175DOPC  C31821447   3.480   6.953   4.732  0.7052 -0.7385 -0.2811
  175DOPC  H18X21448   3.377   6.952   4.773  1.5527  0.2603  2.0393
  175DOPC  H18Y21449   3.475   6.918   4.626 -1.4884 -0.1595 -0.4204
  175DOPC  H18Z21450   3.542   6.881   4.789  1.0992  0.1291  0.4047
  176DOPC     N21451   1.531   1.335   2.832  0.3665  0.1204 -0.4050
  176DOPC   C1221452   1.629   1.281   2.944 -0.6638  0.5693 -0.2540
  176DOPC  H12A21453   1.644   1.178   2.915 -2.4629 -0.5198  2.3366
  176DOPC  H12B21454   1.575   1.272   3.037 -1.7448  0.0054 -0.9041
  176DOPC   C1321455   1.483   1.476   2.868 -0.0684  0.0903  1.0609
  176DOPC  H13A21456   1.439   1.533   2.788 -0.2331  0.0792  1.1429
  176DOPC  H13B21457   1.416   1.480   2.953 -0.5691  0.4721  0.6496
  176DOPC  H13C21458   1.571   1.532   2.896  0.4313 -1.6121  3.1817
  176DOPC   C1421459   1.417   1.242   2.830 -1.0889  0.8391 -0.5366
  176DOPC  H14A21460   1.362   1.258   2.921  0.6640  0.8075  0.5677
  176DOPC  H14B21461   1.347   1.267   2.751  0.1819  1.3742 -1.5406
  176DOPC  H14C21462   1.445   1.139   2.820  0.1863  0.6775  3.1918
  176DOPC   C1521463   1.612   1.331   2.709  0.5200 -0.0520  0.5103
  176DOPC  H15A21464   1.699   1.393   2.725 -0.8503  1.5635  2.0942
  176DOPC  H15B21465   1.555   1.382   2.632 -0.0798 -0.0199  0.9695
  176DOPC  H15C21466   1.641   1.232   2.676 -0.0118 -0.7606  2.0524
  176DOPC   C1121467   1.760   1.366   2.971  0.1850 -0.5699 -0.7445
  176DOPC  H11A21468   1.715   1.458   3.013 -0.7549 -0.9067 -0.9934
  176DOPC  H11B21469   1.823   1.317   3.049  0.0488  1.9908  1.0806
  176DOPC     P21470   1.986   1.383   2.852  0.3094 -0.0431 -0.3910
  176DOPC   O1321471   2.041   1.491   2.770 -0.4904 -0.6790 -0.1457
  176DOPC   O1421472   2.006   1.246   2.804  0.3639  0.0800  0.4352
  176DOPC   O1221473   1.833   1.409   2.852 -0.1228  0.3114 -0.2954
  176DOPC   O1121474   2.048   1.402   2.998  0.1320  0.3571  0.1289
  176DOPC    C121475   2.050   1.524   3.066 -0.2586  0.2839 -0.5477
  176DOPC    HA21476   1.963   1.592   3.052 -0.1489  0.8582  1.2900
  176DOPC    HB21477   2.133   1.587   3.029  1.5183 -0.7098  1.4773
  176DOPC    C221478   2.055   1.515   3.225 -0.1082  0.4831  0.1693
  176DOPC    HS21479   2.163   1.505   3.250 -0.0511  0.1366 -0.1992
  176DOPC   O2121480   1.975   1.409   3.273  0.1659  0.1601  0.2498
  176DOPC   C2121481   2.035   1.304   3.317 -0.1337 -1.1279 -0.7500
  176DOPC   O2221482   2.158   1.285   3.310 -0.5861 -0.1083 -0.0618
  176DOPC   C2221483   1.929   1.211   3.370  0.0809  1.0515  0.9994
  176DOPC   H2R21484   1.898   1.130   3.300  0.5439  2.2300 -0.6287
  176DOPC   H2S21485   1.835   1.263   3.399 -0.0288  0.4089  1.8633
  176DOPC    C321486   2.011   1.644   3.285  0.1764 -0.3698  0.9513
  176DOPC    HX21487   1.906   1.669   3.256 -0.2057 -0.7082  2.0095
  176DOPC    HY21488   2.066   1.730   3.242 -1.5022 -0.5939 -1.9004
  176DOPC   O3121489   2.015   1.640   3.430  0.4488 -0.2599 -0.0122
  176DOPC   C3121490   2.119   1.698   3.491  0.7423  0.1185  0.3911
  176DOPC   O3221491   2.205   1.761   3.440 -0.2857 -0.0369  0.4156
  176DOPC   C3221492   2.126   1.652   3.635  0.3978 -0.4768  0.8083
  176DOPC   H2X21493   2.032   1.692   3.680 -0.7231  0.7542 -2.3777
  176DOPC   H2Y21494   2.132   1.541   3.632 -0.6156 -0.5245 -0.1949
  176DOPC   C2321495   1.979   1.133   3.500  0.0286 -0.0023 -0.3252
  176DOPC   H3R21496   2.083   1.097   3.488  0.8705  2.0016  0.4334
  176DOPC   H3S21497   1.903   1.053   3.514  0.0176 -0.2165 -1.5333
  176DOPC   C2421498   1.976   1.234   3.617  0.0845 -0.2416 -0.1564
  176DOPC   H4R21499   1.877   1.284   3.621  0.5077  0.5357  1.1911
  176DOPC   H4S21500   2.053   1.312   3.597  1.4867 -1.2001  1.2380
  176DOPC   C2521501   1.996   1.149   3.741  0.0773  0.4623  0.3797
  176DOPC   H5R21502   2.099   1.109   3.729 -0.5038 -1.2877  0.8614
  176DOPC   H5S21503   1.922   1.066   3.733 -1.9873  2.3765 -1.8359
  176DOPC   C2621504   1.966   1.223   3.863  0.7004 -0.6347  0.1132
  176DOPC   H6R21505   1.856   1.228   3.872  0.5880  0.2624 -1.4424
  176DOPC   H6S21506   2.011   1.323   3.881 -3.3330  1.5547 -0.7701
  176DOPC   C2721507   1.995   1.135   3.995 -0.0329  0.1925 -0.0978
  176DOPC   H7R21508   2.102   1.109   3.986 -0.3427 -1.4677  0.6835
  176DOPC   H7S21509   1.926   1.048   3.992 -2.5634  2.0972 -0.4530
  176DOPC   C2821510   1.953   1.211   4.122 -0.5113 -0.2730 -0.3367
  176DOPC   H8R21511   1.948   1.130   4.198  0.7643 -1.3999 -1.3871
  176DOPC   H8S21512   1.849   1.246   4.108  0.1285  2.4429  1.0006
  176DOPC   C2921513   2.051   1.316   4.165  0.0235  0.3302 -0.4192
  176DOPC   H9R21514   2.151   1.309   4.119 -0.3108 -3.1710 -0.8690
  176DOPC  C21021515   2.024   1.398   4.272  0.0600 -0.1885 -0.6325
  176DOPC  H10R21516   2.101   1.458   4.323 -0.0411 -0.2180 -0.4449
  176DOPC  C21121517   1.897   1.395   4.361  0.4030 -0.5058 -0.2375
  176DOPC  H11R21518   1.810   1.347   4.311 -1.8873  0.5844  2.3935
  176DOPC  H11S21519   1.867   1.501   4.375 -0.9208 -0.5649 -2.2195
  176DOPC  C21221520   1.920   1.330   4.497  0.5939 -0.2027  0.6575
  176DOPC  H12R21521   1.967   1.233   4.471  0.2608  0.1442 -1.3915
  176DOPC  H12S21522   1.820   1.308   4.540  1.1259 -3.6813  0.4251
  176DOPC  C21321523   2.008   1.415   4.596 -0.0066 -0.3089  0.8908
  176DOPC  H13R21524   1.964   1.516   4.608  1.4692  0.5883 -0.8919
  176DOPC  H13S21525   2.110   1.433   4.557 -0.7396  1.7804 -0.2144
  176DOPC  C21421526   2.036   1.345   4.731 -0.1803  0.1742  0.1702
  176DOPC  H14R21527   2.137   1.374   4.765 -0.0154 -1.0080  0.7203
  176DOPC  H14S21528   2.032   1.236   4.711 -3.0102  0.5361 -2.0007
  176DOPC  C21521529   1.923   1.383   4.830  0.4539 -0.1438 -0.7364
  176DOPC  H15R21530   1.824   1.363   4.784 -1.2895  0.7736  2.3386
  176DOPC  H15S21531   1.932   1.492   4.853 -0.6920 -0.3366  0.7585
  176DOPC  C21621532   1.943   1.315   4.968  0.4145  0.3724 -0.2606
  176DOPC  H16R21533   1.925   1.208   4.946  0.8570  0.0602  0.8193
  176DOPC  H16S21534   1.851   1.328   5.028  1.2338 -0.2058  1.1913
  176DOPC  C21721535   2.068   1.329   5.057 -0.6098  0.6778  0.1331
  176DOPC  H17R21536   2.149   1.324   4.981 -3.2658 -0.3658 -2.8158
  176DOPC  H17S21537   2.081   1.240   5.122  1.8973  0.0104 -1.1534
  176DOPC  C21821538   2.061   1.450   5.137  0.6819 -0.3977 -0.1585
  176DOPC  H18R21539   2.149   1.460   5.203  0.9798 -0.3958 -0.5538
  176DOPC  H18S21540   1.969   1.441   5.199  0.3438  0.5304 -0.5148
  176DOPC  H18T21541   2.056   1.540   5.072  0.5778 -0.2952 -0.0103
  176DOPC   C3321542   2.237   1.710   3.729  0.3152 -0.3387 -0.2507
  176DOPC   H3X21543   2.243   1.821   3.725  0.9286 -0.3329  0.6394
  176DOPC   H3Y21544   2.335   1.674   3.691 -0.6682 -0.7426 -2.5631
  176DOPC   C3421545   2.216   1.674   3.875  0.5384  0.4293  0.7354
  176DOPC   H4X21546   2.244   1.569   3.895  0.3114  0.3341  0.5657
  176DOPC   H4Y21547   2.114   1.700   3.911  0.4944 -0.4765  1.2834
  176DOPC   C3521548   2.314   1.746   3.974 -0.3798  0.2135  0.4895
  176DOPC   H5X21549   2.288   1.854   3.979 -0.1953  0.4572 -2.1614
  176DOPC   H5Y21550   2.417   1.746   3.933  0.5636  1.0044  2.7197
  176DOPC   C3621551   2.311   1.689   4.113 -0.7253  0.1246 -0.7877
  176DOPC   H6X21552   2.377   1.748   4.179 -1.9284 -0.3672  0.9358
  176DOPC   H6Y21553   2.207   1.695   4.153 -0.5569  2.3061 -0.5459
  176DOPC   C3721554   2.348   1.544   4.116 -0.0220 -0.1354  0.6592
  176DOPC   H7X21555   2.266   1.473   4.094 -1.4161  1.5136  0.3711
  176DOPC   H7Y21556   2.430   1.542   4.041 -0.3087 -0.1530  0.3433
  176DOPC   C3821557   2.410   1.504   4.253  0.1478  0.1060  0.2789
  176DOPC   H8X21558   2.417   1.394   4.259 -0.8210  0.0739  1.0755
  176DOPC   H8Y21559   2.337   1.533   4.332  0.7285  0.8787  0.5445
  176DOPC   C3921560   2.549   1.558   4.288  0.2436  0.2087  0.2156
  176DOPC   H9X21561   2.618   1.572   4.203  0.4641 -0.9983  0.1708
  176DOPC  C31021562   2.599   1.593   4.406 -0.0839  0.4348  0.1383
  176DOPC  H10X21563   2.701   1.635   4.399  0.8949 -1.8587 -0.4787
  176DOPC  C31121564   2.523   1.585   4.538  0.1617  0.2514 -0.2991
  176DOPC  H11X21565   2.420   1.546   4.531  0.9598 -1.9053 -0.8094
  176DOPC  H11Y21566   2.518   1.686   4.583 -2.0607  0.3208 -0.6079
  176DOPC  C31221567   2.589   1.490   4.641  0.6228 -0.7627 -0.0255
  176DOPC  H12X21568   2.530   1.495   4.734 -1.4541  2.1371 -1.3300
  176DOPC  H12Y21569   2.696   1.521   4.646  0.2336  0.5028  0.9910
  176DOPC  C31321570   2.591   1.336   4.601 -0.2664 -0.0169  0.1854
  176DOPC  H13X21571   2.583   1.320   4.492 -0.8931  0.7992  0.0996
  176DOPC  H13Y21572   2.683   1.293   4.646 -0.5239 -0.4619  0.2955
  176DOPC  C31421573   2.474   1.265   4.680  0.1311 -1.0330 -0.1243
  176DOPC  H14X21574   2.470   1.289   4.788 -0.8604  2.3022 -0.7935
  176DOPC  H14Y21575   2.386   1.321   4.642 -2.7446 -3.0948  2.8901
  176DOPC  C31521576   2.448   1.118   4.641  0.0681  0.3298 -0.2570
  176DOPC  H15X21577   2.549   1.073   4.653 -0.1103 -0.0884 -0.3042
  176DOPC  H15Y21578   2.425   1.117   4.532  0.7683  1.2051 -0.4231
  176DOPC  C31621579   2.331   1.069   4.729  0.2118 -0.2341 -0.7997
  176DOPC  H16X21580   2.241   1.134   4.735 -0.5982 -1.4623  1.4268
  176DOPC  H16Y21581   2.298   0.971   4.690  1.7192 -2.8196  3.6427
  176DOPC  C31721582   2.357   1.036   4.881 -0.3118  0.1361  0.0888
  176DOPC  H17X21583   2.420   0.945   4.889  0.8927  0.6356 -2.5440
  176DOPC  H17Y21584   2.410   1.120   4.931 -1.5927 -0.8609  3.4289
  176DOPC  C31821585   2.234   1.001   4.971  0.1377 -0.2484 -0.6004
  176DOPC  H18X21586   2.159   1.083   4.972  1.1114  0.6855  1.6713
  176DOPC  H18Y21587   2.185   0.909   4.933 -1.6918  1.1728 -1.8576
  176DOPC  H18Z21588   2.256   0.998   5.080 -0.6269  1.4232 -0.3692
  177DOPC     N21589   6.062   6.178   1.623  0.2487 -0.9054 -0.1379
  177DOPC   C1221590   6.067   6.212   1.771  0.3637  0.1238 -0.0096
  177DOPC  H12A21591   5.984   6.161   1.818  1.3002 -0.1380  1.4337
  177DOPC  H12B21592   6.037   6.314   1.786 -0.5900 -0.1480  0.0185
  177DOPC   C1321593   6.148   6.268   1.542  0.4342  0.2823  0.0136
  177DOPC  H13A21594   6.251   6.255   1.571  0.3215  0.5564  0.5606
  177DOPC  H13B21595   6.126   6.261   1.437  0.5072 -1.1374  0.0708
  177DOPC  H13C21596   6.126   6.373   1.553 -1.6253 -0.0576 -0.3374
  177DOPC   C1421597   5.920   6.198   1.582  0.4457  0.5900 -0.4398
  177DOPC  H14A21598   5.899   6.187   1.477 -0.9901  1.8519 -0.3221
  177DOPC  H14B21599   5.850   6.152   1.650  0.9458 -2.1401 -1.6669
  177DOPC  H14C21600   5.888   6.300   1.602 -1.2471  0.2796 -1.3943
  177DOPC   C1521601   6.112   6.036   1.595 -0.2428  0.1320 -0.7002
  177DOPC  H15A21602   6.074   5.966   1.669 -0.6052 -0.4302 -1.4037
  177DOPC  H15B21603   6.218   6.033   1.614 -0.0082  3.0039 -1.1596
  177DOPC  H15C21604   6.082   6.002   1.497  2.3190 -1.3883 -1.0528
  177DOPC   C1121605   6.193   6.194   1.853  0.3874 -0.0936 -0.4078
  177DOPC  H11A21606   6.177   6.216   1.961  2.3245 -1.8579  0.3112
  177DOPC  H11B21607   6.215   6.085   1.847  1.1937  0.0359  0.0639
  177DOPC     P21608   6.355   6.393   1.874  0.2739 -0.0821 -0.4754
  177DOPC   O1321609   6.250   6.455   1.955 -0.2038 -0.0510 -0.0113
  177DOPC   O1421610   6.418   6.476   1.768 -0.5981  0.4111 -0.2220
  177DOPC   O1221611   6.305   6.262   1.803  0.1278  0.0046 -0.0938
  177DOPC   O1121612   6.464   6.335   1.968 -0.4731  0.4382 -0.2000
  177DOPC    C121613   6.458   6.220   2.058  0.3172 -0.1397  0.4060
  177DOPC    HA21614   6.561   6.196   2.089  1.0503 -1.2007 -2.5365
  177DOPC    HB21615   6.408   6.129   2.018 -3.5082  1.6902  0.5593
  177DOPC    C221616   6.378   6.254   2.187 -0.9923  0.4024  0.1970
  177DOPC    HS21617   6.276   6.293   2.163 -1.3470 -0.6358 -0.0340
  177DOPC   O2121618   6.450   6.359   2.260  0.0901 -0.9383  0.1502
  177DOPC   C2121619   6.374   6.439   2.333  0.5170 -0.3933 -0.8971
  177DOPC   O2221620   6.253   6.437   2.346 -0.3767 -0.3596  0.4024
  177DOPC   C2221621   6.462   6.524   2.420 -0.3169 -0.1132 -0.5995
  177DOPC   H2R21622   6.439   6.632   2.430  0.8096 -0.0230  1.3515
  177DOPC   H2S21623   6.561   6.521   2.370  0.8305 -2.1505  1.5794
  177DOPC    C321624   6.366   6.129   2.272 -0.4694  0.5629  0.4225
  177DOPC    HX21625   6.465   6.080   2.286 -1.1411 -0.5211  1.5526
  177DOPC    HY21626   6.305   6.058   2.212  2.3010 -0.1029 -1.8645
  177DOPC   O3121627   6.302   6.152   2.403 -0.5763 -0.0208  0.1266
  177DOPC   C3121628   6.168   6.153   2.406  0.6033 -1.0471 -0.2002
  177DOPC   O3221629   6.095   6.131   2.313 -0.0055 -0.4566  0.2786
  177DOPC   C3221630   6.115   6.185   2.547  0.0523 -0.1725 -0.4229
  177DOPC   H2X21631   6.156   6.115   2.624 -1.9512 -0.9842 -0.0263
  177DOPC   H2Y21632   6.156   6.284   2.575  2.1897 -0.5042 -2.1440
  177DOPC   C2321633   6.450   6.468   2.564 -0.5116 -0.4450  0.6036
  177DOPC   H3R21634   6.495   6.367   2.573 -1.4667 -0.8026  1.7133
  177DOPC   H3S21635   6.343   6.448   2.590  0.2527 -2.8511  2.2136
  177DOPC   C2421636   6.518   6.556   2.670 -0.5188  0.5223 -0.0283
  177DOPC   H4R21637   6.474   6.658   2.663 -3.2966 -0.4672  1.6198
  177DOPC   H4S21638   6.627   6.550   2.654 -0.5476 -0.0946 -0.0383
  177DOPC   C2521639   6.493   6.501   2.810 -0.0438  0.0967  0.1477
  177DOPC   H5R21640   6.557   6.555   2.884  0.4003  0.1538 -0.2688
  177DOPC   H5S21641   6.538   6.400   2.812 -1.4881 -0.5579  0.4649
  177DOPC   C2621642   6.347   6.498   2.862  0.0579 -0.1418  0.0389
  177DOPC   H6R21643   6.288   6.426   2.802 -0.2163 -2.7883  3.1691
  177DOPC   H6S21644   6.303   6.599   2.847 -2.4051 -1.3057 -1.0899
  177DOPC   C2721645   6.337   6.462   3.011  0.4097  0.2413  0.3200
  177DOPC   H7R21646   6.397   6.537   3.066 -1.5698  0.7720  1.8932
  177DOPC   H7S21647   6.388   6.366   3.033 -1.6280 -0.8935  0.3623
  177DOPC   C2821648   6.196   6.439   3.071  0.3831 -0.2525 -0.5253
  177DOPC   H8R21649   6.220   6.427   3.179 -1.8496  1.8354  0.2878
  177DOPC   H8S21650   6.161   6.344   3.027  1.0173  0.3045 -2.3616
  177DOPC   C2921651   6.088   6.546   3.048 -0.2257 -1.1692  0.3582
  177DOPC   H9R21652   6.146   6.621   2.992 -0.3949 -1.3848 -0.1081
  177DOPC  C21021653   5.958   6.556   3.092 -0.3019  0.5478  0.4653
  177DOPC  H10R21654   5.898   6.640   3.056  0.8586  0.4701 -1.7819
  177DOPC  C21121655   5.877   6.458   3.175 -0.1368 -0.2347 -0.1712
  177DOPC  H11R21656   5.942   6.373   3.207 -1.4109 -0.9191  0.6847
  177DOPC  H11S21657   5.796   6.409   3.117  2.0026 -2.1090 -1.7837
  177DOPC  C21221658   5.815   6.521   3.306 -0.7340  0.0529  0.2701
  177DOPC  H12R21659   5.746   6.443   3.343  0.0249 -0.3578  0.8551
  177DOPC  H12S21660   5.757   6.612   3.279 -1.2496 -0.1908  0.5387
  177DOPC  C21321661   5.917   6.560   3.415 -0.4168  0.7854  0.2988
  177DOPC  H13R21662   5.990   6.625   3.361  0.9613 -1.4382 -0.6420
  177DOPC  H13S21663   5.975   6.471   3.448  0.3843  1.8008  1.7549
  177DOPC  C21421664   5.852   6.633   3.534  0.5462  0.3150  0.0523
  177DOPC  H14R21665   5.771   6.567   3.573  2.0121 -1.0796  0.8523
  177DOPC  H14S21666   5.800   6.721   3.490  0.6479  0.0285 -0.6418
  177DOPC  C21521667   5.945   6.682   3.647 -0.5865  0.6520  0.3092
  177DOPC  H15R21668   6.013   6.753   3.594  1.4174 -1.3168  0.1122
  177DOPC  H15S21669   6.013   6.601   3.681  1.6218  2.4661  0.4690
  177DOPC  C21621670   5.865   6.729   3.762 -0.1250  0.3439  0.3051
  177DOPC  H16R21671   5.935   6.742   3.848 -0.1474 -2.8517  0.9416
  177DOPC  H16S21672   5.789   6.651   3.785 -2.0512  2.1511  0.3315
  177DOPC  C21721673   5.792   6.862   3.737  0.5048  0.1826  0.6615
  177DOPC  H17R21674   5.728   6.860   3.646  0.3807 -0.0921  0.7554
  177DOPC  H17S21675   5.871   6.937   3.714  0.9200 -0.7244 -1.0065
  177DOPC  C21821676   5.712   6.899   3.858  0.5537  0.0582 -0.3942
  177DOPC  H18R21677   5.674   7.004   3.856 -1.7145 -0.6813  0.1595
  177DOPC  H18S21678   5.764   6.882   3.954 -0.0404  1.4693  0.2110
  177DOPC  H18T21679   5.627   6.828   3.865  0.2832  0.2227 -1.6873
  177DOPC   C3321680   5.959   6.185   2.561 -0.1270 -0.0674  0.1626
  177DOPC   H3X21681   5.942   6.085   2.608  4.2495 -0.8735  0.3938
  177DOPC   H3Y21682   5.922   6.192   2.457 -0.6601  3.4347  0.4837
  177DOPC   C3421683   5.901   6.298   2.646  0.4959  0.2936  0.3872
  177DOPC   H4X21684   5.905   6.392   2.587  1.9921 -1.5837 -2.7389
  177DOPC   H4Y21685   5.960   6.306   2.740  0.7062  0.0037  0.2807
  177DOPC   C3521686   5.756   6.269   2.696  0.5032 -0.1694  0.3467
  177DOPC   H5X21687   5.771   6.187   2.769 -0.2629  0.2512  0.9934
  177DOPC   H5Y21688   5.697   6.224   2.613  0.4648 -3.0391  1.8016
  177DOPC   C3621689   5.696   6.389   2.765 -0.3431 -0.1674 -0.1487
  177DOPC   H6X21690   5.775   6.435   2.828 -0.5753  0.7926 -0.5361
  177DOPC   H6Y21691   5.666   6.475   2.701  1.7256  0.3547 -0.4945
  177DOPC   C3721692   5.583   6.348   2.855  0.8199 -0.5944 -0.6794
  177DOPC   H7X21693   5.496   6.312   2.795 -0.1415 -0.6539  0.6984
  177DOPC   H7Y21694   5.612   6.267   2.924  1.2842  0.7393  0.7450
  177DOPC   C3821695   5.543   6.475   2.943  0.2718  0.0064 -0.2714
  177DOPC   H8X21696   5.480   6.542   2.881 -1.1231 -2.1669 -1.2996
  177DOPC   H8Y21697   5.635   6.529   2.973  0.7672 -0.9419 -0.0474
  177DOPC   C3921698   5.457   6.438   3.060  0.0508 -0.1433 -0.8349
  177DOPC   H9X21699   5.430   6.332   3.060  1.6265 -0.6425 -3.2709
  177DOPC  C31021700   5.426   6.519   3.162  0.6724 -0.7545 -0.0804
  177DOPC  H10X21701   5.360   6.477   3.239 -0.9018  2.6271  0.6181
  177DOPC  C31121702   5.459   6.658   3.185 -0.5401  0.2996 -0.1872
  177DOPC  H11X21703   5.413   6.724   3.108 -1.1708 -0.9734 -0.9346
  177DOPC  H11Y21704   5.570   6.663   3.187 -0.4442 -0.3037 -1.7399
  177DOPC  C31221705   5.411   6.693   3.331  0.5016  0.4317  0.1838
  177DOPC  H12X21706   5.302   6.681   3.352 -0.2012  0.6863 -2.8362
  177DOPC  H12Y21707   5.419   6.804   3.331 -1.1087  0.5763  0.6509
  177DOPC  C31321708   5.502   6.639   3.447 -0.2099 -0.8025 -0.5124
  177DOPC  H13X21709   5.530   6.535   3.421 -1.2883 -1.4332  0.7159
  177DOPC  H13Y21710   5.599   6.691   3.440  0.8084 -2.6183 -0.4713
  177DOPC  C31421711   5.426   6.661   3.579 -0.2780  0.0085  0.4089
  177DOPC  H14X21712   5.403   6.768   3.597 -2.5294 -0.2481 -0.5114
  177DOPC  H14Y21713   5.327   6.610   3.582 -0.1226 -0.2637  0.9900
  177DOPC  C31521714   5.512   6.601   3.694  0.1780  0.7368  0.4512
  177DOPC  H15X21715   5.602   6.664   3.714  1.4480 -1.3708  1.8513
  177DOPC  H15Y21716   5.548   6.498   3.673 -0.8432  0.1068  1.6767
  177DOPC  C31621717   5.445   6.575   3.827 -0.0698  0.1216  0.0774
  177DOPC  H16X21718   5.400   6.665   3.874  2.4099  1.3251  0.2990
  177DOPC  H16Y21719   5.373   6.491   3.821  2.2857 -1.9389 -1.4734
  177DOPC  C31721720   5.548   6.526   3.929 -0.0824 -0.1773 -0.0449
  177DOPC  H17X21721   5.595   6.433   3.889 -0.8107 -1.0228  0.9988
  177DOPC  H17Y21722   5.633   6.596   3.943 -0.0408 -0.3594  0.6441
  177DOPC  C31821723   5.492   6.481   4.060 -0.1139  0.1308  0.1898
  177DOPC  H18X21724   5.578   6.462   4.127 -1.2165  0.4732  1.7534
  177DOPC  H18Y21725   5.419   6.550   4.108 -0.9352 -1.1568  0.8707
  177DOPC  H18Z21726   5.434   6.387   4.048 -2.0491  1.5300 -2.5668
  178DOPC     N21727   1.943   6.111   3.014  0.2252  0.4979  0.3757
  178DOPC   C1221728   1.911   5.968   2.983  0.0488 -0.2552  0.1739
  178DOPC  H12A21729   1.829   5.964   2.913  0.3842 -0.4595 -0.2090
  178DOPC  H12B21730   1.875   5.923   3.074  1.8957 -0.5596  0.7797
  178DOPC   C1321731   2.058   6.123   3.117 -0.1378  0.4753 -0.4050
  178DOPC  H13A21732   2.081   6.227   3.133  0.6547  0.2362  0.0323
  178DOPC  H13B21733   2.024   6.077   3.208  0.5289 -0.7647 -0.7613
  178DOPC  H13C21734   2.140   6.064   3.078  0.0401 -0.5260  1.4135
  178DOPC   C1421735   1.827   6.171   3.076  0.0326  0.0268  0.3453
  178DOPC  H14A21736   1.798   6.131   3.172  1.4565 -0.2208  0.6954
  178DOPC  H14B21737   1.842   6.276   3.093  0.4181 -0.1051  0.8300
  178DOPC  H14C21738   1.735   6.164   3.019 -2.0149  0.9232  3.3019
  178DOPC   C1521739   1.985   6.186   2.888  0.2012 -0.3307 -0.2393
  178DOPC  H15A21740   2.088   6.162   2.866  0.6791  1.5766 -0.2178
  178DOPC  H15B21741   1.969   6.292   2.898 -2.2626 -0.8372  3.0816
  178DOPC  H15C21742   1.924   6.149   2.807  0.5936  1.0134 -1.1745
  178DOPC   C1121743   2.016   5.875   2.918  0.4326 -0.4191 -0.1221
  178DOPC  H11A21744   1.976   5.783   2.870 -0.4213 -1.4068  2.3201
  178DOPC  H11B21745   2.073   5.931   2.840  1.2425 -1.8352 -0.5787
  178DOPC     P21746   2.049   5.732   3.117  0.2435  0.3203  0.0526
  178DOPC   O1321747   1.994   5.619   3.035  0.1010 -0.0244 -0.1779
  178DOPC   O1421748   1.955   5.790   3.216 -0.2073  0.7563  1.0505
  178DOPC   O1221749   2.108   5.841   3.014  0.0195  0.2993  0.2117
  178DOPC   O1121750   2.186   5.691   3.181  0.0360 -0.8099  0.1753
  178DOPC    C121751   2.175   5.665   3.326  0.0278 -0.0569  0.5285
  178DOPC    HA21752   2.267   5.609   3.353  0.7265  1.6315  1.7822
  178DOPC    HB21753   2.091   5.597   3.351 -1.7332  1.6025 -0.6052
  178DOPC    C221754   2.182   5.793   3.414  0.4049 -0.6613  0.1638
  178DOPC    HS21755   2.100   5.864   3.390  2.1682  2.6966  3.0609
  178DOPC   O2121756   2.303   5.860   3.371  0.2607 -0.1124 -0.0397
  178DOPC   C2121757   2.310   5.993   3.394  0.4875  0.1148  0.0687
  178DOPC   O2221758   2.219   6.065   3.433 -0.4161  0.4162  0.0328
  178DOPC   C2221759   2.444   6.044   3.355  0.0049 -0.5619 -0.4257
  178DOPC   H2R21760   2.432   6.154   3.357 -2.1932 -0.7621  0.0987
  178DOPC   H2S21761   2.470   6.012   3.252  0.4618  2.0324 -1.1640
  178DOPC    C321762   2.184   5.766   3.567 -0.0891 -0.1065 -0.1027
  178DOPC    HX21763   2.197   5.866   3.612  0.1251  0.6877 -1.8291
  178DOPC    HY21764   2.275   5.708   3.593  0.4683  1.2251  1.0034
  178DOPC   O3121765   2.065   5.703   3.616 -0.3090 -0.2821  0.1707
  178DOPC   C3121766   1.952   5.773   3.622  0.0214  0.3455 -0.8283
  178DOPC   O3221767   1.925   5.886   3.588 -0.3155 -0.2753 -0.4752
  178DOPC   C3221768   1.855   5.677   3.698  0.4972  0.2167  0.0134
  178DOPC   H2X21769   1.822   5.610   3.616 -0.0028  0.1156  0.2941
  178DOPC   H2Y21770   1.914   5.617   3.770  0.1632  0.4123  0.4501
  178DOPC   C2321771   2.547   5.989   3.464 -0.2950  0.4318  0.3554
  178DOPC   H3R21772   2.524   5.882   3.483 -2.7929  0.9952  0.9229
  178DOPC   H3S21773   2.545   6.051   3.557 -0.0014  2.4312 -0.9268
  178DOPC   C2421774   2.688   5.998   3.410 -0.0110  0.0508  0.1202
  178DOPC   H4R21775   2.701   6.103   3.373 -2.7651  0.7634  0.9160
  178DOPC   H4S21776   2.698   5.943   3.314  0.4222  0.8803 -0.3249
  178DOPC   C2521777   2.798   5.945   3.500  0.7212  0.1588 -0.0349
  178DOPC   H5R21778   2.894   5.963   3.448  0.3870  0.6871 -0.4702
  178DOPC   H5S21779   2.771   5.839   3.519  0.4723  0.3221  0.5774
  178DOPC   C2621780   2.804   6.012   3.636  0.0931 -0.8190 -0.0875
  178DOPC   H6R21781   2.701   6.024   3.677  0.5092 -1.5374  1.1973
  178DOPC   H6S21782   2.832   6.119   3.627 -3.5030  0.2095 -1.1699
  178DOPC   C2721783   2.892   5.931   3.738  0.2180 -0.2489  0.5395
  178DOPC   H7R21784   2.996   5.918   3.699  0.5864 -1.6192  1.8944
  178DOPC   H7S21785   2.849   5.829   3.733  0.7132 -0.4149 -1.7311
  178DOPC   C2821786   2.895   5.988   3.878 -0.7449 -0.5788  0.1674
  178DOPC   H8R21787   2.791   5.979   3.916 -1.1970 -2.1230 -1.2983
  178DOPC   H8S21788   2.930   6.093   3.885 -1.1849 -0.4721  0.8286
  178DOPC   C2921789   2.986   5.916   3.972  0.1304 -0.1692  0.5748
  178DOPC   H9R21790   3.077   5.888   3.916  0.1848  3.2014 -1.2590
  178DOPC  C21021791   2.972   5.905   4.106 -0.4854  0.5466 -0.1772
  178DOPC  H10R21792   3.061   5.864   4.155  0.5759 -0.0725 -2.4554
  178DOPC  C21121793   2.864   5.951   4.202  0.0351 -0.8200 -0.1019
  178DOPC  H11R21794   2.787   6.008   4.145 -1.6880 -3.2463 -0.3412
  178DOPC  H11S21795   2.909   6.014   4.282  0.5382  1.7327 -2.2580
  178DOPC  C21221796   2.806   5.817   4.248 -0.8226  0.4065  0.0040
  178DOPC  H12R21797   2.877   5.767   4.317  0.9233  0.9979 -1.2833
  178DOPC  H12S21798   2.786   5.739   4.171 -0.2615 -1.9195  2.0969
  178DOPC  C21321799   2.675   5.847   4.310  0.4309 -0.5054  0.0887
  178DOPC  H13R21800   2.618   5.914   4.243  1.5061 -1.5989 -2.0410
  178DOPC  H13S21801   2.694   5.908   4.401  1.1569 -1.5711  0.6740
  178DOPC  C21421802   2.591   5.720   4.336  0.4139  0.2741  0.4841
  178DOPC  H14R21803   2.634   5.662   4.420 -3.0963 -0.5675  1.8823
  178DOPC  H14S21804   2.585   5.662   4.242 -1.0071 -0.1142  0.7898
  178DOPC  C21521805   2.448   5.743   4.383  0.5481  0.1215  0.2577
  178DOPC  H15R21806   2.385   5.782   4.300 -0.8811  1.5876  1.9582
  178DOPC  H15S21807   2.455   5.829   4.453 -1.4897  0.0699  0.5761
  178DOPC  C21621808   2.366   5.632   4.457  0.0305  0.4389  0.7061
  178DOPC  H16R21809   2.413   5.613   4.556 -0.3023 -3.4970  0.2761
  178DOPC  H16S21810   2.389   5.540   4.399 -0.5926  0.4613  0.4105
  178DOPC  C21721811   2.219   5.662   4.460 -0.0507  0.2853 -0.3885
  178DOPC  H17R21812   2.173   5.680   4.360  0.7785 -2.1929 -1.2832
  178DOPC  H17S21813   2.210   5.756   4.518  0.4200  0.4178 -0.5297
  178DOPC  C21821814   2.136   5.557   4.528 -0.4461 -0.7106 -0.4745
  178DOPC  H18R21815   2.034   5.591   4.553 -1.0360 -3.1906  0.8398
  178DOPC  H18S21816   2.181   5.529   4.626  1.4601  2.9713 -0.1001
  178DOPC  H18T21817   2.126   5.464   4.469  0.2601 -0.6247 -0.7406
  178DOPC   C3321818   1.743   5.751   3.774  0.0336 -0.0059  0.7703
  178DOPC   H3X21819   1.663   5.678   3.796 -0.1987 -0.4930 -1.5017
  178DOPC   H3Y21820   1.698   5.820   3.700 -0.6399 -0.8280  0.4078
  178DOPC   C3421821   1.783   5.833   3.901 -0.4270  0.2021  0.3222
  178DOPC   H4X21822   1.700   5.907   3.912 -0.6842  0.3265 -2.0284
  178DOPC   H4Y21823   1.874   5.891   3.874 -1.2262  2.0732  1.3853
  178DOPC   C3521824   1.798   5.759   4.032 -0.0657 -0.0251  0.5113
  178DOPC   H5X21825   1.897   5.709   4.037 -0.7747 -2.4448 -3.8408
  178DOPC   H5Y21826   1.717   5.683   4.027 -0.3677  0.0926  2.7045
  178DOPC   C3621827   1.774   5.857   4.148 -0.8264 -0.1766 -0.6989
  178DOPC   H6X21828   1.839   5.946   4.134 -0.8794  0.0901  0.5682
  178DOPC   H6Y21829   1.668   5.890   4.155 -0.7800 -0.3194  1.3545
  178DOPC   C3721830   1.797   5.794   4.286 -0.5710 -0.3353 -0.3964
  178DOPC   H7X21831   1.731   5.705   4.297  1.0529 -1.9069 -2.5193
  178DOPC   H7Y21832   1.899   5.752   4.286 -0.6154 -0.6720 -3.4723
  178DOPC   C3821833   1.783   5.900   4.398 -0.3951  0.5084  0.1916
  178DOPC   H8X21834   1.684   5.943   4.368 -1.5508 -1.8145  0.4726
  178DOPC   H8Y21835   1.865   5.971   4.375 -1.0289  0.4982 -2.5437
  178DOPC   C3921836   1.782   5.854   4.543 -0.0868 -0.3291  0.3813
  178DOPC   H9X21837   1.878   5.855   4.598  0.5609  0.5181 -0.7327
  178DOPC  C31021838   1.668   5.826   4.614 -0.2797 -0.3120 -0.2975
  178DOPC  H10X21839   1.682   5.784   4.715 -1.1250  0.7751  0.2958
  178DOPC  C31121840   1.529   5.829   4.556 -0.3825 -0.6551 -0.6649
  178DOPC  H11X21841   1.531   5.805   4.447 -0.4932  0.2982 -0.8863
  178DOPC  H11Y21842   1.480   5.928   4.569 -1.9436 -1.3301 -1.1237
  178DOPC  C31221843   1.432   5.733   4.629 -0.0655 -0.2800 -0.1540
  178DOPC  H12X21844   1.410   5.762   4.733 -0.1375 -2.6566  0.5633
  178DOPC  H12Y21845   1.487   5.638   4.645  0.2125  0.0065  0.6153
  178DOPC  C31321846   1.299   5.719   4.562 -0.8741  0.1318 -0.0321
  178DOPC  H13X21847   1.263   5.822   4.545  0.6711  0.6412 -0.4387
  178DOPC  H13Y21848   1.292   5.666   4.465 -0.1818 -0.2647  0.1243
  178DOPC  C31421849   1.203   5.632   4.649 -0.5817  0.4524  0.6109
  178DOPC  H14X21850   1.240   5.527   4.639  1.1562  1.2505 -3.4526
  178DOPC  H14Y21851   1.214   5.667   4.753  0.5324 -0.7955  0.9468
  178DOPC  C31521852   1.057   5.637   4.598  0.4478 -0.4268  0.2553
  178DOPC  H15X21853   1.062   5.607   4.491  2.2222  0.4139  0.0625
  178DOPC  H15Y21854   1.029   5.744   4.604  1.2205 -0.1697 -0.5086
  178DOPC  C31621855   0.955   5.560   4.681  0.6111  0.1433 -0.2949
  178DOPC  H16X21856   0.935   5.602   4.782  0.9313  3.6079 -1.5360
  178DOPC  H16Y21857   0.856   5.571   4.633 -0.2493  0.6757  1.5153
  178DOPC  C31721858   0.995   5.411   4.700  0.1789 -0.1802 -0.3745
  178DOPC  H17X21859   1.020   5.369   4.600  0.2422  1.5243 -1.1260
  178DOPC  H17Y21860   1.086   5.397   4.761  1.3282  0.5487 -1.8488
  178DOPC  C31821861   0.873   5.339   4.771 -0.7881 -0.5579 -0.1003
  178DOPC  H18X21862   0.895   5.231   4.756 -1.2809 -0.4098 -2.1734
  178DOPC  H18Y21863   0.867   5.364   4.879  2.0839  1.1345 -0.2186
  178DOPC  H18Z21864   0.779   5.366   4.719  0.7448  3.6557 -1.1026
  179DOPC     N21865   7.285   5.817   1.665 -0.3494  0.0082  0.2097
  179DOPC   C1221866   7.308   5.776   1.808  0.0050  0.0680 -0.0787
  179DOPC  H12A21867   7.399   5.822   1.844 -1.2076  2.5132  0.0645
  179DOPC  H12B21868   7.318   5.668   1.811 -1.0390 -0.0620 -0.6647
  179DOPC   C1321869   7.266   5.966   1.661  0.0696 -0.0758 -0.2671
  179DOPC  H13A21870   7.177   5.991   1.717 -1.8635 -0.7647 -2.8228
  179DOPC  H13B21871   7.353   6.018   1.697  1.3328 -2.7032  0.7130
  179DOPC  H13C21872   7.240   5.996   1.560  3.2183 -1.6716 -1.6870
  179DOPC   C1421873   7.161   5.751   1.616  0.2096 -0.0126 -0.4050
  179DOPC  H14A21874   7.178   5.644   1.606  0.6786  0.0310 -0.0741
  179DOPC  H14B21875   7.075   5.763   1.680  0.7151 -0.5880  0.3929
  179DOPC  H14C21876   7.136   5.804   1.525  0.5848  0.4290 -0.2579
  179DOPC   C1521877   7.399   5.771   1.574 -0.7899  0.3175  0.3167
  179DOPC  H15A21878   7.497   5.806   1.601 -0.3624 -0.9761  0.5128
  179DOPC  H15B21879   7.383   5.799   1.471  0.3987  1.9189  0.5418
  179DOPC  H15C21880   7.414   5.664   1.575 -1.1565  0.1956 -2.0563
  179DOPC   C1121881   7.205   5.812   1.922  0.6479  0.0337 -0.1489
  179DOPC  H11A21882   7.246   5.794   2.024 -0.4593 -1.7183  0.0252
  179DOPC  H11B21883   7.182   5.921   1.921 -0.1158 -0.0341  2.5424
  179DOPC     P21884   7.034   5.619   1.967 -0.0312  0.1019  0.5132
  179DOPC   O1321885   7.150   5.545   2.017 -0.0128 -0.2718  0.1265
  179DOPC   O1421886   6.944   5.550   1.879  0.6291 -0.1242  0.8742
  179DOPC   O1221887   7.081   5.750   1.895  0.1284 -0.3651  0.5071
  179DOPC   O1121888   6.955   5.686   2.095 -0.0786 -0.6567  0.3879
  179DOPC    C121889   6.845   5.784   2.073 -0.7072  0.1389 -0.6623
  179DOPC    HA21890   6.792   5.760   1.979 -0.5045  0.0497 -0.7567
  179DOPC    HB21891   6.894   5.884   2.069  1.7843 -0.8659  1.4269
  179DOPC    C221892   6.741   5.770   2.192 -0.4698  0.3465 -0.6439
  179DOPC    HS21893   6.651   5.825   2.158 -0.5604 -0.5050 -1.8451
  179DOPC   O2121894   6.795   5.823   2.314 -0.3372  0.2894 -0.0584
  179DOPC   C2121895   6.776   5.955   2.326 -0.9626 -0.7934  0.4620
  179DOPC   O2221896   6.722   6.031   2.248  0.6586  0.4762  0.2778
  179DOPC   C2221897   6.834   6.000   2.461 -0.4155  0.0275 -0.8013
  179DOPC   H2R21898   6.927   6.051   2.430  0.0233 -0.9694 -1.1579
  179DOPC   H2S21899   6.850   5.910   2.524 -0.1968  2.0083  2.1793
  179DOPC    C321900   6.699   5.625   2.217 -0.3147  0.0429  0.2008
  179DOPC    HX21901   6.772   5.559   2.166 -1.6616  0.1004 -1.9381
  179DOPC    HY21902   6.607   5.604   2.159  1.7665 -1.8904 -2.6430
  179DOPC   O3121903   6.686   5.594   2.354  0.1992 -0.0733 -0.2966
  179DOPC   C3121904   6.586   5.633   2.435 -0.1865 -0.2243  0.1524
  179DOPC   O3221905   6.495   5.702   2.393  0.4939  0.0292  0.0302
  179DOPC   C3221906   6.590   5.556   2.571  0.4270  0.3310 -0.3432
  179DOPC   H2X21907   6.525   5.466   2.565 -1.0747  1.2450  1.1786
  179DOPC   H2Y21908   6.696   5.526   2.580 -0.0348 -1.3708 -0.2663
  179DOPC   C2321909   6.728   6.089   2.534  0.3645  0.4851 -0.0205
  179DOPC   H3R21910   6.683   6.150   2.453  0.9196  0.5330 -0.2999
  179DOPC   H3S21911   6.784   6.160   2.599  0.0832  1.0453 -0.3774
  179DOPC   C2421912   6.615   6.012   2.607 -0.4148 -0.7192 -0.4843
  179DOPC   H4R21913   6.663   5.933   2.669  0.2235 -1.2571 -1.6326
  179DOPC   H4S21914   6.547   5.976   2.528 -0.5400  1.2631 -1.3502
  179DOPC   C2521915   6.537   6.092   2.715 -0.5865 -0.3289 -0.6709
  179DOPC   H5R21916   6.473   6.165   2.661 -0.1851  3.0920  3.0120
  179DOPC   H5S21917   6.609   6.154   2.773 -3.1714  2.6552 -0.3892
  179DOPC   C2621918   6.464   5.998   2.812  0.1674  0.6380 -0.4331
  179DOPC   H6R21919   6.533   5.933   2.870  0.0272  0.5551 -0.3584
  179DOPC   H6S21920   6.399   5.928   2.755 -1.5942  1.4364  0.5162
  179DOPC   C2721921   6.373   6.067   2.916 -0.0422  0.3711  0.0111
  179DOPC   H7R21922   6.292   6.109   2.852 -0.2600 -0.4035 -0.2355
  179DOPC   H7S21923   6.442   6.142   2.962  0.3267 -0.8999  1.6139
  179DOPC   C2821924   6.323   5.979   3.034  0.4692 -0.2212 -0.0499
  179DOPC   H8R21925   6.275   6.058   3.096 -0.2878  0.7371 -1.7811
  179DOPC   H8S21926   6.406   5.948   3.101 -0.7769  0.8129  2.1069
  179DOPC   C2921927   6.216   5.880   2.991 -0.1831  0.6158  0.0420
  179DOPC   H9R21928   6.263   5.781   2.977  2.0453  1.0527  3.1845
  179DOPC  C21021929   6.086   5.904   2.997  0.1896  0.1039 -0.0882
  179DOPC  H10R21930   6.017   5.824   2.967  1.3239 -0.9800  0.1114
  179DOPC  C21121931   6.013   6.022   3.051 -0.3212 -0.3702  0.1226
  179DOPC  H11R21932   5.956   6.074   2.970 -0.8409  0.8738  1.2598
  179DOPC  H11S21933   6.083   6.092   3.100  0.5639 -0.6531 -0.7079
  179DOPC  C21221934   5.901   5.993   3.154  0.5308 -0.2674 -0.8898
  179DOPC  H12R21935   5.937   5.970   3.257  0.1114  0.8981 -0.4652
  179DOPC  H12S21936   5.838   5.910   3.117  0.3577 -0.6540  0.2317
  179DOPC  C21321937   5.811   6.112   3.182  0.1970  0.2859 -0.2477
  179DOPC  H13R21938   5.783   6.157   3.085 -2.4326 -1.9698 -0.6435
  179DOPC  H13S21939   5.862   6.181   3.253 -0.8193  1.6786 -0.8175
  179DOPC  C21421940   5.685   6.064   3.260 -0.4755  0.1050  0.7630
  179DOPC  H14R21941   5.620   5.992   3.207  0.8045 -0.2084 -0.4456
  179DOPC  H14S21942   5.619   6.153   3.267 -0.5029  0.1484 -0.0535
  179DOPC  C21521943   5.714   6.019   3.404 -0.1161 -0.2110  0.4440
  179DOPC  H15R21944   5.795   5.944   3.406  0.2779  0.1594 -0.7217
  179DOPC  H15S21945   5.639   5.957   3.458  0.9449 -0.0635  2.1810
  179DOPC  C21621946   5.757   6.138   3.492  0.4705 -0.2411  0.4466
  179DOPC  H16R21947   5.666   6.200   3.501 -0.1766 -1.0895 -0.1503
  179DOPC  H16S21948   5.832   6.204   3.442 -0.9505 -0.4351 -2.1158
  179DOPC  C21721949   5.803   6.107   3.635 -0.0925 -0.2966 -0.5875
  179DOPC  H17R21950   5.911   6.080   3.635 -0.0761 -0.2760  0.6008
  179DOPC  H17S21951   5.741   6.028   3.683 -0.7660 -0.0115 -0.9634
  179DOPC  C21821952   5.791   6.233   3.717 -0.0595  0.3942  0.3264
  179DOPC  H18R21953   5.827   6.323   3.663 -0.2961 -0.6089 -1.6040
  179DOPC  H18S21954   5.834   6.224   3.819 -1.1926 -1.9190  0.6748
  179DOPC  H18T21955   5.682   6.248   3.733 -0.2002  0.0095 -0.2236
  179DOPC   C3321956   6.544   5.639   2.695 -0.7580 -0.3299 -0.1761
  179DOPC   H3X21957   6.460   5.697   2.650 -0.8441 -0.4154 -0.1268
  179DOPC   H3Y21958   6.626   5.701   2.736  0.0027 -2.0865  1.0851
  179DOPC   C3421959   6.521   5.548   2.820  0.2432 -0.3260 -0.1914
  179DOPC   H4X21960   6.508   5.617   2.906  0.2902 -0.5877  0.0276
  179DOPC   H4Y21961   6.613   5.488   2.830  1.4734  1.4198 -0.5584
  179DOPC   C3521962   6.398   5.464   2.821  0.0287 -0.1681 -0.2061
  179DOPC   H5X21963   6.414   5.375   2.757 -1.9415 -1.9649  1.6546
  179DOPC   H5Y21964   6.311   5.531   2.802 -0.9831 -0.8282  1.7967
  179DOPC   C3621965   6.355   5.409   2.964  0.2936  0.1655  0.3624
  179DOPC   H6X21966   6.288   5.480   3.017 -1.5753 -0.6020 -0.8268
  179DOPC   H6Y21967   6.303   5.311   2.962  0.5881 -0.0021  0.7232
  179DOPC   C3721968   6.479   5.384   3.056  0.2232  0.4047  0.1135
  179DOPC   H7X21969   6.550   5.317   3.003 -1.9699 -2.5053  0.6202
  179DOPC   H7Y21970   6.529   5.483   3.070  0.3455  0.6208 -1.6333
  179DOPC   C3821971   6.436   5.317   3.189  0.0033  0.6712 -0.7255
  179DOPC   H8X21972   6.377   5.223   3.197  0.5717  0.3761  0.1463
  179DOPC   H8Y21973   6.385   5.383   3.262  1.1077 -1.1855  1.9024
  179DOPC   C3921974   6.566   5.296   3.272  0.0501  0.3946  0.4673
  179DOPC   H9X21975   6.626   5.388   3.277  0.0304  0.5443 -1.2961
  179DOPC  C31021976   6.604   5.183   3.344  0.7116  0.3974  0.3745
  179DOPC  H10X21977   6.705   5.188   3.386  1.1361 -2.8573 -0.0220
  179DOPC  C31121978   6.530   5.049   3.359  0.0896 -0.3567  0.0370
  179DOPC  H11X21979   6.602   4.964   3.356 -0.3885 -0.7361 -1.2092
  179DOPC  H11Y21980   6.462   5.040   3.272  0.3763  2.1509 -0.5181
  179DOPC  C31221981   6.439   5.047   3.485  0.3170 -0.3146  0.2021
  179DOPC  H12X21982   6.370   4.961   3.473  0.0009  0.1068 -1.1105
  179DOPC  H12Y21983   6.386   5.144   3.484 -0.4897 -0.7493 -1.2594
  179DOPC  C31321984   6.523   5.029   3.611 -0.4969 -0.6520 -0.0570
  179DOPC  H13X21985   6.570   4.928   3.608  0.0858 -0.4541  1.7016
  179DOPC  H13Y21986   6.593   5.115   3.616 -1.0181 -0.3045  2.0737
  179DOPC  C31421987   6.439   5.029   3.737 -0.0553 -0.8487 -0.0826
  179DOPC  H14X21988   6.405   5.133   3.751  1.3045 -0.5790  1.4346
  179DOPC  H14Y21989   6.356   4.956   3.726  0.0082 -0.8519 -0.5565
  179DOPC  C31521990   6.524   5.001   3.852  0.3047 -0.3676  0.8660
  179DOPC  H15X21991   6.616   5.063   3.843 -1.0338  1.5051 -0.4488
  179DOPC  H15Y21992   6.548   4.892   3.842 -1.0275 -0.8890  2.8746
  179DOPC  C31621993   6.451   5.027   3.987 -0.1067 -0.6093 -0.1199
  179DOPC  H16X21994   6.514   4.998   4.073  0.9743  3.6853  0.7940
  179DOPC  H16Y21995   6.423   5.134   3.997  2.3797  0.1441 -0.4725
  179DOPC  C31721996   6.322   4.949   3.998 -0.2145  0.5704 -0.2129
  179DOPC  H17X21997   6.249   4.987   3.923  0.0076 -0.6658 -1.0823
  179DOPC  H17Y21998   6.334   4.842   3.972 -2.5348  0.4377 -0.9752
  179DOPC  C31821999   6.278   4.958   4.146  0.7981 -0.5501 -0.0810
  179DOPC  H18X22000   6.264   5.064   4.177 -4.1458 -0.6262 -1.1483
  179DOPC  H18Y22001   6.179   4.918   4.174 -0.4905  2.5908  0.2659
  179DOPC  H18Z22002   6.356   4.901   4.200 -0.4986 -2.5676 -0.2407
  180DOPC     N22003   6.045   4.184   1.861 -0.6314 -0.7718  0.5045
  180DOPC   C1222004   6.131   4.074   1.822  1.0545  0.3530 -0.7130
  180DOPC  H12A22005   6.214   4.117   1.767  2.0436  0.7165  0.9866
  180DOPC  H12B22006   6.076   4.002   1.762 -0.9627  1.4351 -0.2336
  180DOPC   C1322007   5.981   4.246   1.737 -0.1370  0.0761 -0.5640
  180DOPC  H13A22008   5.931   4.338   1.762 -0.3781 -0.2157  0.0565
  180DOPC  H13B22009   6.049   4.283   1.662 -1.5720  2.4933 -0.7755
  180DOPC  H13C22010   5.922   4.172   1.684  1.2654  1.1324 -3.8065
  180DOPC   C1422011   6.130   4.287   1.930  0.2930  0.1665 -0.2601
  180DOPC  H14A22012   6.179   4.356   1.863 -1.0294  0.9048 -0.4994
  180DOPC  H14B22013   6.074   4.353   1.995 -1.1326  0.2161 -1.4936
  180DOPC  H14C22014   6.200   4.238   1.997 -0.9134 -0.9774  0.2098
  180DOPC   C1522015   5.936   4.138   1.947 -0.5479  0.2061  0.2545
  180DOPC  H15A22016   5.896   4.218   2.007 -2.6507  0.2279 -1.0834
  180DOPC  H15B22017   5.979   4.060   2.009  0.5938 -0.7860 -1.6978
  180DOPC  H15C22018   5.861   4.102   1.878  2.0833 -0.5025 -2.4584
  180DOPC   C1122019   6.207   3.991   1.933 -0.0247  0.4832  0.3558
  180DOPC  H11A22020   6.285   3.933   1.879 -0.8695 -1.4729  1.1303
  180DOPC  H11B22021   6.261   4.057   2.004  0.0667  0.7334  0.0553
  180DOPC     P22022   6.072   3.765   1.971  0.4134 -0.0149 -0.1140
  180DOPC   O1322023   6.165   3.662   2.027 -0.5677  0.0300  0.3712
  180DOPC   O1422024   6.037   3.751   1.826  0.2080 -0.2564 -0.0518
  180DOPC   O1222025   6.122   3.909   2.008  0.8977 -0.2791  0.0378
  180DOPC   O1122026   5.940   3.748   2.049 -0.3238 -0.2546 -0.0314
  180DOPC    C122027   5.917   3.816   2.174 -0.2450 -0.3284 -0.5679
  180DOPC    HA22028   5.810   3.822   2.201 -0.8277 -0.0113 -2.7711
  180DOPC    HB22029   5.954   3.921   2.179  2.0450 -1.1222  0.4831
  180DOPC    C222030   6.007   3.759   2.298  0.4001  0.0935  0.5159
  180DOPC    HS22031   6.111   3.789   2.274  0.1589  0.0851 -0.5729
  180DOPC   O2122032   5.977   3.620   2.314  0.0197  0.6027  0.0892
  180DOPC   C2122033   6.083   3.547   2.360  0.0026  0.2664 -0.1289
  180DOPC   O2222034   6.193   3.593   2.376  0.0402  0.1697 -0.7656
  180DOPC   C2222035   6.046   3.404   2.372  0.4559 -0.1012  0.3481
  180DOPC   H2R22036   6.010   3.362   2.276 -3.8386  1.4204  1.0577
  180DOPC   H2S22037   5.950   3.391   2.428  0.0123  1.0872 -0.1167
  180DOPC    C322038   5.973   3.841   2.434 -0.6833 -0.3400 -0.0949
  180DOPC    HX22039   5.865   3.819   2.451 -0.4953 -1.6475 -0.5040
  180DOPC    HY22040   5.981   3.952   2.427  0.6215 -0.1396  2.9796
  180DOPC   O3122041   6.065   3.811   2.541 -0.3292 -0.6020 -0.2754
  180DOPC   C3122042   6.016   3.846   2.659  0.2215 -0.4885 -0.3949
  180DOPC   O3222043   5.916   3.909   2.678  0.1225 -0.3223  0.1310
  180DOPC   C3222044   6.112   3.799   2.769  0.4002 -0.1321 -0.6029
  180DOPC   H2X22045   6.125   3.689   2.762  0.0251 -0.1599 -0.8707
  180DOPC   H2Y22046   6.210   3.848   2.749  1.4585 -2.2608 -0.9135
  180DOPC   C2322047   6.159   3.329   2.435  1.3242  0.3893  0.1111
  180DOPC   H3R22048   6.246   3.337   2.366  0.6643  0.6537 -0.7098
  180DOPC   H3S22049   6.128   3.222   2.432  0.6050  0.5904 -2.6916
  180DOPC   C2422050   6.186   3.366   2.582  0.3370 -0.1831 -0.2713
  180DOPC   H4R22051   6.245   3.460   2.590  0.5925 -0.1851 -1.8422
  180DOPC   H4S22052   6.247   3.281   2.620  1.3379  1.0287  0.9522
  180DOPC   C2522053   6.062   3.370   2.663  0.0258  0.2905 -0.0346
  180DOPC   H5R22054   5.991   3.287   2.638  0.2597 -0.1162  0.6241
  180DOPC   H5S22055   6.003   3.460   2.636  0.8688  0.9144  0.2001
  180DOPC   C2622056   6.075   3.379   2.817 -0.6734 -0.3969 -0.6732
  180DOPC   H6R22057   6.146   3.463   2.832 -0.4148 -0.8347  0.6698
  180DOPC   H6S22058   6.117   3.283   2.854 -0.5136  0.0168  0.2551
  180DOPC   C2722059   5.950   3.408   2.899  0.3515 -0.1659  0.7793
  180DOPC   H7R22060   5.886   3.322   2.871  0.5118 -0.7341  2.0594
  180DOPC   H7S22061   5.900   3.504   2.874 -1.3936 -1.8358 -2.8894
  180DOPC   C2822062   5.982   3.405   3.048  0.3607 -0.2758  0.0888
  180DOPC   H8R22063   6.031   3.307   3.068 -1.2819 -1.0694  0.3632
  180DOPC   H8S22064   5.881   3.395   3.092  0.2159 -1.5437 -0.4886
  180DOPC   C2922065   6.066   3.513   3.104 -0.6646  0.8718  0.1651
  180DOPC   H9R22066   6.127   3.562   3.025  1.2952 -0.9434  0.4702
  180DOPC  C21022067   6.078   3.549   3.231 -0.3110  0.0710 -0.7386
  180DOPC  H10R22068   6.146   3.629   3.262  1.0468 -2.5563  3.9768
  180DOPC  C21122069   6.002   3.488   3.348 -0.5240 -0.0451 -0.1590
  180DOPC  H11R22070   6.070   3.431   3.414  0.7629  2.0824  0.4669
  180DOPC  H11S22071   5.928   3.415   3.311 -2.4027  2.2543 -1.2243
  180DOPC  C21222072   5.934   3.601   3.427 -0.5414 -0.5944  0.0317
  180DOPC  H12R22073   5.838   3.632   3.380  1.1712  2.5570 -1.7561
  180DOPC  H12S22074   6.008   3.684   3.435 -0.4108 -0.5503 -1.3341
  180DOPC  C21322075   5.899   3.559   3.574 -0.0003  0.3681  0.0581
  180DOPC  H13R22076   5.994   3.513   3.609  0.6702  1.5076 -0.2229
  180DOPC  H13S22077   5.820   3.481   3.577  0.8092 -0.4514  2.1407
  180DOPC  C21422078   5.872   3.679   3.661  0.8226 -0.1798 -0.2514
  180DOPC  H14R22079   5.777   3.723   3.625  1.0775 -0.3522 -1.1814
  180DOPC  H14S22080   5.939   3.766   3.644  1.0232 -0.1860  0.4752
  180DOPC  C21522081   5.868   3.659   3.812  0.4599 -0.0039 -0.3395
  180DOPC  H15R22082   5.973   3.640   3.842  0.5837 -0.8232 -1.2263
  180DOPC  H15S22083   5.802   3.572   3.834  1.3095 -0.8379 -0.9798
  180DOPC  C21622084   5.809   3.783   3.891 -0.0043 -0.1335  0.4903
  180DOPC  H16R22085   5.719   3.822   3.838  0.1583  2.8649  2.2259
  180DOPC  H16S22086   5.883   3.865   3.882 -0.3672  0.3390  1.6008
  180DOPC  C21722087   5.778   3.757   4.039 -0.1481  0.2175  0.2369
  180DOPC  H17R22088   5.685   3.698   4.056  0.9924 -1.8807 -0.4156
  180DOPC  H17S22089   5.746   3.855   4.080  0.5484 -0.0022  1.3467
  180DOPC  C21822090   5.886   3.701   4.127 -0.4782 -0.7964 -0.0436
  180DOPC  H18R22091   5.875   3.726   4.235  0.8631  0.1299 -0.0890
  180DOPC  H18S22092   5.984   3.751   4.107 -1.1419  0.2539 -0.7331
  180DOPC  H18T22093   5.900   3.591   4.119  0.7128 -0.5229 -2.4564
  180DOPC   C3322094   6.066   3.836   2.922  0.3497  0.1581 -0.7732
  180DOPC   H3X22095   5.999   3.753   2.952 -0.3644  1.2111  0.7001
  180DOPC   H3Y22096   6.002   3.927   2.930  0.6389  0.2226  1.3347
  180DOPC   C3422097   6.173   3.828   3.033  0.7347 -0.0360  0.2626
  180DOPC   H4X22098   6.245   3.746   3.012  0.9682  0.1969  0.1508
  180DOPC   H4Y22099   6.129   3.818   3.134  2.0132  1.1523  0.9735
  180DOPC   C3522100   6.251   3.956   3.051  0.3928  0.0785 -0.3672
  180DOPC   H5X22101   6.202   4.053   3.074 -0.5344 -0.2510 -0.9110
  180DOPC   H5Y22102   6.309   3.979   2.959  0.7390  2.1459  0.3217
  180DOPC   C3622103   6.362   3.938   3.158 -0.1044  0.1658 -0.0017
  180DOPC   H6X22104   6.424   3.852   3.125  2.6539  2.0261  0.0007
  180DOPC   H6Y22105   6.435   4.021   3.161  1.2790 -0.9612 -0.9223
  180DOPC   C3722106   6.316   3.932   3.307 -0.5926  0.3276  0.9804
  180DOPC   H7X22107   6.244   3.847   3.309 -1.4647  1.0263  0.1475
  180DOPC   H7Y22108   6.410   3.906   3.359  0.3302 -1.2215 -1.3015
  180DOPC   C3822109   6.242   4.059   3.350 -0.2020  0.0074 -0.5477
  180DOPC   H8X22110   6.160   4.097   3.286 -0.1162 -0.7660 -1.1207
  180DOPC   H8Y22111   6.319   4.139   3.347  1.2564 -1.1010  2.6101
  180DOPC   C3922112   6.202   4.053   3.500  0.4086  0.0470  0.1095
  180DOPC   H9X22113   6.145   3.963   3.528  1.2326 -0.1950  1.0814
  180DOPC  C31022114   6.234   4.142   3.596 -0.3075 -0.3676 -0.3688
  180DOPC  H10X22115   6.206   4.123   3.701 -0.8603 -1.1056 -0.6380
  180DOPC  C31122116   6.313   4.264   3.572 -0.4779 -0.2626  0.0920
  180DOPC  H11X22117   6.316   4.342   3.652  3.6051 -1.9328  1.8774
  180DOPC  H11Y22118   6.265   4.317   3.487 -0.7690  0.9638  0.9846
  180DOPC  C31222119   6.464   4.229   3.548 -0.1362 -0.5986  0.1843
  180DOPC  H12X22120   6.502   4.321   3.497  1.9645 -2.4808 -1.9194
  180DOPC  H12Y22121   6.467   4.150   3.469 -1.5800 -0.6586  0.1654
  180DOPC  C31322122   6.552   4.197   3.671 -0.0776  0.2291 -0.4777
  180DOPC  H13X22123   6.588   4.293   3.714  0.0189 -0.4809  1.0981
  180DOPC  H13Y22124   6.492   4.155   3.754  0.4891  1.1817  0.4486
  180DOPC  C31422125   6.666   4.105   3.643  0.3985  0.8216  0.5376
  180DOPC  H14X22126   6.627   4.019   3.584 -0.8000  0.9744  1.0843
  180DOPC  H14Y22127   6.739   4.165   3.585 -2.1653  2.0534 -1.5882
  180DOPC  C31522128   6.735   4.061   3.772 -0.1364  0.5346 -0.0612
  180DOPC  H15X22129   6.653   4.033   3.841 -0.0696 -0.0640 -0.2231
  180DOPC  H15Y22130   6.773   4.157   3.813 -0.7573  0.8293 -0.1672
  180DOPC  C31622131   6.851   3.966   3.760 -0.9155  0.3723 -0.0407
  180DOPC  H16X22132   6.816   3.862   3.777  1.4163 -0.5365 -0.4616
  180DOPC  H16Y22133   6.905   3.981   3.664 -2.0078  0.0402 -0.7317
  180DOPC  C31722134   6.950   3.995   3.877  0.0095  0.0341  0.3336
  180DOPC  H17X22135   6.984   4.100   3.868  0.6836 -0.2990 -1.3867
  180DOPC  H17Y22136   6.902   3.983   3.977  0.7865 -0.9605  0.6059
  180DOPC  C31822137   7.073   3.902   3.877 -0.0272 -0.0000  0.7374
  180DOPC  H18X22138   7.045   3.795   3.872 -1.4964  0.4001 -0.0411
  180DOPC  H18Y22139   7.138   3.941   3.795  0.1103 -1.3487  0.1843
  180DOPC  H18Z22140   7.134   3.912   3.969 -1.5582  0.2367  1.7540
  181DOPC     N22141   6.425   2.038   1.945  0.2349 -0.1477  0.3910
  181DOPC   C1222142   6.500   2.137   2.032  0.0872  0.5772 -0.1307
  181DOPC  H12A22143   6.541   2.216   1.971 -0.5389  2.0414  1.2800
  181DOPC  H12B22144   6.581   2.082   2.080 -1.6526 -0.4914  1.7270
  181DOPC   C1322145   6.374   1.925   2.030 -0.4804 -0.0797 -0.1030
  181DOPC  H13A22146   6.323   1.852   1.968  0.7516 -0.1586 -1.0549
  181DOPC  H13B22147   6.451   1.882   2.092  1.9738  1.8730 -1.6179
  181DOPC  H13C22148   6.300   1.960   2.100  1.1046  0.0466  1.5587
  181DOPC   C1422149   6.507   1.981   1.832  0.1123 -0.5412  0.6517
  181DOPC  H14A22150   6.520   2.071   1.773 -0.8386  0.9470  2.6044
  181DOPC  H14B22151   6.598   1.938   1.869  0.0062 -1.9887 -0.6627
  181DOPC  H14C22152   6.447   1.917   1.769  0.0956 -0.6389  0.7688
  181DOPC   C1522153   6.306   2.104   1.877 -0.9798  0.3001 -0.1217
  181DOPC  H15A22154   6.334   2.164   1.791 -1.4535  3.0259  1.5096
  181DOPC  H15B22155   6.254   2.159   1.954  1.5757  1.6364  0.7734
  181DOPC  H15C22156   6.251   2.022   1.833  1.0480 -0.4115 -1.4997
  181DOPC   C1122157   6.414   2.191   2.149 -0.3693 -0.5048 -0.3200
  181DOPC  H11A22158   6.385   2.107   2.216  0.7193 -0.5194  0.1502
  181DOPC  H11B22159   6.481   2.255   2.211 -0.9816 -1.3404  1.2717
  181DOPC     P22160   6.290   2.410   2.107  0.4533  0.0124 -0.0771
  181DOPC   O1322161   6.161   2.443   2.044 -0.6139  0.3708 -0.1204
  181DOPC   O1422162   6.407   2.472   2.043  0.8229 -0.6065  0.4965
  181DOPC   O1222163   6.300   2.253   2.108  0.1767  0.3101  0.0662
  181DOPC   O1122164   6.277   2.449   2.263  0.3317 -0.3832 -0.0351
  181DOPC    C122165   6.160   2.394   2.328 -0.5948  0.1644 -0.1190
  181DOPC    HA22166   6.146   2.284   2.315 -0.2341 -0.2992  2.7850
  181DOPC    HB22167   6.073   2.447   2.285 -0.8696 -0.1824  0.0122
  181DOPC    C222168   6.154   2.415   2.477 -0.2874 -0.2443 -0.1158
  181DOPC    HS22169   6.176   2.523   2.488  2.7500 -0.8050  0.1226
  181DOPC   O2122170   6.263   2.340   2.531  0.4038 -0.0700 -0.0553
  181DOPC   C2122171   6.299   2.388   2.654  0.8282  0.0888 -0.1331
  181DOPC   O2222172   6.262   2.500   2.694 -0.0825  0.2022 -0.0678
  181DOPC   C2222173   6.379   2.279   2.724  0.2230 -0.4914 -0.2834
  181DOPC   H2R22174   6.443   2.227   2.648  2.8996  1.2311  0.6626
  181DOPC   H2S22175   6.310   2.207   2.773 -1.3161  0.0498 -1.5707
  181DOPC    C322176   6.018   2.369   2.533  0.2514 -0.4169  0.0830
  181DOPC    HX22177   6.016   2.263   2.501 -0.2097 -0.7380  1.1357
  181DOPC    HY22178   5.942   2.428   2.477  1.1444 -0.3196 -1.0800
  181DOPC   O3122179   6.009   2.387   2.675 -0.0557  0.2889  0.1766
  181DOPC   C3122180   5.919   2.474   2.721 -0.1941 -0.1692  0.4651
  181DOPC   O3222181   5.851   2.554   2.662 -0.2852  0.1561  0.9800
  181DOPC   C3222182   5.917   2.449   2.874 -0.0272 -0.2582 -0.1634
  181DOPC   H2X22183   5.892   2.342   2.888  3.2070 -1.0324  0.3477
  181DOPC   H2Y22184   6.021   2.453   2.911 -0.0777  0.0144 -0.0435
  181DOPC   C2322185   6.469   2.345   2.827 -0.2995  0.2341 -0.3237
  181DOPC   H3R22186   6.528   2.429   2.786 -1.5951  0.1195 -2.5547
  181DOPC   H3S22187   6.539   2.268   2.866  0.5603  1.3932  0.4933
  181DOPC   C2422188   6.385   2.385   2.952 -0.7910  0.5663 -0.2916
  181DOPC   H4R22189   6.318   2.300   2.976  0.8266 -0.7064 -0.1079
  181DOPC   H4S22190   6.329   2.477   2.923 -0.0045  0.6774 -1.5088
  181DOPC   C2522191   6.473   2.410   3.082 -0.4445  0.4843  0.2222
  181DOPC   H5R22192   6.480   2.520   3.098  0.7775  0.7152 -1.6227
  181DOPC   H5S22193   6.578   2.384   3.058 -0.5658  0.7470 -0.6263
  181DOPC   C2622194   6.434   2.336   3.215  0.0695 -0.1877 -0.0977
  181DOPC   H6R22195   6.391   2.235   3.201 -3.6231  1.1298  0.5293
  181DOPC   H6S22196   6.354   2.389   3.272 -0.3596 -1.7913  0.8285
  181DOPC   C2722197   6.550   2.342   3.320  0.5713  0.5397 -0.3420
  181DOPC   H7R22198   6.578   2.449   3.330  0.0827  0.5525  0.9879
  181DOPC   H7S22199   6.639   2.292   3.276 -1.1901 -3.3638  0.1345
  181DOPC   C2822200   6.509   2.287   3.456 -0.0398 -0.4605  0.1006
  181DOPC   H8R22201   6.491   2.177   3.452  1.7307 -0.9767  3.1848
  181DOPC   H8S22202   6.416   2.344   3.476  1.5966  2.8151 -0.8779
  181DOPC   C2922203   6.610   2.300   3.565  0.3877 -0.4756 -0.6031
  181DOPC   H9R22204   6.686   2.220   3.561 -0.0706 -1.0447  1.1538
  181DOPC  C21022205   6.627   2.384   3.667 -0.4613 -0.0968 -0.0280
  181DOPC  H10R22206   6.720   2.376   3.724 -1.1595  1.5140  1.4221
  181DOPC  C21122207   6.550   2.507   3.712  0.2195 -0.3018  0.9475
  181DOPC  H11R22208   6.561   2.529   3.821 -1.0312  0.0289  1.0203
  181DOPC  H11S22209   6.442   2.487   3.698  0.4617 -0.6950 -0.4630
  181DOPC  C21222210   6.591   2.628   3.633 -0.1587 -0.0453  0.1380
  181DOPC  H12R22211   6.530   2.716   3.662 -0.9200 -0.0020 -1.4784
  181DOPC  H12S22212   6.578   2.624   3.522 -2.5362 -0.6819  0.3875
  181DOPC  C21322213   6.735   2.660   3.673 -0.7156 -0.0258  0.0351
  181DOPC  H13R22214   6.803   2.573   3.665 -0.5871 -0.0629  1.3075
  181DOPC  H13S22215   6.739   2.687   3.781  2.6505 -2.5825  0.7030
  181DOPC  C21422216   6.790   2.776   3.581 -0.5482  0.7488  0.3565
  181DOPC  H14R22217   6.802   2.740   3.476 -1.4121  3.0836 -0.6348
  181DOPC  H14S22218   6.887   2.798   3.631 -1.0116 -0.7591  1.9979
  181DOPC  C21522219   6.717   2.913   3.584  0.1411 -0.6853  1.1001
  181DOPC  H15R22220   6.772   2.970   3.662  0.5809 -1.9298  1.7307
  181DOPC  H15S22221   6.614   2.901   3.622  0.1164 -2.7952  0.4844
  181DOPC  C21622222   6.704   2.967   3.440 -0.8474 -0.4791 -0.0942
  181DOPC  H16R22223   6.658   3.066   3.457  0.6330 -0.0555  1.7074
  181DOPC  H16S22224   6.634   2.907   3.378 -1.0617  0.1858 -0.5028
  181DOPC  C21722225   6.842   2.982   3.370 -0.3380  0.2485  0.3604
  181DOPC  H17R22226   6.893   2.884   3.367 -1.9220 -0.6063  0.4737
  181DOPC  H17S22227   6.908   3.051   3.427 -2.0516  2.2730  0.0338
  181DOPC  C21822228   6.833   3.059   3.234  0.6040  0.3760 -0.0408
  181DOPC  H18R22229   6.937   3.073   3.196  0.7398  0.1546  0.2499
  181DOPC  H18S22230   6.793   3.162   3.249  2.9640  1.5953 -1.3957
  181DOPC  H18T22231   6.780   3.002   3.155 -3.7512  0.7110  2.3332
  181DOPC   C3322232   5.826   2.557   2.943  0.5884  0.4071  0.3772
  181DOPC   H3X22233   5.719   2.534   2.924  0.7955 -0.8771  0.6487
  181DOPC   H3Y22234   5.842   2.660   2.905  0.5137  0.5341  0.6849
  181DOPC   C3422235   5.842   2.566   3.092 -0.6961 -0.0846 -0.5066
  181DOPC   H4X22236   5.799   2.663   3.126 -0.1105 -0.1933  0.5705
  181DOPC   H4Y22237   5.950   2.574   3.117 -0.3536 -0.7344 -1.7073
  181DOPC   C3522238   5.789   2.443   3.166  0.2773 -0.1970 -0.4286
  181DOPC   H5X22239   5.839   2.348   3.137 -1.1696 -1.5116  1.1739
  181DOPC   H5Y22240   5.680   2.421   3.158  0.0523  0.8719 -0.4841
  181DOPC   C3622241   5.816   2.452   3.318  0.5920 -0.5972  0.7900
  181DOPC   H6X22242   5.925   2.463   3.337  1.4741 -1.8985 -2.7038
  181DOPC   H6Y22243   5.762   2.540   3.359  0.4489 -0.6866  0.7944
  181DOPC   C3722244   5.757   2.331   3.391 -0.4595  0.5551  0.1119
  181DOPC   H7X22245   5.646   2.342   3.398 -0.5384 -0.5477  0.8123
  181DOPC   H7Y22246   5.772   2.235   3.338  1.8617  0.3308  1.0544
  181DOPC   C3822247   5.809   2.331   3.543 -0.4299 -0.7426  0.1649
  181DOPC   H8X22248   5.920   2.333   3.535 -0.5609 -0.7258 -2.3564
  181DOPC   H8Y22249   5.774   2.234   3.586 -1.2486 -1.6451 -2.3469
  181DOPC   C3922250   5.765   2.454   3.627  0.2641  0.8201  0.1489
  181DOPC   H9X22251   5.744   2.540   3.563 -2.5063 -0.1137 -0.3708
  181DOPC  C31022252   5.762   2.473   3.757 -0.1545 -0.3098 -0.6320
  181DOPC  H10X22253   5.722   2.567   3.797  2.6534  1.7240 -2.2400
  181DOPC  C31122254   5.813   2.367   3.851 -0.6836  0.0562 -0.1037
  181DOPC  H11X22255   5.897   2.411   3.909 -0.7381 -0.5886  0.4813
  181DOPC  H11Y22256   5.838   2.274   3.796 -0.4602  1.5471 -2.6479
  181DOPC  C31222257   5.708   2.322   3.960 -0.3667  0.5517 -0.6730
  181DOPC  H12X22258   5.684   2.398   4.038 -0.3519 -1.2550  1.1457
  181DOPC  H12Y22259   5.762   2.253   4.027 -0.4597  0.0200 -1.1341
  181DOPC  C31322260   5.576   2.257   3.927  0.5097  0.5077 -0.2480
  181DOPC  H13X22261   5.515   2.327   3.866  1.5023  0.2449 -1.5842
  181DOPC  H13Y22262   5.592   2.163   3.870  3.6295  0.3095  0.7936
  181DOPC  C31422263   5.498   2.210   4.051  0.7361 -0.0668 -0.2723
  181DOPC  H14X22264   5.552   2.135   4.113  0.0958 -1.2728 -1.1152
  181DOPC  H14Y22265   5.482   2.300   4.114  0.6830 -1.8814  2.5087
  181DOPC  C31522266   5.364   2.137   4.020  0.6607 -0.7383  0.0064
  181DOPC  H15X22267   5.337   2.161   3.915 -0.3742  4.8840  1.2303
  181DOPC  H15Y22268   5.286   2.190   4.079  1.1821  0.0629 -0.0142
  181DOPC  C31622269   5.363   1.993   4.061  0.0444  0.7599  0.3063
  181DOPC  H16X22270   5.448   1.941   4.012  0.2425  0.6831  0.7225
  181DOPC  H16Y22271   5.379   1.999   4.171 -1.4356  3.2243  0.4564
  181DOPC  C31722272   5.229   1.928   4.029  0.6495  0.6260  0.6171
  181DOPC  H17X22273   5.205   1.929   3.921  0.0799 -0.9377  0.7048
  181DOPC  H17Y22274   5.231   1.819   4.052  0.0458  0.6569  0.8293
  181DOPC  C31822275   5.110   1.980   4.116 -0.6042  0.5092  0.4770
  181DOPC  H18X22276   5.093   2.082   4.076  1.3053  0.0965 -1.5503
  181DOPC  H18Y22277   5.019   1.917   4.106 -0.2279 -0.3170  1.8927
  181DOPC  H18Z22278   5.141   1.991   4.223 -1.1029 -2.8947  1.0695
  182DOPC     N22279   2.190   0.026   2.594  0.5727 -0.2504 -0.4911
  182DOPC   C1222280   2.111   0.025   2.725  0.0359  0.6277 -0.4376
  182DOPC  H12A22281   2.132  -0.073   2.766  1.8110  1.3167  0.4159
  182DOPC  H12B22282   2.007   0.051   2.711 -0.5654 -1.0322  0.6402
  182DOPC   C1322283   2.212   0.166   2.538 -0.2535  0.0791  0.6429
  182DOPC  H13A22284   2.271   0.162   2.448 -0.7412  0.8785  0.2792
  182DOPC  H13B22285   2.118   0.219   2.534  0.2030  0.8717  0.2245
  182DOPC  H13C22286   2.268   0.223   2.611 -0.8116  0.8808  0.4522
  182DOPC   C1422287   2.110  -0.046   2.489 -0.0601 -0.7415 -0.0262
  182DOPC  H14A22288   2.177  -0.060   2.405  0.8500 -1.4533  0.8031
  182DOPC  H14B22289   2.082  -0.142   2.528 -1.0905 -0.1301  0.8056
  182DOPC  H14C22290   2.019   0.003   2.457 -0.5291 -0.6602  1.3767
  182DOPC   C1522291   2.317  -0.039   2.611 -0.1574  0.8507  0.0125
  182DOPC  H15A22292   2.305  -0.124   2.678 -0.9135  1.3079  0.4748
  182DOPC  H15B22293   2.399   0.020   2.649  0.8540 -1.3800  1.5551
  182DOPC  H15C22294   2.353  -0.081   2.518 -0.8471 -1.1242  0.5726
  182DOPC   C1122295   2.164   0.113   2.841  0.0999  0.3496 -0.5091
  182DOPC  H11A22296   2.119   0.084   2.939 -1.0846  1.0969 -0.8028
  182DOPC  H11B22297   2.271   0.091   2.862  0.2991  0.8593 -0.9645
  182DOPC     P22298   2.000   0.315   2.835  0.1789  0.2410 -0.0638
  182DOPC   O1322299   1.906   0.204   2.861  0.1414 -0.2772  0.3990
  182DOPC   O1422300   1.974   0.394   2.706 -0.1906 -0.2650  0.3434
  182DOPC   O1222301   2.143   0.254   2.816 -0.2338 -0.1409 -0.4484
  182DOPC   O1122302   2.018   0.405   2.967  0.3346  0.0191  0.0157
  182DOPC    C122303   2.073   0.530   2.933  0.3926  0.3470  0.1870
  182DOPC    HA22304   1.989   0.590   2.892  0.9894  1.1597  0.1306
  182DOPC    HB22305   2.152   0.519   2.856  3.1396 -0.8449  2.9783
  182DOPC    C222306   2.140   0.589   3.059  0.4439  0.9536  0.6266
  182DOPC    HS22307   2.168   0.692   3.028  1.7156  0.4013 -0.1320
  182DOPC   O2122308   2.259   0.513   3.082 -0.2566 -0.4091 -0.2901
  182DOPC   C2122309   2.357   0.580   3.146  0.2765 -0.5706  0.3224
  182DOPC   O2222310   2.354   0.701   3.164 -0.2372 -0.5479  0.5384
  182DOPC   C2222311   2.470   0.489   3.197  0.1062  0.3652 -0.3138
  182DOPC   H2R22312   2.561   0.527   3.146  0.2107 -0.8100 -1.0622
  182DOPC   H2S22313   2.444   0.383   3.178  1.4664  0.0859 -0.7200
  182DOPC    C322314   2.054   0.579   3.189 -0.1083  0.1759  0.3740
  182DOPC    HX22315   2.024   0.474   3.208  0.5773 -0.0872  0.0287
  182DOPC    HY22316   1.960   0.632   3.160 -0.6695 -1.0712 -0.1759
  182DOPC   O3122317   2.116   0.643   3.301 -0.6683  0.0790  0.1567
  182DOPC   C3122318   2.035   0.689   3.394  0.3396  0.5235  0.4887
  182DOPC   O3222319   1.914   0.679   3.398 -0.0659 -0.3487  0.2305
  182DOPC   C3222320   2.118   0.748   3.507 -0.6591 -0.6103 -0.2512
  182DOPC   H2X22321   2.210   0.685   3.511  2.2058  3.1078 -1.4168
  182DOPC   H2Y22322   2.158   0.850   3.487 -0.2893 -0.6064  0.4734
  182DOPC   C2322323   2.512   0.506   3.348 -0.5691 -0.1937 -1.1084
  182DOPC   H3R22324   2.536   0.611   3.373  1.0000 -1.1546  1.9604
  182DOPC   H3S22325   2.606   0.449   3.363  0.1240  0.4916 -2.6412
  182DOPC   C2422326   2.402   0.450   3.444  0.3850 -0.0834  0.4186
  182DOPC   H4R22327   2.393   0.341   3.423 -1.0711  0.5009 -2.5401
  182DOPC   H4S22328   2.307   0.496   3.409  0.5253  2.3368  2.8999
  182DOPC   C2522329   2.426   0.478   3.593 -0.3621  0.0143 -0.1873
  182DOPC   H5R22330   2.438   0.588   3.600  0.3696 -0.1647  2.8549
  182DOPC   H5S22331   2.528   0.441   3.617 -0.5580  0.4526  1.4242
  182DOPC   C2622332   2.320   0.421   3.688 -0.2570  0.3265  0.1227
  182DOPC   H6R22333   2.317   0.310   3.682 -2.1054  0.3445  0.2161
  182DOPC   H6S22334   2.226   0.470   3.657  0.4995  0.4114 -2.1679
  182DOPC   C2722335   2.340   0.462   3.837 -0.1825  0.1583  0.4699
  182DOPC   H7R22336   2.351   0.572   3.847 -0.3118  0.1318  0.9546
  182DOPC   H7S22337   2.427   0.406   3.876  1.3374  1.2494 -1.1580
  182DOPC   C2822338   2.218   0.419   3.928 -0.1590  0.4526 -0.2792
  182DOPC   H8R22339   2.190   0.322   3.881 -1.7207 -0.2263  1.8970
  182DOPC   H8S22340   2.140   0.497   3.916  1.4436  2.0521 -0.6804
  182DOPC   C2922341   2.256   0.403   4.075 -0.5572 -0.2281  0.5049
  182DOPC   H9R22342   2.281   0.503   4.115 -0.6024 -0.1968  0.4555
  182DOPC  C21022343   2.277   0.289   4.142 -0.1932 -0.0842 -0.4293
  182DOPC  H10R22344   2.322   0.302   4.241  1.6092  1.7642 -1.4163
  182DOPC  C21122345   2.273   0.147   4.091  0.1069 -0.2295  0.5530
  182DOPC  H11R22346   2.370   0.095   4.110 -0.1343 -1.4508 -1.3564
  182DOPC  H11S22347   2.248   0.140   3.983 -2.1928 -0.7180  1.0610
  182DOPC  C21222348   2.153   0.070   4.155  0.0246  0.4760 -0.3452
  182DOPC  H12R22349   2.174  -0.030   4.112 -2.5878 -0.5134  0.5195
  182DOPC  H12S22350   2.052   0.103   4.124  0.1663 -0.8163 -2.3356
  182DOPC  C21322351   2.162   0.061   4.306 -0.1426  0.2658  0.2498
  182DOPC  H13R22352   2.132   0.160   4.344  1.1689  1.5809 -1.9275
  182DOPC  H13S22353   2.269   0.038   4.328  0.8284  1.6264 -2.5610
  182DOPC  C21422354   2.072  -0.049   4.364 -0.1215  0.5788 -0.0715
  182DOPC  H14R22355   1.974  -0.048   4.312 -0.1985 -2.1698 -0.1010
  182DOPC  H14S22356   2.056  -0.017   4.469  2.3464 -0.0596  0.5701
  182DOPC  C21522357   2.128  -0.194   4.359  0.2904  0.2251  0.3088
  182DOPC  H15R22358   2.212  -0.197   4.433 -0.3351  1.2339  1.0880
  182DOPC  H15S22359   2.172  -0.231   4.264 -0.7306 -1.8142  0.5605
  182DOPC  C21622360   2.017  -0.290   4.397 -0.4749  0.2523  0.3736
  182DOPC  H16R22361   2.066  -0.388   4.415  0.4760  0.5229 -0.6201
  182DOPC  H16S22362   1.949  -0.303   4.310  1.5057  1.3026 -1.4172
  182DOPC  C21722363   1.937  -0.254   4.523  0.2345 -0.1812  0.5020
  182DOPC  H17R22364   1.848  -0.321   4.519 -0.0911  0.3054 -0.8782
  182DOPC  H17S22365   1.901  -0.150   4.510  0.3062 -0.0604  1.2149
  182DOPC  C21822366   2.019  -0.267   4.653 -0.7465  0.2706 -0.2017
  182DOPC  H18R22367   2.121  -0.223   4.653 -0.3023 -0.6808 -1.3052
  182DOPC  H18S22368   2.028  -0.375   4.677 -3.2955 -0.1899 -1.0137
  182DOPC  H18T22369   1.961  -0.212   4.730 -0.8023  3.9412 -2.5869
  182DOPC   C3322370   2.039   0.763   3.641 -0.3522 -0.3083  0.4612
  182DOPC   H3X22371   1.987   0.665   3.651  2.7093 -2.1484 -0.3469
  182DOPC   H3Y22372   1.954   0.835   3.642 -1.3226 -1.3855  2.5974
  182DOPC   C3422373   2.130   0.790   3.765  0.5024  0.2019 -0.2858
  182DOPC   H4X22374   2.177   0.890   3.749 -0.7189  0.8652  0.1523
  182DOPC   H4Y22375   2.209   0.712   3.764 -1.3654 -1.8378  1.8167
  182DOPC   C3522376   2.060   0.793   3.901  0.0292  0.3683 -0.3382
  182DOPC   H5X22377   2.020   0.690   3.910  2.2340 -0.3857  1.9500
  182DOPC   H5Y22378   1.973   0.861   3.917 -0.2727 -0.3643  1.2771
  182DOPC   C3622379   2.155   0.806   4.017 -0.4998  0.3207 -0.3052
  182DOPC   H6X22380   2.231   0.726   4.002  0.8373  1.1842  1.4710
  182DOPC   H6Y22381   2.202   0.906   4.006  1.0312 -0.4195 -0.8084
  182DOPC   C3722382   2.084   0.805   4.155  0.0587  0.1054 -0.1345
  182DOPC   H7X22383   2.005   0.882   4.142 -1.7269 -1.7137 -0.5792
  182DOPC   H7Y22384   2.040   0.703   4.162 -0.2942  0.2935  0.4522
  182DOPC   C3822385   2.176   0.844   4.273 -0.0915 -0.8757 -0.2830
  182DOPC   H8X22386   2.260   0.773   4.258  0.9602  0.3908 -0.5197
  182DOPC   H8Y22387   2.146   0.829   4.379  0.4429 -0.1862 -0.0240
  182DOPC   C3922388   2.225   0.985   4.274  0.1418  0.7619  0.2570
  182DOPC   H9X22389   2.151   1.054   4.318  0.1274  0.0852  1.3230
  182DOPC  C31022390   2.340   1.035   4.230  0.1780 -0.4732  0.6074
  182DOPC  H10X22391   2.364   1.139   4.254  2.8360 -0.1754 -2.6597
  182DOPC  C31122392   2.459   0.963   4.162 -0.2792 -0.4848  0.0653
  182DOPC  H11X22393   2.500   1.032   4.085  0.1198  0.6295  1.2427
  182DOPC  H11Y22394   2.430   0.879   4.094 -0.4325 -0.9205  0.6644
  182DOPC  C31222395   2.575   0.930   4.261 -0.0495 -0.0105  0.1844
  182DOPC  H12X22396   2.584   1.018   4.327 -2.8736  0.0228  0.6422
  182DOPC  H12Y22397   2.671   0.920   4.206  1.4810 -0.4175  2.7695
  182DOPC  C31322398   2.537   0.807   4.343  0.2496 -0.0100 -0.2887
  182DOPC  H13X22399   2.606   0.808   4.430 -0.1785  0.8348  0.0482
  182DOPC  H13Y22400   2.432   0.814   4.377  1.1528  2.2599  2.3710
  182DOPC  C31422401   2.544   0.676   4.260  0.3916  1.0653  0.5124
  182DOPC  H14X22402   2.462   0.669   4.184  1.2568 -0.7452 -0.3340
  182DOPC  H14Y22403   2.642   0.687   4.209 -0.1935 -3.3702 -2.1150
  182DOPC  C31522404   2.550   0.548   4.354  0.5738  0.0370 -0.3751
  182DOPC  H15X22405   2.446   0.518   4.381 -0.8110  2.2591 -2.7107
  182DOPC  H15Y22406   2.606   0.570   4.447  0.1712  2.2156 -0.5936
  182DOPC  C31622407   2.607   0.425   4.285  0.3763 -0.6883 -0.1072
  182DOPC  H16X22408   2.535   0.393   4.206 -0.7076  0.0865  0.5313
  182DOPC  H16Y22409   2.702   0.438   4.229  0.2584 -0.5111 -0.2687
  182DOPC  C31722410   2.632   0.313   4.382 -0.1453 -0.3810 -0.1314
  182DOPC  H17X22411   2.700   0.354   4.460  0.9124 -0.4877 -0.9655
  182DOPC  H17Y22412   2.539   0.284   4.434  0.7690  0.5617  2.1610
  182DOPC  C31822413   2.701   0.185   4.321  0.4972  0.0521 -0.1085
  182DOPC  H18X22414   2.765   0.131   4.393 -0.8017 -2.4215 -0.7132
  182DOPC  H18Y22415   2.629   0.110   4.283  4.1450 -2.5469 -2.5487
  182DOPC  H18Z22416   2.760   0.218   4.233  0.8239 -1.7563 -0.6071
  183DOPC     N22417   0.710   4.005   2.287  0.4158 -0.1609 -0.1073
  183DOPC   C1222418   0.692   3.884   2.381  0.4943 -0.4108 -0.0831
  183DOPC  H12A22419   0.786   3.830   2.377  0.2612 -0.8693  0.3993
  183DOPC  H12B22420   0.629   3.807   2.339 -0.0572 -1.1113  1.9002
  183DOPC   C1322421   0.589   4.089   2.284 -0.3376  0.3346  0.0674
  183DOPC  H13A22422   0.561   4.128   2.381 -2.8821 -0.2649 -0.3665
  183DOPC  H13B22423   0.604   4.182   2.231 -0.1479  0.3798  0.1976
  183DOPC  H13C22424   0.505   4.039   2.238 -1.2087  2.4672 -0.8114
  183DOPC   C1422425   0.734   3.956   2.146  0.6909 -0.6109  0.1793
  183DOPC  H14A22426   0.736   4.046   2.086 -2.3658 -0.5794  0.0027
  183DOPC  H14B22427   0.832   3.913   2.129  1.5809  1.3769 -0.0469
  183DOPC  H14C22428   0.663   3.889   2.100  0.9812  0.0937 -1.3880
  183DOPC   C1522429   0.824   4.086   2.339 -0.3499  1.1132 -0.2223
  183DOPC  H15A22430   0.919   4.035   2.354 -1.3708 -0.7210  0.3809
  183DOPC  H15B22431   0.800   4.143   2.427  0.5425  2.1118 -0.6106
  183DOPC  H15C22432   0.848   4.165   2.270  0.8838 -1.7404 -3.2929
  183DOPC   C1122433   0.668   3.908   2.532 -0.9270  0.2345  0.2919
  183DOPC  H11A22434   0.650   3.811   2.582 -0.4717  0.3729  0.7284
  183DOPC  H11B22435   0.760   3.952   2.576  0.6281 -0.2208 -2.2904
  183DOPC     P22436   0.416   3.946   2.600  0.2541 -0.2965  0.0891
  183DOPC   O1322437   0.371   3.812   2.554 -0.6120  0.1846 -0.9720
  183DOPC   O1422438   0.327   4.061   2.570  0.2530 -0.2326 -0.2388
  183DOPC   O1222439   0.556   3.989   2.540 -0.6100 -0.2752 -0.6608
  183DOPC   O1122440   0.441   3.944   2.756 -0.3741  0.3247 -0.2932
  183DOPC    C122441   0.475   3.819   2.819 -0.3185 -0.3367  0.1804
  183DOPC    HA22442   0.535   3.760   2.747 -2.1621 -0.1468 -1.5875
  183DOPC    HB22443   0.389   3.755   2.847  1.1877 -1.4909  2.5467
  183DOPC    C222444   0.560   3.838   2.949  0.8121 -0.2931 -0.3903
  183DOPC    HS22445   0.603   3.746   2.995  0.0714  0.7802  2.6967
  183DOPC   O2122446   0.481   3.917   3.044  0.2526  0.8387  0.2936
  183DOPC   C2122447   0.487   3.893   3.172  0.6516 -0.3124 -0.6712
  183DOPC   O2222448   0.546   3.806   3.229 -0.4636  0.3805 -0.8228
  183DOPC   C2222449   0.406   4.010   3.237  0.0283  0.1925 -0.7727
  183DOPC   H2R22450   0.299   4.013   3.208 -0.4890 -1.4090  0.7986
  183DOPC   H2S22451   0.456   4.101   3.198 -1.5479  1.0320 -0.9310
  183DOPC    C322452   0.692   3.902   2.905  0.8444  0.1682 -0.8913
  183DOPC    HX22453   0.667   4.003   2.867 -1.8528  0.2773  0.8365
  183DOPC    HY22454   0.732   3.847   2.817  1.9121 -1.0545  0.3108
  183DOPC   O3122455   0.798   3.906   3.003  0.1304 -0.2123 -0.1899
  183DOPC   C3122456   0.795   4.006   3.096  0.6139  0.6515 -0.5629
  183DOPC   O3222457   0.720   4.104   3.092 -0.5754 -0.3614  0.3376
  183DOPC   C3222458   0.904   3.974   3.198  0.2334  0.2593 -0.7493
  183DOPC   H2X22459   0.861   3.881   3.242 -0.2629  0.4064 -0.9087
  183DOPC   H2Y22460   1.005   3.958   3.156  0.5722  1.8753 -0.6137
  183DOPC   C2322461   0.411   4.022   3.388  0.1142 -0.3228  0.5478
  183DOPC   H3R22462   0.512   3.997   3.429 -0.2573 -0.8898  1.1317
  183DOPC   H3S22463   0.358   3.939   3.440  0.5986 -0.6498  0.5308
  183DOPC   C2422464   0.375   4.159   3.441 -0.6283 -0.3266  0.0817
  183DOPC   H4R22465   0.271   4.188   3.416 -0.4577 -0.0761 -0.3577
  183DOPC   H4S22466   0.431   4.230   3.376  0.0695 -2.4444 -1.7600
  183DOPC   C2522467   0.390   4.176   3.593  0.2131 -0.4214 -0.2821
  183DOPC   H5R22468   0.499   4.181   3.612  0.0791  0.4077  0.3423
  183DOPC   H5S22469   0.356   4.084   3.645  1.3676 -0.9361 -0.4086
  183DOPC   C2622470   0.320   4.302   3.643 -0.5516  0.6526 -0.0619
  183DOPC   H6R22471   0.215   4.286   3.609 -1.4344 -0.0049  2.7071
  183DOPC   H6S22472   0.367   4.395   3.604 -1.4057  1.0984 -0.0602
  183DOPC   C2722473   0.320   4.312   3.794  0.4603 -0.1080  0.2466
  183DOPC   H7R22474   0.424   4.321   3.832  0.6364  0.2641 -0.3093
  183DOPC   H7S22475   0.282   4.218   3.841  1.6783 -1.4402 -1.3105
  183DOPC   C2822476   0.236   4.435   3.845 -0.0527  1.0502 -0.0247
  183DOPC   H8R22477   0.209   4.420   3.952  1.1535 -1.1829  0.0184
  183DOPC   H8S22478   0.140   4.442   3.791  0.3074 -1.7245 -1.1804
  183DOPC   C2922479   0.325   4.556   3.817  0.6716 -0.4072  0.3054
  183DOPC   H9R22480   0.336   4.581   3.711 -0.9633 -1.8115 -0.2366
  183DOPC  C21022481   0.378   4.645   3.895  0.4381 -0.4179 -0.3016
  183DOPC  H10R22482   0.444   4.725   3.858 -0.5205  0.4243 -0.2290
  183DOPC  C21122483   0.359   4.640   4.046  0.3654 -0.6433 -0.3371
  183DOPC  H11R22484   0.362   4.534   4.079 -1.2949 -0.4939  0.3460
  183DOPC  H11S22485   0.258   4.676   4.073  1.3598  2.9537 -0.9107
  183DOPC  C21222486   0.458   4.733   4.114 -0.1031 -0.4271  0.2059
  183DOPC  H12R22487   0.435   4.753   4.221 -3.4009  4.5173 -1.0902
  183DOPC  H12S22488   0.443   4.837   4.076  1.1799 -0.4019 -0.2736
  183DOPC  C21322489   0.607   4.707   4.100  0.2397 -0.0874  0.5331
  183DOPC  H13R22490   0.637   4.737   3.997 -3.6980  1.0898 -0.4493
  183DOPC  H13S22491   0.632   4.600   4.117  0.4667 -0.1029  0.0919
  183DOPC  C21422492   0.687   4.795   4.196  0.2137 -0.6473  0.2343
  183DOPC  H14R22493   0.666   4.765   4.301  0.0995 -2.2164 -0.2217
  183DOPC  H14S22494   0.649   4.896   4.166 -0.6551 -0.9898  0.1530
  183DOPC  C21522495   0.840   4.809   4.172 -0.7941  0.1065 -0.4982
  183DOPC  H15R22496   0.880   4.886   4.241  2.6293 -0.3380 -1.7730
  183DOPC  H15S22497   0.866   4.839   4.069  1.7236  0.3691  0.1509
  183DOPC  C21622498   0.910   4.671   4.198 -0.4743 -0.2303 -0.1515
  183DOPC  H16R22499   0.968   4.629   4.114  0.0434  0.1075  0.0301
  183DOPC  H16S22500   0.834   4.596   4.230  0.2288 -0.8464  0.1016
  183DOPC  C21722501   0.999   4.671   4.323 -0.2412 -0.0106 -0.0423
  183DOPC  H17R22502   1.083   4.742   4.308 -1.3057  1.7379  1.8061
  183DOPC  H17S22503   1.045   4.570   4.319 -1.7966 -0.7020 -1.4207
  183DOPC  C21822504   0.917   4.704   4.447  0.4206  0.1784  0.2138
  183DOPC  H18R22505   0.827   4.639   4.449  0.6172 -0.1899 -1.5611
  183DOPC  H18S22506   0.888   4.811   4.439  3.3615  1.1090  0.4971
  183DOPC  H18T22507   0.971   4.702   4.544  0.0421 -0.6561  0.4128
  183DOPC   C3322508   0.907   4.088   3.301 -1.5080  0.2896 -0.0672
  183DOPC   H3X22509   0.895   4.189   3.258 -1.0605 -0.0897 -1.1147
  183DOPC   H3Y22510   1.012   4.096   3.336 -1.1389 -0.2958 -1.0044
  183DOPC   C3422511   0.816   4.083   3.420  0.1944 -0.0803  0.3743
  183DOPC   H4X22512   0.709   4.102   3.395  0.0169 -1.0887  0.3292
  183DOPC   H4Y22513   0.843   4.170   3.484 -1.3568  2.2926 -1.9787
  183DOPC   C3522514   0.829   3.954   3.505  0.5177  0.1379 -0.1921
  183DOPC   H5X22515   0.937   3.931   3.522 -0.2269 -2.0780  2.3724
  183DOPC   H5Y22516   0.790   3.872   3.441 -1.2529  0.5954  0.2551
  183DOPC   C3622517   0.740   3.955   3.634  0.0006  0.1016  0.0186
  183DOPC   H6X22518   0.783   4.035   3.698 -0.6869  1.5243 -1.2038
  183DOPC   H6Y22519   0.635   3.982   3.608 -0.4690  1.2490  2.8038
  183DOPC   C3722520   0.739   3.816   3.709 -0.2382  0.4811 -0.4800
  183DOPC   H7X22521   0.688   3.736   3.651 -0.8866 -0.0578  0.7837
  183DOPC   H7Y22522   0.841   3.777   3.730 -0.1143  0.4221 -1.1536
  183DOPC   C3822523   0.661   3.833   3.840 -0.0428 -0.9308 -0.2084
  183DOPC   H8X22524   0.703   3.920   3.895 -1.3833  0.5718 -1.4319
  183DOPC   H8Y22525   0.683   3.738   3.894  2.4267 -1.6338 -2.2595
  183DOPC   C3922526   0.515   3.857   3.828 -0.8250 -0.0381  0.1360
  183DOPC   H9X22527   0.485   3.961   3.809 -1.7260 -0.4055 -0.5698
  183DOPC  C31022528   0.412   3.767   3.841  0.4892 -0.0332 -0.4117
  183DOPC  H10X22529   0.307   3.799   3.851  0.5474 -0.4355  2.2956
  183DOPC  C31122530   0.430   3.614   3.865 -0.4986 -0.7541  0.5995
  183DOPC  H11X22531   0.406   3.571   3.965  0.2434  0.7058  1.4395
  183DOPC  H11Y22532   0.537   3.587   3.861 -0.6227 -1.1330 -0.8161
  183DOPC  C31222533   0.354   3.545   3.754  0.5946  0.6816 -0.3024
  183DOPC  H12X22534   0.247   3.554   3.784  0.6705 -0.7204  0.4742
  183DOPC  H12Y22535   0.369   3.436   3.739  1.4945  0.7774 -0.1626
  183DOPC  C31322536   0.369   3.602   3.609  0.6687 -0.7037 -0.2322
  183DOPC  H13X22537   0.324   3.704   3.615  0.4842 -0.7042 -1.4736
  183DOPC  H13Y22538   0.478   3.608   3.589  0.0673  1.0024 -3.9571
  183DOPC  C31422539   0.293   3.533   3.502 -0.8038 -0.0594 -0.6938
  183DOPC  H14X22540   0.329   3.429   3.484 -0.3246 -0.4039  1.7903
  183DOPC  H14Y22541   0.189   3.516   3.538 -0.5648 -0.9326 -0.3790
  183DOPC  C31522542   0.316   3.594   3.371  0.4219 -0.0722  0.7357
  183DOPC  H15X22543   0.425   3.590   3.351  0.2931 -1.1660  0.1337
  183DOPC  H15Y22544   0.275   3.697   3.367 -0.7747 -0.5328  0.5354
  183DOPC  C31622545   0.254   3.510   3.254 -0.3348  0.0293 -0.1187
  183DOPC  H16X22546   0.293   3.406   3.262 -2.2700 -0.6412  1.4080
  183DOPC  H16Y22547   0.145   3.498   3.269 -0.1132 -1.5123  0.5096
  183DOPC  C31722548   0.278   3.574   3.112  0.3141  0.6168  0.4629
  183DOPC  H17X22549   0.229   3.674   3.115 -3.0973 -0.8947 -0.0968
  183DOPC  H17Y22550   0.386   3.590   3.089 -0.0224 -1.2137 -3.0732
  183DOPC  C31822551   0.198   3.496   3.003  0.4747  0.1120  0.3959
  183DOPC  H18X22552   0.205   3.386   2.998 -3.3520 -0.2451 -0.6987
  183DOPC  H18Y22553   0.088   3.513   3.016  0.6350 -0.0454  2.3104
  183DOPC  H18Z22554   0.216   3.532   2.900 -1.6313 -0.4334 -0.2214
  184DOPC     N22555   4.537   0.959   2.342  0.6181  0.0710 -0.0437
  184DOPC   C1222556   4.395   1.005   2.356 -0.0049  0.6434 -0.1607
  184DOPC  H12A22557   4.371   1.070   2.273 -0.0938 -1.1294 -1.5954
  184DOPC  H12B22558   4.387   1.070   2.441 -0.3014 -1.0803  1.1733
  184DOPC   C1322559   4.584   0.871   2.462 -0.6411 -0.0970  1.1325
  184DOPC  H13A22560   4.667   0.811   2.428 -0.3594  0.9300 -0.0346
  184DOPC  H13B22561   4.612   0.941   2.539 -0.5079  3.2896 -1.7499
  184DOPC  H13C22562   4.505   0.807   2.497 -1.0841  1.3995  3.0676
  184DOPC   C1422563   4.620   1.083   2.348 -0.3329 -0.2464  0.3770
  184DOPC  H14A22564   4.723   1.052   2.336  0.0356  1.1970 -0.3285
  184DOPC  H14B22565   4.595   1.138   2.259  0.0635 -1.9949 -0.8760
  184DOPC  H14C22566   4.603   1.139   2.439  0.4552 -1.0271  1.0311
  184DOPC   C1522567   4.552   0.884   2.211  0.3770  0.0380 -0.5493
  184DOPC  H15A22568   4.649   0.840   2.197  1.2406  2.2783 -2.2974
  184DOPC  H15B22569   4.524   0.945   2.125 -0.9198  0.0790 -0.1284
  184DOPC  H15C22570   4.485   0.800   2.202  0.9015 -0.2379 -2.2286
  184DOPC   C1122571   4.274   0.901   2.361 -0.5615  0.3432 -0.1354
  184DOPC  H11A22572   4.191   0.975   2.359  0.2790  1.3065 -1.6012
  184DOPC  H11B22573   4.275   0.830   2.275  0.8343 -0.1804  0.2880
  184DOPC     P22574   4.166   0.840   2.590  0.1182 -0.5017 -0.1858
  184DOPC   O1322575   4.187   0.748   2.704 -0.2503  0.2212 -0.2131
  184DOPC   O1422576   4.038   0.824   2.534 -0.4040  0.2380 -0.3338
  184DOPC   O1222577   4.276   0.831   2.486 -0.2827 -0.1642  0.3497
  184DOPC   O1122578   4.178   0.991   2.637  0.3671 -0.6874 -0.2297
  184DOPC    C122579   4.078   1.092   2.642 -0.0214  0.4369  0.9493
  184DOPC    HA22580   3.975   1.049   2.635 -0.2926  1.3456 -1.5265
  184DOPC    HB22581   4.083   1.155   2.551 -3.0323  0.0326  0.4085
  184DOPC    C222582   4.091   1.173   2.775 -0.3177  0.2348  0.2511
  184DOPC    HS22583   3.995   1.228   2.788 -0.9701 -1.0255  0.9921
  184DOPC   O2122584   4.204   1.265   2.761  0.3135  0.7032  0.0473
  184DOPC   C2122585   4.176   1.390   2.790 -0.6921  0.0352  0.3835
  184DOPC   O2222586   4.071   1.430   2.834  0.2358 -0.2325  0.1004
  184DOPC   C2222587   4.315   1.463   2.777 -0.2446 -0.0266 -0.3186
  184DOPC   H2R22588   4.349   1.440   2.674 -0.0560 -1.9327  0.1235
  184DOPC   H2S22589   4.380   1.422   2.857 -1.0670  1.1931  1.0223
  184DOPC    C322590   4.114   1.078   2.896  0.7075  0.1173 -0.4978
  184DOPC    HX22591   4.208   1.021   2.879 -0.4643 -1.9538 -0.3592
  184DOPC    HY22592   4.032   1.003   2.888 -0.1029  0.8431  0.6823
  184DOPC   O3122593   4.101   1.135   3.026 -0.2516  0.1581 -0.4483
  184DOPC   C3122594   3.985   1.148   3.075  0.6592  0.1567 -0.0143
  184DOPC   O3222595   3.879   1.124   3.012 -0.5839 -0.5390  0.8386
  184DOPC   C3222596   3.981   1.187   3.221 -0.3684 -0.2528  0.1596
  184DOPC   H2X22597   3.938   1.095   3.266  1.2452 -0.1731  2.0069
  184DOPC   H2Y22598   4.082   1.208   3.264 -0.8277 -3.1560  2.9931
  184DOPC   C2322599   4.300   1.612   2.794  0.2281  0.5564  0.4568
  184DOPC   H3R22600   4.250   1.655   2.704  1.1256 -0.9497 -0.8152
  184DOPC   H3S22601   4.403   1.652   2.791  0.8268 -0.9187  0.6063
  184DOPC   C2422602   4.235   1.654   2.929 -0.6330 -0.5577 -0.3818
  184DOPC   H4R22603   4.125   1.636   2.929 -1.1891  2.3874 -0.8709
  184DOPC   H4S22604   4.234   1.765   2.929 -0.8016 -0.5539  0.6906
  184DOPC   C2522605   4.293   1.605   3.055 -0.2024 -0.1375 -0.3715
  184DOPC   H5R22606   4.399   1.636   3.046  0.3521 -1.7160  0.3640
  184DOPC   H5S22607   4.286   1.497   3.082 -0.2713 -0.2789 -0.9544
  184DOPC   C2622608   4.236   1.687   3.175  0.2536  0.2414 -0.5067
  184DOPC   H6R22609   4.127   1.678   3.192 -0.0278  2.4938 -0.8917
  184DOPC   H6S22610   4.261   1.791   3.144 -1.1795  0.3024 -1.5415
  184DOPC   C2722611   4.319   1.650   3.299 -0.7002 -0.2140 -0.3461
  184DOPC   H7R22612   4.427   1.638   3.277 -0.9930 -2.2620 -0.8867
  184DOPC   H7S22613   4.287   1.545   3.315 -0.5661 -0.5639 -2.2056
  184DOPC   C2822614   4.285   1.732   3.416 -0.0877 -1.0021 -0.7991
  184DOPC   H8R22615   4.289   1.838   3.382  1.0248 -0.9154 -0.4533
  184DOPC   H8S22616   4.365   1.727   3.493 -0.5206  3.3959  0.1693
  184DOPC   C2922617   4.149   1.693   3.479 -0.5028 -0.0938  0.2340
  184DOPC   H9R22618   4.059   1.722   3.422 -0.0676 -0.3440 -0.6031
  184DOPC  C21022619   4.132   1.628   3.593 -0.4845  0.4376  0.1091
  184DOPC  H10R22620   4.027   1.627   3.627 -1.1988 -1.6753 -1.8674
  184DOPC  C21122621   4.239   1.576   3.690 -0.0817 -0.5105 -0.6568
  184DOPC  H11R22622   4.345   1.602   3.667  0.4739 -0.5116  1.5837
  184DOPC  H11S22623   4.243   1.465   3.699 -0.3506 -0.4709  0.0654
  184DOPC  C21222624   4.214   1.637   3.829  0.6414 -0.3395  0.3458
  184DOPC  H12R22625   4.279   1.578   3.897  0.3299  0.7773  1.6650
  184DOPC  H12S22626   4.108   1.639   3.863  0.7440  1.4308  0.6684
  184DOPC  C21322627   4.275   1.790   3.834  0.1288  0.9035  0.7415
  184DOPC  H13R22628   4.207   1.852   3.772 -0.2934 -0.3146 -0.0665
  184DOPC  H13S22629   4.369   1.772   3.777 -0.0668 -0.6481  0.8731
  184DOPC  C21422630   4.296   1.830   3.979  0.2911 -0.9762  0.4271
  184DOPC  H14R22631   4.393   1.883   3.994 -0.6663  1.0666 -0.2146
  184DOPC  H14S22632   4.295   1.741   4.046  0.8108 -0.1106  1.6237
  184DOPC  C21522633   4.195   1.931   4.030  0.1245  0.2710 -0.2140
  184DOPC  H15R22634   4.091   1.892   4.032  0.0032  0.4430 -1.8266
  184DOPC  H15S22635   4.198   2.016   3.957  1.2508  1.0806  0.7353
  184DOPC  C21622636   4.219   1.982   4.171 -0.8401 -0.5584 -0.0457
  184DOPC  H16R22637   4.193   2.089   4.182  0.4467 -0.1637 -0.5823
  184DOPC  H16S22638   4.328   1.971   4.190 -1.1150  0.9045  2.8305
  184DOPC  C21722639   4.141   1.914   4.285 -0.0196 -0.3122 -0.7069
  184DOPC  H17R22640   4.150   1.807   4.256  1.4373 -0.1487 -0.9466
  184DOPC  H17S22641   4.038   1.956   4.280  0.3134  0.8768  1.2203
  184DOPC  C21822642   4.200   1.932   4.427 -0.0284  0.4531  0.5952
  184DOPC  H18R22643   4.134   1.871   4.493 -1.4231  0.4475 -0.7673
  184DOPC  H18S22644   4.210   2.039   4.455  1.2137  0.7329 -0.8014
  184DOPC  H18T22645   4.306   1.899   4.430  0.5960  2.3707  1.6084
  184DOPC   C3322646   3.903   1.322   3.243 -1.1523  0.8948 -0.5657
  184DOPC   H3X22647   3.801   1.303   3.202 -1.1599 -0.5748  0.0591
  184DOPC   H3Y22648   3.956   1.393   3.176  0.9769 -2.1832 -2.3615
  184DOPC   C3422649   3.913   1.362   3.385  0.7845 -0.2114 -0.3435
  184DOPC   H4X22650   3.862   1.460   3.392 -0.4141 -0.8684  0.4108
  184DOPC   H4Y22651   4.019   1.376   3.414  0.5478 -1.7874  1.4592
  184DOPC   C3522652   3.847   1.255   3.484 -0.2502 -0.3248  0.4102
  184DOPC   H5X22653   3.888   1.153   3.472  2.7570  0.5125  2.3684
  184DOPC   H5Y22654   3.738   1.256   3.467 -0.1558 -3.0899 -0.9456
  184DOPC   C3622655   3.872   1.298   3.634  0.7720  0.2777 -0.0278
  184DOPC   H6X22656   3.983   1.299   3.644  0.6649 -0.1219  1.2944
  184DOPC   H6Y22657   3.826   1.395   3.662 -0.6184  0.2263 -1.9613
  184DOPC   C3722658   3.831   1.188   3.729  0.3920 -0.5206  0.4405
  184DOPC   H7X22659   3.734   1.138   3.705 -0.3510  0.9313  0.3186
  184DOPC   H7Y22660   3.909   1.109   3.728  1.2791  0.3323  1.2742
  184DOPC   C3822661   3.810   1.243   3.873  0.0981 -0.0213 -0.6468
  184DOPC   H8X22662   3.785   1.152   3.932 -0.6532 -0.5067 -1.6839
  184DOPC   H8Y22663   3.724   1.314   3.872  1.3619  1.5706 -0.8374
  184DOPC   C3922664   3.935   1.309   3.919 -0.0444  0.4463 -0.0975
  184DOPC   H9X22665   3.981   1.388   3.858  2.2259  1.0278  2.1692
  184DOPC  C31022666   3.992   1.289   4.044  0.5158 -0.2299  0.4941
  184DOPC  H10X22667   4.084   1.342   4.070  1.3551 -0.4314 -1.8726
  184DOPC  C31122668   3.935   1.196   4.148 -0.2483 -0.6537  0.0224
  184DOPC  H11X22669   3.992   1.101   4.150  1.1098  0.1408 -0.1076
  184DOPC  H11Y22670   3.829   1.164   4.133 -0.1246 -1.4656  0.8287
  184DOPC  C31222671   3.944   1.263   4.282  0.3900 -0.4087 -0.0799
  184DOPC  H12X22672   3.899   1.364   4.276  1.0092 -0.1476 -0.3672
  184DOPC  H12Y22673   4.049   1.277   4.314  0.4261  1.7722 -0.9946
  184DOPC  C31322674   3.869   1.178   4.390  0.2284 -0.5994  0.0947
  184DOPC  H13X22675   3.763   1.211   4.393  0.9016  1.7928  0.6753
  184DOPC  H13Y22676   3.882   1.071   4.365 -1.8941 -0.7090 -0.6762
  184DOPC  C31422677   3.927   1.204   4.528 -0.4616  0.6146 -0.1557
  184DOPC  H14X22678   4.037   1.193   4.515  0.1207  3.0938  1.9382
  184DOPC  H14Y22679   3.905   1.308   4.560 -3.4988 -0.1314  0.4816
  184DOPC  C31522680   3.873   1.110   4.635  0.0421  0.4712 -0.2406
  184DOPC  H15X22681   3.895   1.006   4.603 -0.1207  0.5152 -0.4975
  184DOPC  H15Y22682   3.762   1.120   4.640 -0.1828 -1.8679  0.6577
  184DOPC  C31622683   3.942   1.131   4.769  0.2436  0.9634  0.1042
  184DOPC  H16X22684   4.051   1.123   4.751  0.0310 -1.7291 -0.4069
  184DOPC  H16Y22685   3.935   1.235   4.807  0.3288  1.0238 -0.0458
  184DOPC  C31722686   3.892   1.031   4.877  0.0143 -0.1069 -0.1688
  184DOPC  H17X22687   3.888   1.091   4.970 -0.9685  0.3202 -0.4750
  184DOPC  H17Y22688   3.786   1.022   4.847  0.2913 -1.0565 -0.9162
  184DOPC  C31822689   3.960   0.893   4.902  0.2284 -0.2400  0.9192
  184DOPC  H18X22690   4.071   0.904   4.907  0.8562 -3.6622 -1.3660
  184DOPC  H18Y22691   3.944   0.856   5.005  1.5891  0.0692  1.2675
  184DOPC  H18Z22692   3.936   0.810   4.832  0.6119 -0.4383  1.0213
  185DOPC     N22693   7.060   5.494   2.422  0.0455 -0.3050 -0.4511
  185DOPC   C1222694   7.105   5.415   2.539  0.2450  0.5128  0.9083
  185DOPC  H12A22695   7.188   5.468   2.584  0.2123  0.5262  0.9538
  185DOPC  H12B22696   7.142   5.323   2.498 -1.0683 -0.5916  2.1031
  185DOPC   C1322697   6.974   5.408   2.339  0.1268  0.0184 -0.6723
  185DOPC  H13A22698   7.021   5.314   2.316  1.0255  0.5971 -1.2582
  185DOPC  H13B22699   6.884   5.380   2.392 -0.3054 -0.6996 -1.7555
  185DOPC  H13C22700   6.944   5.454   2.246 -0.2088  0.0047 -0.5735
  185DOPC   C1422701   7.178   5.525   2.340  0.9688  0.3539  0.1190
  185DOPC  H14A22702   7.234   5.437   2.309 -1.0992 -1.7213  1.9547
  185DOPC  H14B22703   7.151   5.575   2.247  0.2769 -0.2452 -0.0111
  185DOPC  H14C22704   7.244   5.593   2.391  0.9925 -0.2079  0.8536
  185DOPC   C1522705   6.991   5.623   2.452  0.6293  0.1540  0.1226
  185DOPC  H15A22706   7.010   5.659   2.552  0.9802 -0.4348  0.2733
  185DOPC  H15B22707   6.883   5.611   2.446  0.8208 -0.9184 -2.6494
  185DOPC  H15C22708   7.001   5.691   2.369 -2.2884  1.0893  0.4133
  185DOPC   C1122709   6.992   5.381   2.636 -0.4787  0.0664  0.8455
  185DOPC  H11A22710   6.975   5.478   2.687  0.2344 -0.2694  1.7472
  185DOPC  H11B22711   6.893   5.352   2.596 -0.4501 -1.6621  1.9449
  185DOPC     P22712   7.031   5.146   2.733  0.6686 -0.1729  0.3603
  185DOPC   O1322713   7.097   5.104   2.858  0.3568 -0.8475 -0.4249
  185DOPC   O1422714   7.077   5.083   2.606 -0.2171  0.4755 -0.0881
  185DOPC   O1222715   7.047   5.295   2.730 -0.1915  0.1718 -0.4096
  185DOPC   O1122716   6.871   5.136   2.735 -0.1732 -0.5967 -0.2428
  185DOPC    C122717   6.796   5.194   2.853 -0.3434  0.5646  0.2410
  185DOPC    HA22718   6.701   5.238   2.815 -0.4067  0.9601  0.8426
  185DOPC    HB22719   6.849   5.278   2.903  0.0929  0.7404 -0.4943
  185DOPC    C222720   6.744   5.095   2.965  0.0898 -0.4250 -0.5156
  185DOPC    HS22721   6.686   5.162   3.033 -1.1669 -1.5750 -0.4091
  185DOPC   O2122722   6.852   5.022   3.028 -0.0681 -0.5199 -0.1445
  185DOPC   C2122723   6.915   5.100   3.115 -0.1130  0.4963  0.4466
  185DOPC   O2222724   6.890   5.218   3.131 -0.2279 -0.1141  0.6442
  185DOPC   C2222725   7.038   5.028   3.170 -0.0810  0.0039 -0.8954
  185DOPC   H2R22726   7.127   5.083   3.132 -0.5111  0.3517 -1.4078
  185DOPC   H2S22727   7.053   4.926   3.127  2.0753  0.5981 -1.6857
  185DOPC    C322728   6.640   4.991   2.916 -0.2970  0.6370 -0.3628
  185DOPC    HX22729   6.618   4.927   3.004 -1.6636  1.0183 -0.3984
  185DOPC    HY22730   6.686   4.931   2.836  1.3779  0.5583  0.6089
  185DOPC   O3122731   6.514   5.052   2.870  0.5966  0.2058 -0.8801
  185DOPC   C3122732   6.418   4.951   2.845 -0.1706 -0.3389 -0.2330
  185DOPC   O3222733   6.436   4.833   2.870 -0.3409  0.1919 -0.0278
  185DOPC   C3222734   6.293   5.003   2.778  0.1658  0.5230  0.0970
  185DOPC   H2X22735   6.300   5.112   2.761  0.5014  0.0902 -3.4601
  185DOPC   H2Y22736   6.292   4.960   2.675 -0.0046  2.7341 -0.8642
  185DOPC   C2322737   7.055   5.031   3.325 -0.3088  0.5178  0.1446
  185DOPC   H3R22738   7.055   5.137   3.358 -0.6946  0.3694  0.6311
  185DOPC   H3S22739   7.154   4.986   3.346 -2.5581 -4.6813  1.1994
  185DOPC   C2422740   6.935   4.953   3.382 -0.4680 -0.0711 -0.5955
  185DOPC   H4R22741   6.963   4.845   3.384 -0.6096 -0.1038 -0.3763
  185DOPC   H4S22742   6.850   4.970   3.313 -0.1358  0.2634 -0.9290
  185DOPC   C2522743   6.888   4.998   3.528  0.6198 -0.5681  0.3200
  185DOPC   H5R22744   6.821   4.920   3.570 -1.4653  0.6572 -0.5507
  185DOPC   H5S22745   6.828   5.092   3.523  2.8514  0.9345  0.2574
  185DOPC   C2622746   6.992   5.031   3.635  0.1388 -0.6292  0.4425
  185DOPC   H6R22747   6.958   5.095   3.719  2.4284  1.7305 -0.2810
  185DOPC   H6S22748   7.074   5.094   3.595 -0.8071 -1.1957 -2.5918
  185DOPC   C2722749   7.047   4.904   3.695  0.5419  0.3229  0.8637
  185DOPC   H7R22750   7.073   4.838   3.610 -1.4969 -0.6721  0.9535
  185DOPC   H7S22751   6.973   4.850   3.758 -1.0278  1.1727 -0.1851
  185DOPC   C2822752   7.162   4.940   3.790 -0.0478  0.3970  0.4440
  185DOPC   H8R22753   7.132   5.015   3.865  1.1220  0.9976  0.3340
  185DOPC   H8S22754   7.242   4.990   3.731 -0.9140  0.1344 -1.0064
  185DOPC   C2922755   7.226   4.816   3.848  0.8190  0.4164 -0.1589
  185DOPC   H9R22756   7.236   4.734   3.775 -0.5839 -0.4484  0.5986
  185DOPC  C21022757   7.252   4.792   3.980 -0.7240 -0.1091  0.1197
  185DOPC  H10R22758   7.315   4.704   3.998 -1.1212 -0.5928 -0.7598
  185DOPC  C21122759   7.225   4.889   4.096  0.7071  0.3273  0.3207
  185DOPC  H11R22760   7.130   4.944   4.077  0.6969  0.7147  1.4021
  185DOPC  H11S22761   7.299   4.972   4.095  0.0899  0.9302  1.9286
  185DOPC  C21222762   7.222   4.823   4.237 -0.5581  0.0566 -0.2979
  185DOPC  H12R22763   7.320   4.776   4.259 -0.0314  0.0170 -2.4842
  185DOPC  H12S22764   7.156   4.733   4.244 -0.9294  0.3191 -0.3979
  185DOPC  C21322765   7.173   4.919   4.347  0.1070  0.0275  0.1264
  185DOPC  H13R22766   7.157   4.857   4.438 -1.5970 -1.3168 -1.0024
  185DOPC  H13S22767   7.068   4.949   4.324 -0.1531  0.5939  1.9175
  185DOPC  C21422768   7.264   5.042   4.368  0.7418 -0.1937  0.4907
  185DOPC  H14R22769   7.306   5.077   4.272  2.0263 -0.6344  0.8760
  185DOPC  H14S22770   7.343   5.002   4.434  0.7735  0.6465  0.9745
  185DOPC  C21522771   7.198   5.167   4.435 -0.1309 -0.9178  0.2515
  185DOPC  H15R22772   7.137   5.140   4.524 -0.3378 -0.3738  0.2757
  185DOPC  H15S22773   7.131   5.212   4.358  1.1469  2.4161  0.9414
  185DOPC  C21622774   7.302   5.276   4.463 -0.0882  0.0687  0.1838
  185DOPC  H16R22775   7.362   5.267   4.370  0.5100 -2.4717  0.7496
  185DOPC  H16S22776   7.377   5.252   4.542  2.0536 -0.8936 -2.0214
  185DOPC  C21722777   7.263   5.422   4.481  0.5942  0.3400  0.6770
  185DOPC  H17R22778   7.253   5.479   4.386 -0.0064 -1.6258 -0.5019
  185DOPC  H17S22779   7.334   5.477   4.547  0.8496  1.2507 -0.3325
  185DOPC  C21822780   7.121   5.445   4.537  0.6187  0.2952 -0.6743
  185DOPC  H18R22781   7.099   5.549   4.570 -1.7367 -0.7646  1.4375
  185DOPC  H18S22782   7.105   5.384   4.629 -0.1190 -0.6824 -1.4431
  185DOPC  H18T22783   7.040   5.421   4.466  2.3390 -1.0995 -2.2641
  185DOPC   C3322784   6.158   4.960   2.848  0.6812 -0.2006  0.3040
  185DOPC   H3X22785   6.145   4.851   2.863 -0.6866 -0.1223 -0.0815
  185DOPC   H3Y22786   6.070   4.981   2.783 -0.7221 -1.2894  1.7821
  185DOPC   C3422787   6.134   5.041   2.980  0.4076 -0.7863  0.2739
  185DOPC   H4X22788   6.092   5.141   2.955 -1.1846 -1.8437 -1.5715
  185DOPC   H4Y22789   6.224   5.057   3.043  0.8054 -1.9317  0.0252
  185DOPC   C3522790   6.028   4.962   3.055  0.6386  0.1420 -0.2474
  185DOPC   H5X22791   6.064   4.858   3.065  1.0208  0.2177 -0.8139
  185DOPC   H5Y22792   5.937   4.959   2.992 -0.4368 -0.3421  1.2707
  185DOPC   C3622793   5.988   5.002   3.199 -0.2407 -0.4282 -0.3980
  185DOPC   H6X22794   5.963   5.110   3.199  0.5717 -0.1615 -3.0719
  185DOPC   H6Y22795   5.891   4.953   3.224 -0.5655 -0.7334 -2.1370
  185DOPC   C3722796   6.096   4.972   3.297  0.0649  0.9089 -0.3842
  185DOPC   H7X22797   6.118   4.864   3.305 -0.9094  0.7561  0.3938
  185DOPC   H7Y22798   6.193   5.023   3.276  0.9354 -0.2478  0.6952
  185DOPC   C3822799   6.055   5.030   3.434  0.3321 -0.0758  0.1234
  185DOPC   H8X22800   6.036   5.139   3.426 -0.9066 -0.1752  1.3192
  185DOPC   H8Y22801   6.146   5.005   3.493 -0.9427 -2.1172  1.3396
  185DOPC   C3922802   5.932   4.970   3.498 -1.0829  0.0002  0.4365
  185DOPC   H9X22803   5.836   5.022   3.480 -1.2766 -0.4364  0.1985
  185DOPC  C31022804   5.934   4.855   3.562  0.2187 -0.5015 -0.0946
  185DOPC  H10X22805   5.836   4.829   3.604  0.1429  1.6143  1.1741
  185DOPC  C31122806   6.050   4.761   3.589  0.3304 -0.9176  0.4760
  185DOPC  H11X22807   6.139   4.790   3.529  0.3915 -1.8570  0.0917
  185DOPC  H11Y22808   6.021   4.658   3.560 -1.6861 -0.5589  1.0729
  185DOPC  C31222809   6.106   4.756   3.741  0.0501  0.1884 -0.0037
  185DOPC  H12X22810   6.118   4.854   3.792  2.8291 -0.9300  1.7093
  185DOPC  H12Y22811   6.210   4.723   3.723  0.7450  2.1797  0.1519
  185DOPC  C31322812   6.022   4.671   3.822 -0.2154 -0.3770 -0.0721
  185DOPC  H13X22813   5.921   4.716   3.827 -0.2986 -0.4780 -0.7570
  185DOPC  H13Y22814   6.017   4.569   3.779  0.7777 -0.4342 -0.0860
  185DOPC  C31422815   6.085   4.642   3.959 -0.2432  0.3745  0.2887
  185DOPC  H14X22816   6.121   4.740   3.997  0.3692  0.6920 -1.0563
  185DOPC  H14Y22817   5.997   4.602   4.013 -1.5554  3.2930  0.4806
  185DOPC  C31522818   6.202   4.546   3.955  0.2471  0.7230  0.3915
  185DOPC  H15X22819   6.268   4.575   3.871  2.3882 -0.8378  1.4497
  185DOPC  H15Y22820   6.170   4.440   3.946 -1.3814  1.0955  1.3377
  185DOPC  C31622821   6.281   4.552   4.090 -0.0670 -0.2027 -0.6958
  185DOPC  H16X22822   6.295   4.660   4.108  0.2386 -0.4889  0.9276
  185DOPC  H16Y22823   6.230   4.516   4.182  1.4226 -4.5171 -1.2961
  185DOPC  C31722824   6.422   4.498   4.073 -0.4541 -0.8497 -0.2646
  185DOPC  H17X22825   6.433   4.390   4.050 -0.6669 -0.3648 -3.0114
  185DOPC  H17Y22826   6.470   4.553   3.989 -1.6558 -0.1178 -0.5061
  185DOPC  C31822827   6.504   4.525   4.206  0.3312 -0.6823  0.3226
  185DOPC  H18X22828   6.467   4.451   4.280 -1.5937 -0.1186 -0.0234
  185DOPC  H18Y22829   6.614   4.522   4.191  0.4672  1.2075  0.7655
  185DOPC  H18Z22830   6.490   4.627   4.246  1.5632  0.4584 -1.9592
  186DOPC     N22831   5.014   3.684   1.977  0.5595  0.0623 -0.3454
  186DOPC   C1222832   5.167   3.678   1.995  0.1868 -0.7278 -0.5948
  186DOPC  H12A22833   5.200   3.777   2.023 -0.5785 -0.0621 -1.9463
  186DOPC  H12B22834   5.209   3.650   1.900 -2.0959  0.3159 -1.9915
  186DOPC   C1322835   4.963   3.546   1.932  0.8850 -0.0460  0.4529
  186DOPC  H13A22836   5.014   3.506   1.846 -0.6392 -0.6733 -0.2100
  186DOPC  H13B22837   4.988   3.475   2.010  1.2247 -2.4483 -1.7131
  186DOPC  H13C22838   4.856   3.543   1.916  0.4495  0.5187  2.8762
  186DOPC   C1422839   4.965   3.793   1.889 -0.0270  0.0124  0.0814
  186DOPC  H14A22840   4.988   3.886   1.938 -0.3579  0.4674 -0.6049
  186DOPC  H14B22841   4.995   3.790   1.785  0.1524 -1.8751  0.1422
  186DOPC  H14C22842   4.857   3.786   1.884 -0.0266 -0.0219  0.1261
  186DOPC   C1522843   4.944   3.705   2.112 -0.2220  0.0235 -0.1132
  186DOPC  H15A22844   4.958   3.619   2.177 -0.7055 -0.8596 -1.1451
  186DOPC  H15B22845   4.838   3.719   2.102 -0.2584  2.9240  2.6818
  186DOPC  H15C22846   4.986   3.787   2.168 -0.4103  0.1467 -0.1533
  186DOPC   C1122847   5.226   3.579   2.103  0.0133  0.2648 -0.9276
  186DOPC  H11A22848   5.199   3.610   2.205  3.1236  1.0787 -0.2453
  186DOPC  H11B22849   5.196   3.472   2.091 -1.1855  0.6179 -1.1779
  186DOPC     P22850   5.455   3.694   2.145 -0.0283  0.3128  0.4364
  186DOPC   O1322851   5.406   3.828   2.113 -0.6357 -0.2341  0.0550
  186DOPC   O1422852   5.596   3.656   2.115 -0.2661 -0.3392 -0.6285
  186DOPC   O1222853   5.365   3.579   2.082  0.6673 -0.1087  0.2491
  186DOPC   O1122854   5.434   3.663   2.298 -0.0426  0.2296 -0.2661
  186DOPC    C122855   5.476   3.526   2.343 -0.1462 -0.1665 -0.0683
  186DOPC    HA22856   5.559   3.475   2.289 -2.2149  0.0687 -3.7968
  186DOPC    HB22857   5.381   3.471   2.331  0.1535 -0.9791  1.1538
  186DOPC    C222858   5.504   3.520   2.497  0.4084 -0.1365  0.1803
  186DOPC    HS22859   5.536   3.417   2.523 -0.5275 -0.5942 -0.4465
  186DOPC   O2122860   5.391   3.569   2.575 -0.4519  0.2528  0.1532
  186DOPC   C2122861   5.286   3.492   2.587 -0.6467  0.6927 -0.5134
  186DOPC   O2222862   5.262   3.397   2.520 -0.2391  0.5756  0.0388
  186DOPC   C2222863   5.195   3.529   2.699 -0.3778  0.6493  0.0528
  186DOPC   H2R22864   5.090   3.535   2.664 -0.7825  0.5544  1.2237
  186DOPC   H2S22865   5.231   3.626   2.740  1.4247 -0.7043  1.8378
  186DOPC    C322866   5.626   3.618   2.519  0.4194 -0.2467  0.5537
  186DOPC    HX22867   5.618   3.705   2.451  0.2280 -1.3204 -0.8606
  186DOPC    HY22868   5.712   3.554   2.487 -1.2284 -1.7819 -1.0413
  186DOPC   O3122869   5.640   3.658   2.654 -0.2320 -0.1165 -0.0711
  186DOPC   C3122870   5.588   3.772   2.693 -0.2507  0.1664  0.0067
  186DOPC   O3222871   5.524   3.852   2.627 -0.1652 -0.1028 -0.0264
  186DOPC   C3222872   5.607   3.787   2.848 -0.6962 -0.4343 -0.3125
  186DOPC   H2X22873   5.712   3.817   2.866 -1.2203 -0.0385  2.4851
  186DOPC   H2Y22874   5.546   3.868   2.893  0.9599  0.3822  0.5456
  186DOPC   C2322875   5.201   3.430   2.821 -0.4317  0.6044  0.3937
  186DOPC   H3R22876   5.310   3.437   2.840 -0.5747  0.7596  1.2257
  186DOPC   H3S22877   5.183   3.323   2.796  1.0949  0.3047  0.4843
  186DOPC   C2422878   5.128   3.482   2.949  0.1206  0.1232 -1.0214
  186DOPC   H4R22879   5.027   3.505   2.909  0.3372  0.2332 -1.5104
  186DOPC   H4S22880   5.163   3.577   2.995  0.4508 -0.9477  1.0936
  186DOPC   C2522881   5.129   3.373   3.059 -0.0409 -0.1762 -0.1645
  186DOPC   H5R22882   5.233   3.348   3.089 -0.1962  0.1898  0.6936
  186DOPC   H5S22883   5.081   3.284   3.015 -0.0477  0.3015 -1.1608
  186DOPC   C2622884   5.044   3.407   3.183 -0.4025 -0.3661  0.0728
  186DOPC   H6R22885   4.952   3.459   3.149  0.3360  0.4944 -0.6577
  186DOPC   H6S22886   5.104   3.475   3.247  3.1428 -1.7725 -1.4919
  186DOPC   C2722887   5.020   3.279   3.270  0.2761 -0.3510  0.8638
  186DOPC   H7R22888   5.114   3.221   3.280  0.7087  0.0333 -0.6899
  186DOPC   H7S22889   4.946   3.217   3.215 -0.6617 -0.2071  1.9188
  186DOPC   C2822890   4.947   3.302   3.412 -0.7245  0.2112  0.5505
  186DOPC   H8R22891   4.923   3.206   3.462 -0.3641  0.9878  2.2834
  186DOPC   H8S22892   4.857   3.364   3.392 -2.4301 -2.0822  0.6940
  186DOPC   C2922893   5.032   3.388   3.499 -0.6539  0.6180  0.3738
  186DOPC   H9R22894   5.037   3.496   3.479  0.9951  0.4604 -0.2036
  186DOPC  C21022895   5.090   3.348   3.613  0.1608  0.3394  0.3151
  186DOPC  H10R22896   5.147   3.421   3.671 -2.4740  0.5254  2.9609
  186DOPC  C21122897   5.081   3.206   3.674  0.1705  0.3677 -0.3961
  186DOPC  H11R22898   5.184   3.164   3.675  0.5624  1.1153 -2.8064
  186DOPC  H11S22899   5.018   3.129   3.624  0.2816 -0.6982  1.0580
  186DOPC  C21222900   5.029   3.203   3.813  0.7878 -0.0649 -0.2831
  186DOPC  H12R22901   4.918   3.210   3.807  0.7741  0.1490  0.1757
  186DOPC  H12S22902   5.070   3.279   3.883 -1.9263 -1.1297  2.7330
  186DOPC  C21322903   5.059   3.067   3.874  0.0972 -0.8880 -0.0980
  186DOPC  H13R22904   5.167   3.052   3.892  0.3361  1.6059  0.9971
  186DOPC  H13S22905   5.032   2.985   3.804  1.3636  0.1346 -1.8836
  186DOPC  C21422906   4.988   3.043   4.009  1.0410  0.4234 -0.0285
  186DOPC  H14R22907   4.994   2.937   4.043 -0.8258  0.3254  0.1383
  186DOPC  H14S22908   4.879   3.064   3.995  0.9295 -0.9626 -1.5084
  186DOPC  C21522909   5.026   3.142   4.128  0.3402  0.6849 -0.2537
  186DOPC  H15R22910   5.009   3.243   4.085 -1.0542 -0.1021 -1.6654
  186DOPC  H15S22911   5.132   3.120   4.152  0.4188 -1.6249 -2.3559
  186DOPC  C21622912   4.941   3.133   4.255  0.5259 -0.3165 -0.4280
  186DOPC  H16R22913   4.997   3.188   4.334  0.1350 -0.7987  0.1965
  186DOPC  H16S22914   4.941   3.027   4.290 -0.6561  0.3520  1.8228
  186DOPC  C21722915   4.800   3.196   4.250  0.3266 -0.4724 -0.2364
  186DOPC  H17R22916   4.737   3.142   4.177 -1.7429  2.9828 -1.2538
  186DOPC  H17S22917   4.808   3.300   4.210  0.6157 -0.7988 -1.0377
  186DOPC  C21822918   4.741   3.191   4.390  0.4397 -0.0921 -0.4294
  186DOPC  H18R22919   4.630   3.191   4.387  0.4386 -0.1708 -3.3420
  186DOPC  H18S22920   4.782   3.277   4.446  3.9203 -0.6581 -1.8653
  186DOPC  H18T22921   4.774   3.103   4.449 -2.3204 -0.2742  0.9802
  186DOPC   C3322922   5.589   3.655   2.925  0.2436  0.0978  0.3871
  186DOPC   H3X22923   5.672   3.582   2.911 -1.3288 -1.5384 -0.9290
  186DOPC   H3Y22924   5.502   3.601   2.881  0.7563  0.8123 -1.5936
  186DOPC   C3422925   5.548   3.683   3.069  0.3382  0.1152  0.0472
  186DOPC   H4X22926   5.463   3.754   3.082  1.5530  1.6694 -0.2528
  186DOPC   H4Y22927   5.633   3.742   3.109 -0.3892  2.0321 -1.0930
  186DOPC   C3522928   5.509   3.562   3.146  0.6248  0.3581 -0.2193
  186DOPC   H5X22929   5.608   3.512   3.156  1.9532  1.6692 -4.4681
  186DOPC   H5Y22930   5.440   3.490   3.098  0.9617 -0.2690  0.2094
  186DOPC   C3622931   5.461   3.579   3.288  0.4085 -0.1358 -0.5289
  186DOPC   H6X22932   5.516   3.656   3.347 -0.7407 -0.6359  1.2910
  186DOPC   H6Y22933   5.357   3.617   3.281 -0.1684 -1.8514 -2.3719
  186DOPC   C3722934   5.458   3.455   3.376  0.0960  0.5666  0.1648
  186DOPC   H7X22935   5.385   3.378   3.343  3.0334 -2.2175 -0.3724
  186DOPC   H7Y22936   5.558   3.406   3.374  0.6247  1.6252 -0.5146
  186DOPC   C3822937   5.445   3.488   3.526 -0.2315  0.0201  0.2989
  186DOPC   H8X22938   5.357   3.555   3.540  0.0652  0.2452  1.1606
  186DOPC   H8Y22939   5.537   3.548   3.543  0.5157 -0.9201 -0.3714
  186DOPC   C3922940   5.431   3.365   3.613  0.6472  0.1837 -0.1839
  186DOPC   H9X22941   5.418   3.279   3.545  1.3952 -0.2028  0.1465
  186DOPC  C31022942   5.457   3.370   3.749 -0.3032 -0.4181  0.3042
  186DOPC  H10X22943   5.464   3.278   3.809 -1.8606 -0.7051  0.0875
  186DOPC  C31122944   5.498   3.503   3.817 -0.1812 -0.2330  0.0855
  186DOPC  H11X22945   5.518   3.585   3.745  2.5248 -2.9983 -2.6346
  186DOPC  H11Y22946   5.596   3.473   3.858  0.1175 -1.3339 -1.3347
  186DOPC  C31222947   5.419   3.564   3.940  0.2148  0.1401 -0.3738
  186DOPC  H12X22948   5.322   3.602   3.903 -0.8333 -1.3891  0.7214
  186DOPC  H12Y22949   5.476   3.649   3.984  0.0856 -0.7116  1.5259
  186DOPC  C31322950   5.384   3.462   4.050 -0.2697 -0.3717 -0.9354
  186DOPC  H13X22951   5.321   3.382   4.004 -0.0910 -0.8848 -0.2988
  186DOPC  H13Y22952   5.475   3.414   4.091 -0.4086 -0.0000 -0.1744
  186DOPC  C31422953   5.302   3.534   4.160  0.0219 -0.1732  0.2049
  186DOPC  H14X22954   5.351   3.630   4.186  0.1125 -0.7803  2.4769
  186DOPC  H14Y22955   5.194   3.541   4.135  0.0085 -0.0181  0.3085
  186DOPC  C31522956   5.290   3.458   4.299 -1.1021  0.3392 -0.3082
  186DOPC  H15X22957   5.394   3.450   4.339 -1.9524 -1.8006  1.6958
  186DOPC  H15Y22958   5.251   3.355   4.291 -0.8813  0.1751  0.6393
  186DOPC  C31622959   5.214   3.529   4.415 -0.7802 -0.1634  0.3211
  186DOPC  H16X22960   5.122   3.573   4.371 -1.2222 -0.1469  1.2485
  186DOPC  H16Y22961   5.182   3.465   4.500  0.1208 -2.9179 -1.2721
  186DOPC  C31722962   5.289   3.656   4.464 -0.6635 -0.7665  0.0170
  186DOPC  H17X22963   5.386   3.621   4.506 -0.9640 -1.3894  0.1962
  186DOPC  H17Y22964   5.312   3.718   4.375  2.1338 -1.2011  0.3572
  186DOPC  C31822965   5.218   3.746   4.565  0.4549  0.5617 -0.1992
  186DOPC  H18X22966   5.128   3.793   4.519  0.5720 -0.2884 -1.3561
  186DOPC  H18Y22967   5.180   3.690   4.653  0.4516  0.3614 -0.3278
  186DOPC  H18Z22968   5.291   3.821   4.603 -0.0505  2.1613 -2.1790
  187DOPC     N22969   5.367   2.723   2.019  0.4272 -0.6089 -0.0256
  187DOPC   C1222970   5.288   2.765   2.140 -0.1113  0.4680 -0.1474
  187DOPC  H12A22971   5.183   2.775   2.115 -0.5274 -1.1052  0.8071
  187DOPC  H12B22972   5.315   2.864   2.176  0.2223  1.1375 -2.1455
  187DOPC   C1322973   5.372   2.840   1.924 -0.3931 -0.2869 -0.0697
  187DOPC  H13A22974   5.415   2.933   1.959  1.7082 -0.2130 -2.5603
  187DOPC  H13B22975   5.421   2.808   1.834  0.3631 -1.2997  0.6809
  187DOPC  H13C22976   5.274   2.874   1.894 -0.7878 -0.0825  1.3866
  187DOPC   C1422977   5.306   2.608   1.948  0.0947  0.3158 -0.3548
  187DOPC  H14A22978   5.284   2.529   2.018 -1.9989  1.2791  0.1634
  187DOPC  H14B22979   5.213   2.646   1.909 -0.2086 -0.2063 -0.1483
  187DOPC  H14C22980   5.368   2.571   1.868  1.4497 -0.1279  0.8354
  187DOPC   C1522981   5.503   2.692   2.057 -0.3115 -0.0702  0.2146
  187DOPC  H15A22982   5.564   2.676   1.970 -1.2820 -0.6319 -0.3724
  187DOPC  H15B22983   5.519   2.602   2.116  1.5035 -0.9107 -1.4478
  187DOPC  H15C22984   5.531   2.768   2.129  1.3931 -1.0878  0.6905
  187DOPC   C1122985   5.272   2.660   2.260 -0.2042  0.3155 -0.1582
  187DOPC  H11A22986   5.374   2.618   2.273 -0.1532  0.6345  0.5117
  187DOPC  H11B22987   5.237   2.707   2.355 -1.2792 -0.8411  0.0582
  187DOPC     P22988   5.031   2.562   2.223 -0.5055  0.1141 -0.5720
  187DOPC   O1322989   4.982   2.424   2.200  0.0703  0.0686 -0.7960
  187DOPC   O1422990   4.985   2.668   2.134  0.4261  0.2904 -0.3140
  187DOPC   O1222991   5.184   2.553   2.232 -0.1831 -0.0849  0.6458
  187DOPC   O1122992   4.998   2.596   2.373 -0.5290  0.5533  0.5471
  187DOPC    C122993   5.047   2.522   2.483 -0.2361  0.5676  0.5846
  187DOPC    HA22994   5.158   2.520   2.480 -0.1929 -0.3682 -3.9020
  187DOPC    HB22995   5.014   2.416   2.475 -0.1593  0.5240  0.8442
  187DOPC    C222996   5.003   2.602   2.606  0.3499  0.1302 -0.4197
  187DOPC    HS22997   5.060   2.578   2.699 -2.1856 -0.3097  1.1145
  187DOPC   O2122998   4.859   2.585   2.626 -0.7570 -0.2372 -0.0316
  187DOPC   C2122999   4.804   2.472   2.672  0.3360 -0.2801  0.3518
  187DOPC   O2223000   4.865   2.368   2.689 -0.1651 -0.4260 -0.4764
  187DOPC   C2223001   4.655   2.499   2.707  0.0286  0.3430 -0.3804
  187DOPC   H2R23002   4.594   2.499   2.615 -0.2622  0.4167 -0.1897
  187DOPC   H2S23003   4.649   2.606   2.736  0.0690  0.1147  0.5245
  187DOPC    C323004   5.028   2.757   2.587  0.6747  0.1889  0.4151
  187DOPC    HX23005   4.923   2.783   2.559  0.0003 -0.8057  1.8628
  187DOPC    HY23006   5.096   2.782   2.503  0.1111  1.9824  0.4613
  187DOPC   O3123007   5.052   2.825   2.713 -0.0855 -0.1525  0.5417
  187DOPC   C3123008   5.187   2.824   2.744  0.1830 -0.3903 -0.4220
  187DOPC   O3223009   5.275   2.770   2.681 -0.2332  0.2884 -0.3902
  187DOPC   C3223010   5.201   2.896   2.881  0.1463  0.2499  0.4786
  187DOPC   H2X23011   5.310   2.896   2.903  0.3564 -0.4521 -0.5433
  187DOPC   H2Y23012   5.177   3.003   2.860  2.9907  0.8446 -0.1265
  187DOPC   C2323013   4.602   2.405   2.814  0.5318  0.6413 -0.0099
  187DOPC   H3R23014   4.645   2.303   2.800 -1.1651 -0.5122  2.3906
  187DOPC   H3S23015   4.491   2.395   2.812  0.6360 -1.0573  0.6864
  187DOPC   C2423016   4.643   2.449   2.958 -0.3508 -0.2292  0.1309
  187DOPC   H4R23017   4.749   2.484   2.960 -0.2758 -0.4670  1.8453
  187DOPC   H4S23018   4.624   2.372   3.035 -2.4430 -0.8914 -0.9692
  187DOPC   C2523019   4.565   2.574   2.999 -0.4448 -0.2571  0.4803
  187DOPC   H5R23020   4.459   2.553   2.972 -0.0794 -1.5958  0.0267
  187DOPC   H5S23021   4.591   2.671   2.951  1.3847 -0.4014  1.0904
  187DOPC   C2623022   4.573   2.581   3.149  0.2003 -0.5247  0.2378
  187DOPC   H6R23023   4.674   2.608   3.187  1.0303 -0.7854 -1.6881
  187DOPC   H6S23024   4.548   2.487   3.202 -0.0020  0.3105  1.6874
  187DOPC   C2723025   4.478   2.697   3.202 -0.4853  0.9722  0.2072
  187DOPC   H7R23026   4.375   2.672   3.170 -0.2838 -0.2697  0.4713
  187DOPC   H7S23027   4.501   2.798   3.161 -0.5716  0.4938 -1.0448
  187DOPC   C2823028   4.487   2.718   3.357 -0.3207  0.3533  0.4596
  187DOPC   H8R23029   4.473   2.619   3.407  0.1533 -0.4046 -0.8647
  187DOPC   H8S23030   4.410   2.790   3.389 -0.8122  0.5212 -1.0433
  187DOPC   C2923031   4.625   2.770   3.397 -0.5422 -0.1390 -0.3870
  187DOPC   H9R23032   4.658   2.857   3.339  0.1310  0.5026  0.9157
  187DOPC  C21023033   4.709   2.714   3.490  0.0625 -0.0127  0.9376
  187DOPC  H10R23034   4.806   2.762   3.508  0.2939  0.6764 -1.6834
  187DOPC  C21123035   4.682   2.593   3.575  0.3332 -0.5560 -0.5573
  187DOPC  H11R23036   4.725   2.507   3.520  0.7882 -1.0692  0.5589
  187DOPC  H11S23037   4.576   2.573   3.598  0.5118 -0.3120  0.5426
  187DOPC  C21223038   4.750   2.594   3.711  0.1889  0.0276 -0.3686
  187DOPC  H12R23039   4.859   2.608   3.695  0.2116 -1.6281 -1.8782
  187DOPC  H12S23040   4.739   2.492   3.754 -2.1026  0.1770 -0.4565
  187DOPC  C21323041   4.683   2.691   3.808 -0.1746  0.2181 -0.1208
  187DOPC  H13R23042   4.580   2.662   3.837  0.6700 -0.1756  2.8857
  187DOPC  H13S23043   4.674   2.793   3.763 -1.0741 -0.4154 -1.4277
  187DOPC  C21423044   4.752   2.703   3.945 -0.0577 -0.4734 -0.1382
  187DOPC  H14R23045   4.693   2.768   4.013 -0.0503 -1.1385  0.5136
  187DOPC  H14S23046   4.853   2.747   3.931 -1.4148  2.8677 -0.3271
  187DOPC  C21523047   4.765   2.570   4.025  0.3538 -0.3366 -0.1682
  187DOPC  H15R23048   4.794   2.591   4.130 -1.3537  0.2654  0.2063
  187DOPC  H15S23049   4.845   2.511   3.975  1.1319  0.7987 -0.3142
  187DOPC  C21623050   4.635   2.489   4.042  0.0116 -0.1725 -0.2807
  187DOPC  H16R23051   4.666   2.390   4.080 -1.4525 -0.6043 -0.1753
  187DOPC  H16S23052   4.594   2.476   3.939  0.9493  0.4230 -0.7462
  187DOPC  C21723053   4.532   2.556   4.133  0.4374 -0.6208  0.0820
  187DOPC  H17R23054   4.524   2.666   4.114  0.2740 -0.5971  0.2848
  187DOPC  H17S23055   4.568   2.550   4.238 -1.1935  2.1271  0.8936
  187DOPC  C21823056   4.395   2.487   4.134  0.3742  0.4527  0.3464
  187DOPC  H18R23057   4.335   2.539   4.212  2.9725  2.4766  1.1520
  187DOPC  H18S23058   4.409   2.378   4.145  2.4661  0.5704 -0.6726
  187DOPC  H18T23059   4.343   2.508   4.038  1.0078 -0.7954 -0.2960
  187DOPC   C3323060   5.122   2.835   2.992 -0.0789  0.9284 -0.0193
  187DOPC   H3X23061   5.138   2.726   3.001  0.8097  1.2436  4.4474
  187DOPC   H3Y23062   5.012   2.850   2.987 -0.2625 -0.3484  0.0620
  187DOPC   C3423063   5.160   2.896   3.124  0.6702  0.2457 -0.1463
  187DOPC   H4X23064   5.141   3.002   3.150 -0.4689 -0.4270  2.0731
  187DOPC   H4Y23065   5.271   2.894   3.118  0.5667 -0.6907 -3.0317
  187DOPC   C3523066   5.102   2.815   3.242 -0.2441 -0.0924 -0.3537
  187DOPC   H5X23067   5.121   2.707   3.222 -1.5687 -0.3288 -0.4695
  187DOPC   H5Y23068   4.991   2.825   3.245 -0.2853  0.5973 -2.6791
  187DOPC   C3623069   5.172   2.857   3.374  0.4131 -0.1962 -0.1645
  187DOPC   H6X23070   5.275   2.820   3.361  0.0485 -1.2721 -0.1111
  187DOPC   H6Y23071   5.159   2.965   3.399 -2.9300 -0.2853 -1.0182
  187DOPC   C3723072   5.108   2.791   3.494 -0.4826 -0.4781 -0.5438
  187DOPC   H7X23073   5.001   2.822   3.490  0.0125  1.6046  0.5652
  187DOPC   H7Y23074   5.093   2.682   3.477 -2.1226 -0.1448 -1.4842
  187DOPC   C3823075   5.181   2.823   3.623 -0.4282  0.2300  0.3766
  187DOPC   H8X23076   5.164   2.929   3.650  0.1923  0.0633  1.4780
  187DOPC   H8Y23077   5.287   2.794   3.606 -0.3185  0.1652  1.1362
  187DOPC   C3923078   5.124   2.725   3.720 -0.4494  0.0956  0.0532
  187DOPC   H9X23079   5.026   2.752   3.762 -0.0200  0.3900  0.8852
  187DOPC  C31023080   5.186   2.617   3.779  0.3853  0.1583 -0.8316
  187DOPC  H10X23081   5.121   2.550   3.838 -0.0977 -0.4222 -1.9959
  187DOPC  C31123082   5.331   2.558   3.762  0.3442 -0.1979 -0.0667
  187DOPC  H11X23083   5.373   2.603   3.670  0.2740 -0.2146 -0.1071
  187DOPC  H11Y23084   5.336   2.447   3.763  0.9286 -0.1732  0.1741
  187DOPC  C31223085   5.414   2.611   3.882  0.3347 -0.2420  0.0842
  187DOPC  H12X23086   5.419   2.722   3.877  0.5230 -0.1507  1.7272
  187DOPC  H12Y23087   5.516   2.566   3.881  0.2582 -0.4120 -0.5821
  187DOPC  C31323088   5.354   2.565   4.016 -0.9081 -0.0335  0.0493
  187DOPC  H13X23089   5.254   2.612   4.030 -0.0897  1.7185  0.3724
  187DOPC  H13Y23090   5.326   2.458   4.014 -3.0450  0.3922  1.8983
  187DOPC  C31423091   5.442   2.588   4.137  0.3589  0.0804  0.3664
  187DOPC  H14X23092   5.401   2.538   4.227  0.0984  1.2392  0.9118
  187DOPC  H14Y23093   5.535   2.535   4.106  0.3573  0.2254  0.1064
  187DOPC  C31523094   5.484   2.733   4.165 -0.4058 -0.0856  0.1796
  187DOPC  H15X23095   5.393   2.793   4.142 -1.0758 -1.3286 -0.5425
  187DOPC  H15Y23096   5.561   2.750   4.087 -0.2359 -1.1116  0.1032
  187DOPC  C31623097   5.542   2.768   4.306 -0.0048  0.3620  0.2802
  187DOPC  H16X23098   5.461   2.745   4.379  0.5697  1.8706  1.4361
  187DOPC  H16Y23099   5.638   2.713   4.317 -1.0304 -1.8047 -0.7826
  187DOPC  C31723100   5.587   2.916   4.310  0.6694  0.8166 -0.1585
  187DOPC  H17X23101   5.610   2.946   4.414 -0.4596 -0.6275  0.5381
  187DOPC  H17Y23102   5.683   2.931   4.256  0.9197 -0.8294 -0.2065
  187DOPC  C31823103   5.486   3.009   4.253 -0.3286 -0.1844  0.1149
  187DOPC  H18X23104   5.507   3.118   4.264 -0.4435 -0.0520 -0.8868
  187DOPC  H18Y23105   5.477   2.993   4.144  1.1023  0.3265 -0.1010
  187DOPC  H18Z23106   5.389   2.978   4.296  0.3192 -0.0465  1.7873
  188DOPC     N23107   1.115   0.413   2.963  0.1796  0.2836 -0.9307
  188DOPC   C1223108   0.994   0.457   3.049 -0.1424 -0.0736  0.0013
  188DOPC  H12A23109   0.993   0.392   3.135  0.7694 -2.0948 -1.4367
  188DOPC  H12B23110   0.910   0.432   2.985 -0.9179  0.9441  0.6008
  188DOPC   C1323111   1.124   0.267   2.938 -0.1542 -0.5335 -0.3779
  188DOPC  H13A23112   1.146   0.218   3.031 -0.9183 -2.0461 -0.9615
  188DOPC  H13B23113   1.030   0.233   2.897 -1.7183  2.8218  0.0790
  188DOPC  H13C23114   1.206   0.240   2.873  1.7068  1.8489  0.8174
  188DOPC   C1423115   1.240   0.448   3.035  0.1383  0.8749  0.6602
  188DOPC  H14A23116   1.238   0.551   3.067 -1.1543  0.6994  1.2052
  188DOPC  H14B23117   1.264   0.381   3.116 -2.4370  0.3606  1.0799
  188DOPC  H14C23118   1.323   0.438   2.968  0.5838  1.3960  1.1246
  188DOPC   C1523119   1.102   0.482   2.831 -0.3920 -0.2613  0.5280
  188DOPC  H15A23120   1.003   0.464   2.790 -0.9413 -2.8335  2.6861
  188DOPC  H15B23121   1.178   0.455   2.760 -0.0131  1.1320  0.3787
  188DOPC  H15C23122   1.105   0.588   2.850  0.8967 -0.1157 -0.3667
  188DOPC   C1123123   0.985   0.604   3.093  0.0509 -0.0816  0.1697
  188DOPC  H11A23124   0.905   0.612   3.170  0.3302  0.8767  0.3690
  188DOPC  H11B23125   1.077   0.638   3.145  0.3282 -0.9011  0.2344
  188DOPC     P23126   0.986   0.835   2.968 -0.2265  0.3372  0.3137
  188DOPC   O1323127   0.887   0.900   2.883  0.3942 -0.4597 -0.1655
  188DOPC   O1423128   1.131   0.859   2.942 -0.2261 -0.0061 -0.1120
  188DOPC   O1223129   0.959   0.683   2.978 -0.6760  0.0506  0.3507
  188DOPC   O1123130   0.947   0.877   3.114 -0.0595  0.3048  0.0031
  188DOPC    C123131   0.805   0.862   3.150  0.6710 -0.4587  0.5480
  188DOPC    HA23132   0.765   0.761   3.127 -0.4379  0.3223 -1.1438
  188DOPC    HB23133   0.734   0.922   3.089 -1.1881  1.5038  4.3242
  188DOPC    C223134   0.781   0.894   3.298 -0.7458 -0.2686  0.3193
  188DOPC    HS23135   0.673   0.917   3.310 -0.4228  1.2281  0.5040
  188DOPC   O2123136   0.856   1.008   3.336  0.0808 -0.0803  0.2456
  188DOPC   C2123137   0.821   1.126   3.289 -0.3452 -0.1845 -0.0953
  188DOPC   O2223138   0.726   1.156   3.221  0.6005 -0.0161  0.3718
  188DOPC   C2223139   0.939   1.220   3.313 -0.4333 -0.0794  0.0913
  188DOPC   H2R23140   0.932   1.307   3.244 -1.8799 -0.0067  0.3111
  188DOPC   H2S23141   1.037   1.167   3.300  0.5593  2.1145 -2.1233
  188DOPC    C323142   0.816   0.778   3.393  0.7352  0.2016 -0.1017
  188DOPC    HX23143   0.907   0.734   3.347  2.6235  1.4930  2.1833
  188DOPC    HY23144   0.739   0.699   3.376  0.5029 -0.1517  2.2740
  188DOPC   O3123145   0.821   0.814   3.533  0.2420  0.3281 -0.0635
  188DOPC   C3123146   0.946   0.846   3.574  0.1774  0.7418  0.4217
  188DOPC   O3223147   1.054   0.845   3.511  0.1027 -0.5374  0.1709
  188DOPC   C3223148   0.943   0.876   3.719 -0.8293  0.2780 -0.0922
  188DOPC   H2X23149   0.961   0.985   3.735 -2.6689  0.7034 -0.7121
  188DOPC   H2Y23150   0.843   0.859   3.764 -0.5151  2.2201  1.5076
  188DOPC   C2323151   0.942   1.283   3.457  0.9055 -1.1391 -0.2529
  188DOPC   H3R23152   1.051   1.302   3.472  0.5332 -0.2434  1.4895
  188DOPC   H3S23153   0.901   1.214   3.534  3.3147 -2.3554  0.0426
  188DOPC   C2423154   0.865   1.417   3.465 -0.0740  1.0300 -0.0678
  188DOPC   H4R23155   0.756   1.400   3.452  0.0720  0.6491 -0.8208
  188DOPC   H4S23156   0.898   1.484   3.383 -2.5494 -0.1871 -2.1690
  188DOPC   C2523157   0.874   1.491   3.604  0.0733  0.2051  0.2238
  188DOPC   H5R23158   0.823   1.588   3.583 -0.8580 -0.1476  0.7865
  188DOPC   H5S23159   0.979   1.516   3.630  0.4687 -0.8117 -0.3458
  188DOPC   C2623160   0.805   1.429   3.726 -0.3431  0.5159  0.1909
  188DOPC   H6R23161   0.871   1.344   3.755  0.9579  2.4944  3.4992
  188DOPC   H6S23162   0.706   1.383   3.705  0.2507 -0.5431 -0.4193
  188DOPC   C2723163   0.784   1.519   3.852 -0.7033  0.1874 -0.4588
  188DOPC   H7R23164   0.698   1.471   3.905 -0.0061 -2.2234 -1.3604
  188DOPC   H7S23165   0.754   1.618   3.813  0.0512  0.2977 -0.7677
  188DOPC   C2823166   0.915   1.521   3.948  0.2332  0.7438  0.0927
  188DOPC   H8R23167   0.890   1.593   4.029 -2.3053  1.3886 -1.1807
  188DOPC   H8S23168   1.007   1.545   3.890  0.7989  0.2203  0.7486
  188DOPC   C2923169   0.944   1.384   4.021  0.1591 -0.6494 -0.1347
  188DOPC   H9R23170   0.984   1.307   3.952  1.2561 -1.3353  1.2255
  188DOPC  C21023171   0.911   1.339   4.147 -0.0813  0.2687  0.5511
  188DOPC  H10R23172   0.949   1.240   4.178 -2.6948 -1.3717 -1.0289
  188DOPC  C21123173   0.833   1.421   4.241 -0.4488 -0.4359 -0.2844
  188DOPC  H11R23174   0.756   1.354   4.284  1.2893 -1.3821  1.4841
  188DOPC  H11S23175   0.770   1.497   4.189 -1.2382 -0.2038  0.9530
  188DOPC  C21223176   0.927   1.494   4.337  0.1325  0.5063  0.6959
  188DOPC  H12R23177   0.992   1.564   4.280  0.1242  1.7903  2.1968
  188DOPC  H12S23178   0.995   1.423   4.389 -1.3999 -0.7072  1.1197
  188DOPC  C21323179   0.856   1.580   4.443 -0.2870 -0.3436 -0.8675
  188DOPC  H13R23180   0.792   1.649   4.384  1.9548  2.7231 -0.0205
  188DOPC  H13S23181   0.921   1.648   4.504 -2.2603  0.1400  0.8117
  188DOPC  C21423182   0.776   1.492   4.543  0.6880  0.4642  0.1030
  188DOPC  H14R23183   0.837   1.406   4.578  1.5026  0.5615 -0.9930
  188DOPC  H14S23184   0.687   1.453   4.489 -0.6702  1.7345  1.3379
  188DOPC  C21523185   0.733   1.574   4.660 -0.2145 -0.0183 -0.3059
  188DOPC  H15R23186   0.646   1.521   4.703 -1.1614  0.7669 -1.2262
  188DOPC  H15S23187   0.686   1.665   4.619 -2.1823 -0.3178  1.1722
  188DOPC  C21623188   0.836   1.614   4.766  0.8246 -0.2717 -0.0433
  188DOPC  H16R23189   0.780   1.681   4.834 -0.4829  1.8496 -3.0063
  188DOPC  H16S23190   0.913   1.681   4.722  0.9704 -1.3919 -1.5913
  188DOPC  C21723191   0.900   1.494   4.841 -0.6189 -1.3170 -0.2714
  188DOPC  H17R23192   0.968   1.439   4.773  0.5845  0.8644 -0.9421
  188DOPC  H17S23193   0.818   1.422   4.862  0.2228 -2.3306 -0.3473
  188DOPC  C21823194   0.981   1.545   4.964 -0.6061  0.1808  0.4368
  188DOPC  H18R23195   1.085   1.564   4.927 -0.6455  1.1518  0.7830
  188DOPC  H18S23196   0.987   1.465   5.041 -0.5546  0.9933  1.2948
  188DOPC  H18T23197   0.945   1.641   5.006  0.4555  1.1339 -0.7160
  188DOPC   C3323198   1.059   0.809   3.807 -0.5033 -0.4882 -0.0092
  188DOPC   H3X23199   1.154   0.848   3.767 -0.1564 -1.3970 -0.1042
  188DOPC   H3Y23200   1.047   0.700   3.784 -0.4598 -0.5437  0.2274
  188DOPC   C3423201   1.043   0.827   3.957 -0.0712  0.2918  0.7258
  188DOPC   H4X23202   1.049   0.935   3.984 -1.3463  0.1286  1.7556
  188DOPC   H4Y23203   1.117   0.777   4.023 -0.0920  1.1425  1.4125
  188DOPC   C3523204   0.904   0.792   4.002  0.3568  0.1273 -0.2487
  188DOPC   H5X23205   0.866   0.693   3.969  0.6179  0.0480 -0.3120
  188DOPC   H5Y23206   0.835   0.870   3.965 -0.2845 -0.2181  0.2057
  188DOPC   C3623207   0.894   0.795   4.161  0.0878 -0.2587 -0.0509
  188DOPC   H6X23208   0.970   0.734   4.213 -1.5258 -1.1603  1.3532
  188DOPC   H6Y23209   0.919   0.899   4.192 -1.8390  0.4193 -0.6288
  188DOPC   C3723210   0.753   0.751   4.200 -0.0991  0.2041 -0.3485
  188DOPC   H7X23211   0.681   0.833   4.178  0.4473  0.5348 -0.9299
  188DOPC   H7Y23212   0.716   0.659   4.151 -1.8140  0.4495  0.3964
  188DOPC   C3823213   0.736   0.726   4.351  0.6404 -0.5152 -0.2289
  188DOPC   H8X23214   0.626   0.718   4.358  0.7074 -1.4058 -0.1493
  188DOPC   H8Y23215   0.783   0.810   4.407  0.8206 -0.8652  0.1514
  188DOPC   C3923216   0.807   0.598   4.391 -0.0185  0.1182  0.0402
  188DOPC   H9X23217   0.884   0.559   4.323  0.7430 -1.3780  1.6633
  188DOPC  C31023218   0.776   0.529   4.510 -0.2336  0.2572 -0.4825
  188DOPC  H10X23219   0.834   0.442   4.544  1.2239  1.2691 -0.2675
  188DOPC  C31123220   0.667   0.572   4.607 -0.4164 -1.3352  0.3949
  188DOPC  H11X23221   0.598   0.486   4.614 -1.6266 -0.4089  0.0556
  188DOPC  H11Y23222   0.601   0.645   4.555  0.6081  1.0051  2.1710
  188DOPC  C31223223   0.707   0.615   4.752 -0.3671  0.3093  0.0084
  188DOPC  H12X23224   0.620   0.617   4.821  0.0291  1.6664  0.5102
  188DOPC  H12Y23225   0.745   0.720   4.745  1.1982 -0.1764  0.7608
  188DOPC  C31323226   0.819   0.532   4.817 -0.4350 -0.1573  0.3988
  188DOPC  H13X23227   0.786   0.426   4.809  1.6929 -0.8143 -0.3384
  188DOPC  H13Y23228   0.914   0.541   4.760  0.2677 -1.4110  1.3391
  188DOPC  C31423229   0.834   0.580   4.959  0.5624  0.2101 -0.1609
  188DOPC  H14X23230   0.881   0.681   4.959 -0.0237  0.4883  0.3522
  188DOPC  H14Y23231   0.736   0.590   5.010 -0.8624 -1.2860 -2.4136
  188DOPC  C31523232   0.923   0.478   5.036  0.0653 -0.3012 -0.2446
  188DOPC  H15X23233   1.029   0.476   5.003  0.3616 -1.2424  0.7324
  188DOPC  H15Y23234   0.890   0.373   5.022 -1.0953 -0.0596  0.5126
  188DOPC  C31623235   0.927   0.498   5.188 -0.3672  0.2543  0.1920
  188DOPC  H16X23236   0.994   0.585   5.203 -1.2324  1.0709 -0.5738
  188DOPC  H16Y23237   0.831   0.533   5.232 -0.6214  0.2240 -0.3330
  188DOPC  C31723238   0.979   0.381   5.262 -0.1761  0.3143  0.4122
  188DOPC  H17X23239   0.918   0.290   5.242 -0.9518  0.1233  3.2764
  188DOPC  H17Y23240   1.080   0.361   5.221 -1.1856 -1.1210 -1.5411
  188DOPC  C31823241   0.982   0.393   5.415 -0.5695  0.2742 -0.0553
  188DOPC  H18X23242   1.015   0.295   5.456 -0.5316  0.8402  1.3153
  188DOPC  H18Y23243   1.054   0.476   5.435 -1.5756  1.4278 -1.0258
  188DOPC  H18Z23244   0.891   0.438   5.460  0.8139 -0.3242  3.7168
  189DOPC     N23245   4.540   6.922   2.115  0.2717  0.6423  0.3540
  189DOPC   C1223246   4.583   7.066   2.114  0.9376 -0.0976  0.0521
  189DOPC  H12A23247   4.495   7.125   2.098  0.3338 -1.2071 -0.8935
  189DOPC  H12B23248   4.642   7.090   2.026 -0.2338  3.2073  0.0588
  189DOPC   C1323249   4.502   6.876   1.979  0.2383 -0.3413  0.0030
  189DOPC  H13A23250   4.581   6.890   1.907  0.4226  1.2384  0.4832
  189DOPC  H13B23251   4.484   6.769   1.982  0.0646 -0.4534 -2.6130
  189DOPC  H13C23252   4.414   6.927   1.943  0.6702  1.6140  1.5240
  189DOPC   C1423253   4.430   6.897   2.217  1.0464  0.0468  0.1225
  189DOPC  H14A23254   4.347   6.955   2.181  0.6179  0.5605  1.8452
  189DOPC  H14B23255   4.392   6.796   2.226 -0.2808  0.5722  0.7587
  189DOPC  H14C23256   4.466   6.930   2.313  0.8400 -0.3110  0.3248
  189DOPC   C1523257   4.652   6.838   2.162  0.4688  0.2046  0.3324
  189DOPC  H15A23258   4.744   6.857   2.109  0.0484  2.0291  0.1949
  189DOPC  H15B23259   4.620   6.735   2.153  1.7761 -0.1130 -1.0682
  189DOPC  H15C23260   4.662   6.868   2.266 -0.5291 -1.3095  0.9114
  189DOPC   C1123261   4.658   7.114   2.237 -0.3273 -0.6157 -0.0752
  189DOPC  H11A23262   4.753   7.060   2.254  0.2590  0.5773  0.5993
  189DOPC  H11B23263   4.688   7.219   2.219 -1.6602 -0.5004 -1.8912
  189DOPC     P23264   4.485   7.217   2.409 -0.2761 -0.5283 -0.1234
  189DOPC   O1323265   4.367   7.152   2.469 -0.0813 -0.2331  0.0650
  189DOPC   O1423266   4.459   7.317   2.300 -0.4028  0.2276 -0.4369
  189DOPC   O1223267   4.580   7.107   2.353 -0.4650 -0.6281  0.1191
  189DOPC   O1123268   4.578   7.282   2.519 -0.1183 -1.1105  0.0459
  189DOPC    C123269   4.631   7.204   2.628  0.2814 -0.0620 -0.0031
  189DOPC    HA23270   4.727   7.245   2.666 -0.4504  1.3186  0.3993
  189DOPC    HB23271   4.658   7.097   2.610 -0.8134 -0.1151 -1.5460
  189DOPC    C223272   4.547   7.204   2.758 -0.8440  0.1827 -0.7212
  189DOPC    HS23273   4.464   7.132   2.744 -1.0566  0.0447  1.0308
  189DOPC   O2123274   4.499   7.340   2.782 -0.3626 -0.4046 -0.3604
  189DOPC   C2123275   4.376   7.336   2.832  0.2419 -0.2798  0.0497
  189DOPC   O2223276   4.318   7.234   2.869 -0.1820 -0.3031  0.1548
  189DOPC   C2223277   4.316   7.480   2.828  0.0222  0.4969 -0.1370
  189DOPC   H2R23278   4.228   7.470   2.760  0.3368 -2.7049 -0.2254
  189DOPC   H2S23279   4.379   7.556   2.777  0.1009  0.7334  0.3060
  189DOPC    C323280   4.644   7.158   2.882 -0.2680 -0.3890 -0.1540
  189DOPC    HX23281   4.723   7.235   2.868  0.0231 -0.1599  2.2882
  189DOPC    HY23282   4.669   7.051   2.866  1.1219  0.0799 -1.2965
  189DOPC   O3123283   4.590   7.176   3.016  0.0136 -0.0751 -0.5845
  189DOPC   C3123284   4.557   7.062   3.083  0.4739  0.6539 -0.2491
  189DOPC   O3223285   4.586   6.949   3.049  0.3389 -0.6836  0.0030
  189DOPC   C3223286   4.474   7.103   3.195  0.5916 -1.1240  0.6410
  189DOPC   H2X23287   4.471   7.212   3.216 -3.5435 -0.9641 -0.0427
  189DOPC   H2Y23288   4.368   7.103   3.162  0.7544 -1.9364  0.0928
  189DOPC   C2323289   4.268   7.532   2.964 -0.4531 -0.2153 -0.1646
  189DOPC   H3R23290   4.205   7.459   3.019 -0.3354  1.4967  2.4113
  189DOPC   H3S23291   4.195   7.609   2.931 -2.1331 -1.3390  0.8047
  189DOPC   C2423292   4.386   7.603   3.044 -0.0335  0.1095  0.7571
  189DOPC   H4R23293   4.403   7.703   2.997  0.1506 -0.6491 -0.8641
  189DOPC   H4S23294   4.479   7.546   3.022 -0.8200 -0.0283 -2.7347
  189DOPC   C2523295   4.371   7.624   3.191  0.7561  0.0988  0.1367
  189DOPC   H5R23296   4.279   7.680   3.215  1.6001  1.0698  1.2140
  189DOPC   H5S23297   4.456   7.680   3.236  1.1328 -1.0124  0.8451
  189DOPC   C2623298   4.368   7.490   3.266  0.0924  0.4926  0.4081
  189DOPC   H6R23299   4.465   7.436   3.272 -0.6009 -0.7762  0.5894
  189DOPC   H6S23300   4.294   7.418   3.225 -0.3245  1.2564 -0.2165
  189DOPC   C2723301   4.340   7.499   3.420  0.2857  0.1528 -0.2043
  189DOPC   H7R23302   4.231   7.495   3.439 -0.1155  1.9298 -1.8033
  189DOPC   H7S23303   4.362   7.603   3.453 -0.5161  0.5936 -1.0127
  189DOPC   C2823304   4.411   7.399   3.508  0.0150  0.7383 -0.6908
  189DOPC   H8R23305   4.519   7.386   3.489 -0.2242  0.3834 -1.9160
  189DOPC   H8S23306   4.373   7.296   3.492 -0.0420  0.3262  1.7160
  189DOPC   C2923307   4.406   7.446   3.655  0.0932 -0.2339 -0.1704
  189DOPC   H9R23308   4.488   7.513   3.684  2.3645 -2.2859 -1.5106
  189DOPC  C21023309   4.311   7.407   3.746 -0.6017  0.2711 -0.3270
  189DOPC  H10R23310   4.337   7.429   3.851 -2.1401  0.5521  0.0148
  189DOPC  C21123311   4.202   7.308   3.721 -0.1190 -0.2452 -0.3042
  189DOPC  H11R23312   4.181   7.292   3.613  0.4828  2.3532 -0.8528
  189DOPC  H11S23313   4.114   7.346   3.777 -0.6398 -2.2451  0.3416
  189DOPC  C21223314   4.235   7.169   3.777 -0.3453 -0.1308 -0.1327
  189DOPC  H12R23315   4.323   7.136   3.719 -1.1552 -3.3817  0.3098
  189DOPC  H12S23316   4.161   7.098   3.734  1.8460 -2.1542 -0.7542
  189DOPC  C21323317   4.235   7.166   3.928 -0.1239  0.0221  0.3649
  189DOPC  H13R23318   4.143   7.218   3.961 -0.8839  0.4965 -2.2262
  189DOPC  H13S23319   4.318   7.227   3.970  0.0460  0.2437 -0.2762
  189DOPC  C21423320   4.245   7.026   3.992 -0.4560  0.4054  0.5409
  189DOPC  H14R23321   4.164   6.966   3.945 -1.2549  2.3931 -0.7489
  189DOPC  H14S23322   4.207   7.021   4.096 -1.1881 -1.8300  0.2372
  189DOPC  C21523323   4.373   6.935   3.968 -0.7082 -0.2201  0.9182
  189DOPC  H15R23324   4.390   6.929   3.859  0.4190 -0.7442  1.1110
  189DOPC  H15S23325   4.346   6.838   4.014 -1.7146  0.8932  2.8137
  189DOPC  C21623326   4.501   6.974   4.042  0.1898 -0.3316 -0.3872
  189DOPC  H16R23327   4.501   7.085   4.028 -1.8244 -0.2800 -0.2881
  189DOPC  H16S23328   4.590   6.928   3.993  0.1882 -0.2427 -0.4742
  189DOPC  C21723329   4.504   6.936   4.188  0.1029  0.6103 -0.0277
  189DOPC  H17R23330   4.418   6.986   4.237 -2.3227  0.0467 -3.3198
  189DOPC  H17S23331   4.605   6.960   4.228 -0.0575 -0.6680  1.2569
  189DOPC  C21823332   4.486   6.784   4.209  0.0499 -0.3469  0.2729
  189DOPC  H18R23333   4.553   6.723   4.144 -0.7180 -0.8531 -0.0578
  189DOPC  H18S23334   4.390   6.742   4.171 -0.2498  1.4195 -1.0785
  189DOPC  H18T23335   4.511   6.751   4.312 -1.7187  1.9870  1.5572
  189DOPC   C3323336   4.480   7.017   3.321  0.7108  0.0851  0.3271
  189DOPC   H3X23337   4.466   6.913   3.285  0.0630 -0.5066  2.1696
  189DOPC   H3Y23338   4.386   7.026   3.381  0.2411  1.0324 -0.5051
  189DOPC   C3423339   4.613   7.016   3.398 -0.2848 -0.1192  0.0513
  189DOPC   H4X23340   4.657   7.118   3.399  0.5699 -0.4341 -1.7480
  189DOPC   H4Y23341   4.688   6.962   3.336 -0.2087 -0.0862  0.1153
  189DOPC   C3523342   4.618   6.949   3.534 -0.2648  0.1921 -0.1059
  189DOPC   H5X23343   4.546   7.010   3.594  1.1619  2.1881 -0.3250
  189DOPC   H5Y23344   4.715   6.986   3.574 -1.2637  0.9484  1.7522
  189DOPC   C3623345   4.595   6.802   3.544  0.2205 -0.2845  0.6190
  189DOPC   H6X23346   4.487   6.784   3.526 -0.0952  0.8710  1.1961
  189DOPC   H6Y23347   4.668   6.743   3.484  1.1498 -0.0727  1.5064
  189DOPC   C3723348   4.638   6.755   3.693  0.3457 -0.0497 -0.7306
  189DOPC   H7X23349   4.736   6.804   3.710  0.5035 -0.4257 -0.5542
  189DOPC   H7Y23350   4.558   6.800   3.756 -0.7678 -2.4706 -0.2749
  189DOPC   C3823351   4.642   6.604   3.712 -0.0660  0.4451  0.0378
  189DOPC   H8X23352   4.691   6.563   3.802 -2.3636 -3.9222 -0.4278
  189DOPC   H8Y23353   4.703   6.570   3.626  0.4017 -0.7204  0.8156
  189DOPC   C3923354   4.499   6.547   3.715  0.2951 -0.5734  0.0263
  189DOPC   H9X23355   4.451   6.570   3.619  1.2570 -1.9383 -0.8095
  189DOPC  C31023356   4.431   6.495   3.821  0.4740 -0.0599  0.2470
  189DOPC  H10X23357   4.326   6.469   3.801  1.0401 -1.2587 -1.4118
  189DOPC  C31123358   4.468   6.477   3.962 -0.1121  0.9755  0.2579
  189DOPC  H11X23359   4.391   6.523   4.028 -1.4465 -0.2820 -0.3686
  189DOPC  H11Y23360   4.558   6.538   3.986  2.4990 -1.7215 -1.9554
  189DOPC  C31223361   4.491   6.334   3.993 -0.2569  0.1321  0.5984
  189DOPC  H12X23362   4.579   6.300   3.934  0.1957  1.5721  0.3976
  189DOPC  H12Y23363   4.402   6.272   3.970  0.5842 -0.6368 -0.7410
  189DOPC  C31323364   4.543   6.310   4.132 -1.1269 -0.4362  1.0445
  189DOPC  H13X23365   4.469   6.355   4.200 -2.1662  1.9816 -1.5150
  189DOPC  H13Y23366   4.551   6.200   4.147  1.4318 -0.6109 -0.8632
  189DOPC  C31423367   4.690   6.367   4.160 -0.3510  0.2005 -0.0977
  189DOPC  H14X23368   4.764   6.303   4.109  0.2452  0.3042  0.6181
  189DOPC  H14Y23369   4.700   6.474   4.131  2.1293  0.4027  1.2344
  189DOPC  C31523370   4.727   6.363   4.310  0.8812  0.0829 -0.4971
  189DOPC  H15X23371   4.654   6.414   4.376  0.8195 -0.6322  0.0022
  189DOPC  H15Y23372   4.824   6.415   4.325  0.3528  1.1173 -0.5903
  189DOPC  C31623373   4.736   6.220   4.361  0.3015 -0.2142 -0.3158
  189DOPC  H16X23374   4.643   6.164   4.338  0.5762 -0.3246 -1.2271
  189DOPC  H16Y23375   4.816   6.164   4.307 -1.6533 -0.2574 -3.4103
  189DOPC  C31723376   4.757   6.208   4.516 -0.0834 -0.7002 -0.4091
  189DOPC  H17X23377   4.856   6.257   4.530  0.1423 -1.4238  0.5583
  189DOPC  H17Y23378   4.676   6.269   4.562  0.4325 -1.3550  1.4263
  189DOPC  C31823379   4.734   6.074   4.574  0.3187  0.0363  0.2833
  189DOPC  H18X23380   4.809   6.000   4.539  1.3515  1.5414 -0.8147
  189DOPC  H18Y23381   4.746   6.077   4.685  2.7080  0.7328  0.0591
  189DOPC  H18Z23382   4.635   6.034   4.546  1.3174 -2.1465 -0.3268
  190DOPC     N23383   5.042   0.310   2.151  0.2013 -0.4864  0.0062
  190DOPC   C1223384   4.915   0.281   2.229 -0.1772  0.0325  0.1431
  190DOPC  H12A23385   4.889   0.177   2.214 -2.2103  0.5511 -0.2283
  190DOPC  H12B23386   4.835   0.330   2.175 -0.4405 -0.0139  0.4866
  190DOPC   C1323387   5.074   0.454   2.137 -0.5859 -0.8734 -0.0541
  190DOPC  H13A23388   4.994   0.506   2.087  0.9223  1.9307  0.2757
  190DOPC  H13B23389   5.093   0.496   2.234 -0.4385 -0.9414 -0.0527
  190DOPC  H13C23390   5.159   0.471   2.073 -0.7585 -0.7106 -0.2397
  190DOPC   C1423391   5.024   0.261   2.009  0.0667  0.4312 -0.6423
  190DOPC  H14A23392   4.950   0.318   1.956  1.5310  2.8713 -0.1979
  190DOPC  H14B23393   5.116   0.264   1.953 -0.3649  3.1929 -1.3257
  190DOPC  H14C23394   4.987   0.159   2.005  1.4463 -0.0654 -1.4129
  190DOPC   C1523395   5.158   0.245   2.220 -0.4593  0.2687  0.1688
  190DOPC  H15A23396   5.153   0.276   2.323  0.3826 -0.4245  0.4311
  190DOPC  H15B23397   5.246   0.278   2.166 -0.0359 -2.8817 -1.2868
  190DOPC  H15C23398   5.145   0.138   2.221 -1.9508  0.4336  0.7221
  190DOPC   C1123399   4.917   0.329   2.375  0.5531 -0.5381 -0.1714
  190DOPC  H11A23400   4.832   0.286   2.433  0.9318  0.5382  1.2426
  190DOPC  H11B23401   5.006   0.285   2.424 -0.4993 -2.0703  0.4661
  190DOPC     P23402   4.792   0.564   2.368 -0.0363  0.1156  0.0639
  190DOPC   O1323403   4.711   0.506   2.258  0.6920 -0.2625  0.1787
  190DOPC   O1423404   4.842   0.701   2.355  0.1887 -0.5670  0.3980
  190DOPC   O1223405   4.917   0.470   2.385  0.1357  0.4592  0.1603
  190DOPC   O1123406   4.719   0.542   2.505  0.5965 -0.0307  0.0358
  190DOPC    C123407   4.785   0.606   2.619  0.6678 -0.2578 -0.2893
  190DOPC    HA23408   4.698   0.629   2.683 -0.9752 -0.8847 -2.1838
  190DOPC    HB23409   4.849   0.695   2.602 -0.3204  0.6518  0.6211
  190DOPC    C223410   4.876   0.500   2.697  0.6215 -0.4608  0.5752
  190DOPC    HS23411   4.928   0.439   2.620 -1.2766  0.9012 -1.9360
  190DOPC   O2123412   4.786   0.415   2.765 -0.2075  0.1653  0.0581
  190DOPC   C2123413   4.838   0.296   2.792  0.2074  0.5726 -0.3188
  190DOPC   O2223414   4.948   0.259   2.763 -0.1503  0.9163  0.1768
  190DOPC   C2223415   4.733   0.204   2.851 -0.6422  0.0191  1.1048
  190DOPC   H2R23416   4.700   0.147   2.762  0.6061  0.7697  0.1283
  190DOPC   H2S23417   4.642   0.257   2.886 -1.2713 -0.9401  0.9660
  190DOPC    C323418   4.982   0.560   2.792 -0.4555 -0.4187  0.2339
  190DOPC    HX23419   5.050   0.628   2.736  3.1300 -3.2342  0.7973
  190DOPC    HY23420   5.047   0.472   2.813 -1.8727 -1.4235  0.5912
  190DOPC   O3123421   4.935   0.606   2.923 -0.5548 -0.2377 -0.3345
  190DOPC   C3123422   4.921   0.734   2.933 -0.6086 -0.5353  0.9695
  190DOPC   O3223423   4.955   0.821   2.854 -0.4210  0.3357  0.3158
  190DOPC   C3223424   4.854   0.768   3.073  0.1208  0.5483  0.2092
  190DOPC   H2X23425   4.747   0.743   3.062 -0.6070  2.5895  1.8860
  190DOPC   H2Y23426   4.893   0.700   3.151 -1.9800  0.7714  1.5208
  190DOPC   C2323427   4.784   0.093   2.944  0.5441 -0.7246  0.7288
  190DOPC   H3R23428   4.878   0.042   2.913  0.5092  1.1046 -3.0218
  190DOPC   H3S23429   4.707   0.016   2.967 -1.2399  1.3706  2.2563
  190DOPC   C2423430   4.799   0.153   3.089  0.0335 -0.2053 -0.4620
  190DOPC   H4R23431   4.709   0.216   3.103 -0.4513 -0.7887 -0.9003
  190DOPC   H4S23432   4.886   0.221   3.086  0.2579 -0.5042 -0.8651
  190DOPC   C2523433   4.814   0.040   3.193 -0.0344 -0.2893 -0.4544
  190DOPC   H5R23434   4.885  -0.037   3.154 -0.1658  0.0689 -1.4399
  190DOPC   H5S23435   4.717  -0.014   3.194 -0.0761 -0.2244 -0.8383
  190DOPC   C2623436   4.848   0.082   3.338  0.2234 -0.0678  0.4973
  190DOPC   H6R23437   4.784   0.166   3.374  1.6561  0.6059  1.6205
  190DOPC   H6S23438   4.951   0.123   3.346  0.2493  0.2085 -0.9667
  190DOPC   C2723439   4.839  -0.032   3.442  0.2101 -0.3575 -1.0998
  190DOPC   H7R23440   4.890  -0.119   3.396  0.3095 -1.2522  0.6438
  190DOPC   H7S23441   4.739  -0.073   3.464  0.3373 -0.2113 -0.2282
  190DOPC   C2823442   4.897   0.008   3.579  0.0072  0.4246  0.0819
  190DOPC   H8R23443   4.819   0.069   3.629 -1.3749 -0.9272 -0.3494
  190DOPC   H8S23444   4.986   0.073   3.566  0.1149  0.8057  2.2941
  190DOPC   C2923445   4.935  -0.108   3.671  0.1938  0.5434  0.3990
  190DOPC   H9R23446   5.043  -0.129   3.668  0.2554  0.6321 -3.0938
  190DOPC  C21023447   4.853  -0.192   3.731  0.8055  0.5332  0.4670
  190DOPC  H10R23448   4.900  -0.267   3.796 -0.0165 -2.3739 -2.0545
  190DOPC  C21123449   4.702  -0.196   3.733  0.0866  0.8443 -0.2185
  190DOPC  H11R23450   4.674  -0.302   3.713  0.2529  0.7714 -0.0711
  190DOPC  H11S23451   4.659  -0.133   3.652  0.2629  1.7112  0.3536
  190DOPC  C21223452   4.667  -0.157   3.876 -0.2948 -0.0093  0.6320
  190DOPC  H12R23453   4.727  -0.218   3.947  1.3684 -0.0140 -0.6989
  190DOPC  H12S23454   4.559  -0.171   3.896 -0.3218  1.1177  1.3406
  190DOPC  C21323455   4.694  -0.007   3.903  0.2985  0.3892  0.1859
  190DOPC  H13R23456   4.622   0.059   3.849  0.1560 -0.2432 -0.4065
  190DOPC  H13S23457   4.792   0.024   3.861  0.4539 -0.3434 -0.0110
  190DOPC  C21423458   4.682   0.032   4.052 -0.2301 -0.2938 -0.2667
  190DOPC  H14R23459   4.586  -0.009   4.089 -0.4170  0.0841 -0.3205
  190DOPC  H14S23460   4.678   0.143   4.055 -0.7269 -0.3344  1.3366
  190DOPC  C21523461   4.804  -0.009   4.140  0.2480  0.1410  0.2175
  190DOPC  H15R23462   4.898   0.002   4.081 -0.2764  0.3182 -0.5927
  190DOPC  H15S23463   4.806  -0.119   4.156 -0.2011 -0.1647 -1.6513
  190DOPC  C21623464   4.813   0.061   4.267 -0.2934  0.0337  0.0987
  190DOPC  H16R23465   4.719   0.046   4.325 -0.3161  1.5971  0.5274
  190DOPC  H16S23466   4.830   0.168   4.239 -0.2063 -0.1048 -0.3838
  190DOPC  C21723467   4.932   0.010   4.354  0.6566 -0.4958  0.2406
  190DOPC  H17R23468   4.935   0.088   4.433 -0.0184 -0.1396 -0.0758
  190DOPC  H17S23469   5.030   0.025   4.304  0.9746 -0.9217  0.7245
  190DOPC  C21823470   4.927  -0.131   4.401 -0.1476  0.3435 -0.5765
  190DOPC  H18R23471   4.989  -0.150   4.491 -2.6952 -1.3614  0.9606
  190DOPC  H18S23472   4.956  -0.200   4.319  3.1640 -1.6272  2.0025
  190DOPC  H18T23473   4.828  -0.159   4.444 -1.0550  1.1181 -2.0732
  190DOPC   C3323474   4.903   0.909   3.110 -0.2556  0.7754  0.0982
  190DOPC   H3X23475   4.839   0.987   3.062  0.2844  0.6883 -0.7880
  190DOPC   H3Y23476   5.009   0.926   3.084 -0.1997  0.5823  0.2023
  190DOPC   C3423477   4.894   0.931   3.264 -0.2197  0.0390  0.2050
  190DOPC   H4X23478   4.917   1.038   3.284 -1.6919  0.3409  0.4300
  190DOPC   H4Y23479   4.971   0.868   3.313  0.0727  1.0595  1.1109
  190DOPC   C3523480   4.755   0.911   3.326 -0.2134  0.6492  0.0449
  190DOPC   H5X23481   4.726   0.803   3.323  1.1786  0.2792 -1.9480
  190DOPC   H5Y23482   4.684   0.967   3.262 -0.7404  2.0326  1.7525
  190DOPC   C3623483   4.746   0.962   3.465 -0.7432 -0.1205 -0.5085
  190DOPC   H6X23484   4.802   1.057   3.475  0.0770 -0.6046 -0.3672
  190DOPC   H6Y23485   4.641   0.988   3.492 -0.2455  2.0660 -0.4792
  190DOPC   C3723486   4.808   0.859   3.562  0.6424 -0.1478  0.1604
  190DOPC   H7X23487   4.766   0.758   3.542 -0.5555  0.2368  0.6206
  190DOPC   H7Y23488   4.917   0.871   3.549  1.1648  0.4722  3.9437
  190DOPC   C3823489   4.771   0.897   3.706 -1.1216 -0.0999 -0.2727
  190DOPC   H8X23490   4.661   0.891   3.714 -1.0779  0.8699  1.5315
  190DOPC   H8Y23491   4.806   1.002   3.713 -1.8784  0.0612  2.3646
  190DOPC   C3923492   4.853   0.819   3.810 -0.2873 -0.7536  0.4092
  190DOPC   H9X23493   4.835   0.711   3.806 -0.6129 -0.8677  3.2648
  190DOPC  C31023494   4.955   0.858   3.887 -0.0156  0.9448 -0.4413
  190DOPC  H10X23495   4.988   0.793   3.969 -0.4723  1.5350  0.2181
  190DOPC  C31123496   5.011   0.999   3.893 -0.3762 -0.3520 -0.0393
  190DOPC  H11X23497   5.045   1.033   3.793 -0.0054  0.5616  0.3825
  190DOPC  H11Y23498   5.098   1.010   3.962 -0.5991 -2.1959  0.5820
  190DOPC  C31223499   4.910   1.103   3.950 -0.1324  0.2791  0.3493
  190DOPC  H12X23500   4.925   1.086   4.059  0.8963 -0.9440  0.0323
  190DOPC  H12Y23501   4.810   1.069   3.915  0.3921 -0.8875 -0.0294
  190DOPC  C31323502   4.934   1.248   3.894 -0.2070 -0.6448  0.2528
  190DOPC  H13X23503   4.921   1.232   3.785 -0.1048  0.1638  0.1193
  190DOPC  H13Y23504   4.857   1.314   3.939  0.4384  0.5824 -0.4090
  190DOPC  C31423505   5.073   1.301   3.922 -0.1825  0.0959 -0.3381
  190DOPC  H14X23506   5.088   1.288   4.031  1.0195  0.2151 -0.4821
  190DOPC  H14Y23507   5.160   1.246   3.880 -0.9533 -0.9021 -0.6612
  190DOPC  C31523508   5.088   1.446   3.881  0.4273 -0.3017 -0.0037
  190DOPC  H15X23509   5.184   1.485   3.923  1.2218 -2.1987  0.0667
  190DOPC  H15Y23510   5.007   1.493   3.940  0.9420 -1.1406  1.4206
  190DOPC  C31623511   5.061   1.475   3.733  0.2000  0.7922 -0.6362
  190DOPC  H16X23512   5.138   1.416   3.678  2.8127 -0.4594  3.8448
  190DOPC  H16Y23513   4.960   1.446   3.695  0.5246 -1.6404  0.1442
  190DOPC  C31723514   5.090   1.624   3.704  0.0730 -0.6849 -0.5088
  190DOPC  H17X23515   5.191   1.649   3.744  0.4029 -2.9551  0.2253
  190DOPC  H17Y23516   5.110   1.629   3.595 -0.0859 -0.8473 -0.5456
  190DOPC  C31823517   4.989   1.723   3.760 -0.3833 -0.3440  0.8119
  190DOPC  H18X23518   5.007   1.831   3.744 -1.3660 -0.3681 -0.5972
  190DOPC  H18Y23519   4.891   1.689   3.719  0.6495 -1.1153 -1.1724
  190DOPC  H18Z23520   4.986   1.705   3.870 -1.0426 -2.5996  0.4885
  191DOPC     N23521   4.027   0.372   2.286 -0.1619 -0.0831  0.2328
  191DOPC   C1223522   3.997   0.417   2.424 -0.0320  0.0875 -0.1886
  191DOPC  H12A23523   4.087   0.415   2.483 -1.1849  1.4137  1.7399
  191DOPC  H12B23524   3.934   0.342   2.468 -1.0644  0.9294 -0.1737
  191DOPC   C1323525   3.907   0.354   2.199  0.0911  0.4946  0.0802
  191DOPC  H13A23526   3.834   0.433   2.203 -2.3700 -1.6785  2.9946
  191DOPC  H13B23527   3.930   0.326   2.097  0.6651  0.0250  0.3305
  191DOPC  H13C23528   3.864   0.269   2.249  1.9290 -0.0741  0.7833
  191DOPC   C1423529   4.099   0.235   2.289 -0.2467  0.4531 -0.5929
  191DOPC  H14A23530   4.095   0.189   2.192  1.9696  1.4379 -1.2025
  191DOPC  H14B23531   4.199   0.246   2.328 -0.1384 -0.5408 -0.5869
  191DOPC  H14C23532   4.051   0.161   2.352  1.7281  0.4683  1.0380
  191DOPC   C1523533   4.128   0.466   2.217 -0.1997  0.1640 -1.1449
  191DOPC  H15A23534   4.092   0.567   2.202  0.6548  1.4599  3.8862
  191DOPC  H15B23535   4.157   0.424   2.121  0.9863  1.0186 -1.1773
  191DOPC  H15C23536   4.210   0.483   2.285 -1.0461 -0.5819  0.0911
  191DOPC   C1123537   3.910   0.549   2.440  0.0982  0.0980 -0.4767
  191DOPC  H11A23538   3.917   0.570   2.549  2.0554  0.3952 -0.6145
  191DOPC  H11B23539   3.971   0.630   2.393  0.6886 -0.4564 -0.6796
  191DOPC     P23540   3.668   0.439   2.451 -0.2628 -0.5089  0.0748
  191DOPC   O1323541   3.684   0.307   2.393 -0.1237 -0.0732  0.3912
  191DOPC   O1423542   3.534   0.500   2.442  0.1061 -0.4481  0.5501
  191DOPC   O1223543   3.768   0.545   2.393 -0.9689 -0.2530  0.6709
  191DOPC   O1123544   3.702   0.428   2.604  0.0067  0.4651  0.2945
  191DOPC    C123545   3.620   0.471   2.711 -0.7958  0.1550  0.2039
  191DOPC    HA23546   3.527   0.412   2.722 -0.9774  0.4047  0.0051
  191DOPC    HB23547   3.592   0.578   2.696  0.4712  0.3973 -0.5469
  191DOPC    C223548   3.695   0.455   2.850 -0.4535 -0.9239  0.3533
  191DOPC    HS23549   3.629   0.482   2.935  1.5304 -2.5053  2.5260
  191DOPC   O2123550   3.815   0.536   2.849  0.4752  0.0686  0.4047
  191DOPC   C2123551   3.794   0.663   2.879 -0.5063 -1.3060 -0.5944
  191DOPC   O2223552   3.686   0.723   2.898 -0.5237 -0.1543 -0.4059
  191DOPC   C2223553   3.929   0.733   2.903  0.2168 -0.6735  0.1604
  191DOPC   H2R23554   3.949   0.801   2.817 -0.5008  0.5223  0.9166
  191DOPC   H2S23555   4.013   0.660   2.915  2.1386  1.3493 -0.3400
  191DOPC    C323556   3.732   0.305   2.864 -0.2440  0.2397 -0.0637
  191DOPC    HX23557   3.796   0.286   2.775 -0.6866  1.1636 -0.6025
  191DOPC    HY23558   3.640   0.243   2.854  1.7285 -2.5439 -2.6620
  191DOPC   O3123559   3.800   0.285   2.983 -0.2643 -0.1974  0.1305
  191DOPC   C3123560   3.939   0.282   2.981  0.1640  0.6555 -0.5754
  191DOPC   O3223561   4.006   0.311   2.880  0.1227  0.1711 -0.6529
  191DOPC   C3223562   4.001   0.228   3.108 -0.5239 -0.5960 -0.1990
  191DOPC   H2X23563   4.015   0.118   3.097 -1.5970 -0.7829  0.1453
  191DOPC   H2Y23564   4.101   0.274   3.093 -1.1758 -0.0338 -3.4483
  191DOPC   C2323565   3.940   0.813   3.033 -0.2261  0.1436  0.5731
  191DOPC   H3R23566   3.872   0.901   3.032 -1.7094 -0.9549  1.0649
  191DOPC   H3S23567   4.041   0.852   3.058 -0.3946 -0.0459  1.5751
  191DOPC   C2423568   3.894   0.726   3.154 -0.0600  0.1571 -0.4580
  191DOPC   H4R23569   3.944   0.627   3.161 -1.5415 -0.4971  2.7217
  191DOPC   H4S23570   3.786   0.702   3.150 -0.2238  0.7646  0.0408
  191DOPC   C2523571   3.914   0.804   3.286  0.0603  0.2889 -0.9724
  191DOPC   H5R23572   3.826   0.869   3.301  0.5219  0.5220  0.9047
  191DOPC   H5S23573   4.001   0.873   3.282  0.6615 -0.0435  2.8850
  191DOPC   C2623574   3.920   0.710   3.409  0.1247  0.4105  0.1660
  191DOPC   H6R23575   4.003   0.639   3.390  0.2565 -0.0021  2.1144
  191DOPC   H6S23576   3.828   0.648   3.410  0.2755  0.1063 -1.5925
  191DOPC   C2723577   3.939   0.776   3.542 -0.5488 -0.0188 -0.3997
  191DOPC   H7R23578   3.858   0.851   3.553 -1.6103 -1.1634 -0.1399
  191DOPC   H7S23579   4.041   0.819   3.534  0.2070 -1.1983  2.0560
  191DOPC   C2823580   3.936   0.663   3.647 -0.2967 -0.3769 -0.0311
  191DOPC   H8R23581   4.002   0.680   3.735 -2.0652 -1.1234  1.5004
  191DOPC   H8S23582   3.982   0.571   3.604  0.0347 -1.6172  2.7416
  191DOPC   C2923583   3.793   0.626   3.692 -0.1428  0.6956 -0.2661
  191DOPC   H9R23584   3.765   0.525   3.657 -1.0655  1.6892 -2.5539
  191DOPC  C21023585   3.716   0.691   3.774 -0.0181 -0.1543  0.3306
  191DOPC  H10R23586   3.618   0.649   3.801 -0.6583  0.7874 -0.4819
  191DOPC  C21123587   3.737   0.816   3.848  0.3632  0.0063 -0.1401
  191DOPC  H11R23588   3.711   0.903   3.785  1.4622  0.4576  0.0119
  191DOPC  H11S23589   3.844   0.830   3.875  0.2967 -1.0630  0.7833
  191DOPC  C21223590   3.658   0.816   3.981 -0.6335 -0.2818 -0.6022
  191DOPC  H12R23591   3.559   0.768   3.964 -0.6472 -1.9560  3.2035
  191DOPC  H12S23592   3.641   0.924   4.000  2.0614 -0.1057  1.3368
  191DOPC  C21323593   3.739   0.761   4.100 -0.3089 -0.0525 -1.3815
  191DOPC  H13R23594   3.771   0.659   4.071  1.4536 -0.4301  1.4550
  191DOPC  H13S23595   3.665   0.744   4.182  2.5138  2.5354  1.9903
  191DOPC  C21423596   3.847   0.855   4.150  0.3238 -0.0869 -0.9703
  191DOPC  H14R23597   3.811   0.959   4.159 -1.6202 -0.9186  2.3740
  191DOPC  H14S23598   3.928   0.843   4.074  1.1198 -0.6333 -0.0651
  191DOPC  C21523599   3.909   0.800   4.277 -0.0899  0.0292  0.1661
  191DOPC  H15R23600   3.840   0.814   4.363  1.2833  0.1616  1.2783
  191DOPC  H15S23601   4.006   0.853   4.288 -1.1703  2.3287 -0.6561
  191DOPC  C21623602   3.947   0.648   4.287 -0.4299 -0.2142  0.2328
  191DOPC  H16R23603   3.862   0.588   4.250 -0.4363  1.3461 -2.5874
  191DOPC  H16S23604   3.951   0.615   4.393 -0.8381 -1.6769 -0.1908
  191DOPC  C21723605   4.063   0.610   4.202 -0.7612  0.0557  0.3176
  191DOPC  H17R23606   4.120   0.538   4.265 -0.9626  1.2974  1.9890
  191DOPC  H17S23607   4.129   0.694   4.171 -0.7130 -0.5370 -1.2580
  191DOPC  C21823608   4.021   0.540   4.074 -0.5233  0.3542  0.1220
  191DOPC  H18R23609   4.002   0.623   4.003  0.4450 -1.0991 -1.9555
  191DOPC  H18S23610   3.929   0.478   4.085 -1.3972  1.8019  1.4749
  191DOPC  H18T23611   4.102   0.478   4.031  0.1687  0.8746  0.6621
  191DOPC   C3323612   3.932   0.276   3.238  0.3250 -0.1933 -0.0507
  191DOPC   H3X23613   3.826   0.246   3.247 -0.1893 -0.1139 -3.9538
  191DOPC   H3Y23614   3.936   0.387   3.234  2.2261 -0.2656 -2.0413
  191DOPC   C3423615   4.011   0.234   3.363 -0.6310 -0.1942  0.4620
  191DOPC   H4X23616   4.120   0.256   3.368  0.0813 -3.1074  0.0678
  191DOPC   H4Y23617   4.018   0.123   3.356  1.9835 -0.1058  0.5166
  191DOPC   C3523618   3.950   0.283   3.491  0.3899 -0.2521  1.2509
  191DOPC   H5X23619   3.840   0.271   3.488  0.2193  1.2839  0.4543
  191DOPC   H5Y23620   3.969   0.392   3.496  1.2917 -0.3314  0.0051
  191DOPC   C3623621   4.012   0.208   3.609 -0.4388 -0.3127  0.4950
  191DOPC   H6X23622   3.972   0.104   3.616  0.9673 -0.8990  0.1270
  191DOPC   H6Y23623   4.121   0.199   3.593 -0.3826 -0.0330  0.7265
  191DOPC   C3723624   3.972   0.280   3.744  0.1922 -0.0888  0.4700
  191DOPC   H7X23625   4.015   0.382   3.748 -2.1601  0.9723  0.1491
  191DOPC   H7Y23626   3.862   0.291   3.751  0.0991 -0.2194 -0.6890
  191DOPC   C3823627   4.007   0.208   3.877 -0.3510 -0.3209 -0.6428
  191DOPC   H8X23628   3.967   0.104   3.876 -2.3272  0.3969 -1.5680
  191DOPC   H8Y23629   3.951   0.272   3.949  2.2309 -0.0686  1.3342
  191DOPC   C3923630   4.151   0.223   3.910  0.8336 -0.1462 -0.2131
  191DOPC   H9X23631   4.211   0.235   3.820  0.6639 -0.2367 -0.3389
  191DOPC  C31023632   4.213   0.216   4.032 -0.0516  0.7009  0.1830
  191DOPC  H10X23633   4.323   0.216   4.024  0.1675 -2.1260  1.7980
  191DOPC  C31123634   4.159   0.185   4.165  0.6177 -0.1226 -0.6169
  191DOPC  H11X23635   4.067   0.243   4.187 -0.7741 -2.3900 -0.1051
  191DOPC  H11Y23636   4.234   0.211   4.243  0.3680  0.3106 -0.5190
  191DOPC  C31223637   4.118   0.039   4.184  0.1592 -0.1175 -0.1005
  191DOPC  H12X23638   4.210  -0.022   4.181 -0.5032 -1.1688 -3.8624
  191DOPC  H12Y23639   4.046   0.009   4.105  0.5582 -0.7883 -0.2127
  191DOPC  C31323640   4.048   0.011   4.330  0.7353  0.3202  0.2652
  191DOPC  H13X23641   4.033  -0.097   4.349 -1.6602  0.9222  2.2795
  191DOPC  H13Y23642   4.115   0.048   4.411 -0.1208 -0.0160  1.1536
  191DOPC  C31423643   3.910   0.075   4.320  0.0972 -0.6880 -0.0358
  191DOPC  H14X23644   3.930   0.183   4.339  3.6044 -0.7918 -2.2615
  191DOPC  H14Y23645   3.883   0.079   4.213  2.9132  0.6371 -0.7959
  191DOPC  C31523646   3.813   0.015   4.409  0.6908 -0.0113  0.6799
  191DOPC  H15X23647   3.853  -0.006   4.511 -1.5742 -1.3817  1.3493
  191DOPC  H15Y23648   3.797  -0.088   4.370 -1.6453  0.8134 -0.7202
  191DOPC  C31623649   3.673   0.081   4.423 -0.7383  0.0412 -0.2562
  191DOPC  H16X23650   3.617   0.095   4.327 -1.2584  0.3349  0.0809
  191DOPC  H16Y23651   3.610   0.027   4.497  1.1843  0.8754  2.1411
  191DOPC  C31723652   3.687   0.224   4.485  0.5552  0.4743 -0.0211
  191DOPC  H17X23653   3.728   0.218   4.588 -0.4783  1.7480  0.4950
  191DOPC  H17Y23654   3.750   0.290   4.422  0.2713 -0.4633 -1.3273
  191DOPC  C31823655   3.546   0.292   4.499  1.2470  1.0144 -0.2503
  191DOPC  H18X23656   3.554   0.383   4.562  2.0184  0.3108  0.7117
  191DOPC  H18Y23657   3.509   0.309   4.396 -0.2568  0.6119  0.1962
  191DOPC  H18Z23658   3.480   0.219   4.552  0.6488  1.3051 -0.5845
  192DOPC     N23659   1.130   5.493   2.996 -0.6525 -0.2725  0.3430
  192DOPC   C1223660   1.073   5.373   3.062  0.7751  0.7099  0.1446
  192DOPC  H12A23661   0.980   5.356   3.010  1.5303 -2.2213 -0.4523
  192DOPC  H12B23662   1.057   5.397   3.165 -1.8144 -1.3152  0.3302
  192DOPC   C1323663   1.256   5.530   3.071 -0.1383 -0.0806  0.4218
  192DOPC  H13A23664   1.237   5.540   3.177  1.7913  0.4446  0.7630
  192DOPC  H13B23665   1.320   5.443   3.067  0.8152  0.6062  0.3254
  192DOPC  H13C23666   1.309   5.617   3.035 -1.2272  0.6096  0.4328
  192DOPC   C1423667   1.029   5.610   3.006 -0.3437  0.9313  0.2325
  192DOPC  H14A23668   0.994   5.616   3.108 -1.0405  2.0659 -0.0558
  192DOPC  H14B23669   1.070   5.703   2.969 -1.7686  0.7527 -2.0302
  192DOPC  H14C23670   0.945   5.599   2.938 -0.3190  2.1368 -0.0011
  192DOPC   C1523671   1.158   5.458   2.853  0.5186  0.9447 -0.7624
  192DOPC  H15A23672   1.208   5.540   2.804 -0.0721  1.3908 -0.6380
  192DOPC  H15B23673   1.066   5.434   2.802 -0.3727  0.3972  1.0020
  192DOPC  H15C23674   1.225   5.373   2.852 -0.7131 -0.0976  0.5593
  192DOPC   C1123675   1.162   5.248   3.050  0.9008 -0.1251  0.2916
  192DOPC  H11A23676   1.268   5.280   3.064  0.6675  1.8793 -1.7805
  192DOPC  H11B23677   1.141   5.177   3.132  0.2729 -0.0068  0.2369
  192DOPC     P23678   1.023   5.105   2.869  0.2409 -0.1109 -0.0743
  192DOPC   O1323679   1.039   5.076   2.731  0.2067  0.2637  0.1459
  192DOPC   O1423680   0.900   5.172   2.911 -0.0519 -0.2293  0.1969
  192DOPC   O1223681   1.148   5.181   2.925  0.0087 -0.5947  0.2094
  192DOPC   O1123682   1.035   4.977   2.956  0.1354  0.8137  0.0744
  192DOPC    C123683   0.921   4.910   3.018  0.5973 -0.0241 -1.1662
  192DOPC    HA23684   0.949   4.804   3.035 -0.0409 -0.2537 -1.4992
  192DOPC    HB23685   0.827   4.914   2.959  0.5395  0.8841 -1.0304
  192DOPC    C223686   0.883   4.971   3.160  0.1262 -0.2499  0.4620
  192DOPC    HS23687   0.854   5.076   3.140 -0.2118 -0.6528 -1.3690
  192DOPC   O2123688   1.003   4.967   3.235  0.4829  0.3702 -0.4415
  192DOPC   C2123689   1.013   5.063   3.331  0.2812  0.5100  0.4483
  192DOPC   O2223690   0.960   5.171   3.325 -0.2737  0.3482 -0.4353
  192DOPC   C2223691   1.099   5.009   3.446 -0.0985 -0.0998  0.2324
  192DOPC   H2R23692   1.151   4.915   3.416  0.1417 -0.2483  1.0795
  192DOPC   H2S23693   1.030   4.980   3.528 -1.3605  0.7050 -0.5196
  192DOPC    C323694   0.755   4.903   3.231 -0.1729  0.7725 -0.0031
  192DOPC    HX23695   0.771   4.794   3.229 -3.7080  0.1335 -0.4940
  192DOPC    HY23696   0.659   4.917   3.177  0.2558  0.9254 -0.7364
  192DOPC   O3123697   0.747   4.931   3.376  0.2857  0.3279 -0.1725
  192DOPC   C3123698   0.680   5.040   3.405 -0.1388  0.3064  0.8537
  192DOPC   O3223699   0.625   5.110   3.324  0.1812 -0.0012  0.1225
  192DOPC   C3223700   0.684   5.070   3.552 -0.2077 -0.4212 -0.8699
  192DOPC   H2X23701   0.764   5.143   3.574 -0.3072 -0.9993  1.8551
  192DOPC   H2Y23702   0.593   5.125   3.584  0.2160 -0.0657 -0.2606
  192DOPC   C2323703   1.205   5.113   3.504 -0.1594 -0.6098 -0.1793
  192DOPC   H3R23704   1.264   5.164   3.424 -0.4909 -2.2924 -1.5535
  192DOPC   H3S23705   1.280   5.061   3.567 -0.0976  0.4012  0.6079
  192DOPC   C2423706   1.121   5.221   3.587  0.0765  0.4677 -0.7704
  192DOPC   H4R23707   1.051   5.171   3.657  1.7234  1.1432  1.4859
  192DOPC   H4S23708   1.058   5.282   3.518 -3.1537 -1.0873  0.5796
  192DOPC   C2523709   1.221   5.301   3.668 -0.2124  0.4218  1.1176
  192DOPC   H5R23710   1.283   5.363   3.600  1.1620 -2.1130 -0.1023
  192DOPC   H5S23711   1.289   5.224   3.711 -2.3219 -2.2452 -0.0247
  192DOPC   C2623712   1.155   5.390   3.777  0.0346  0.3210 -0.2497
  192DOPC   H6R23713   1.127   5.329   3.865  1.1469  2.6612  1.8508
  192DOPC   H6S23714   1.065   5.428   3.724 -0.1481  0.1868 -0.0330
  192DOPC   C2723715   1.250   5.501   3.817 -0.1644 -0.1177 -0.4548
  192DOPC   H7R23716   1.268   5.563   3.726 -0.8162  0.4883 -0.1798
  192DOPC   H7S23717   1.350   5.468   3.851 -0.6837 -0.3092  0.9350
  192DOPC   C2823718   1.196   5.596   3.925 -0.4434 -0.2105 -0.0273
  192DOPC   H8R23719   1.086   5.610   3.934 -0.6202 -2.5402  2.5640
  192DOPC   H8S23720   1.237   5.699   3.910 -1.6022  0.4924  1.3158
  192DOPC   C2923721   1.239   5.546   4.068  0.6573 -0.6224 -0.4831
  192DOPC   H9R23722   1.194   5.452   4.102 -0.1572  0.3364  1.2122
  192DOPC  C21023723   1.325   5.606   4.152  0.6997 -0.3674  0.1786
  192DOPC  H10R23724   1.346   5.553   4.246 -0.2788 -0.5383  0.3025
  192DOPC  C21123725   1.411   5.733   4.132  0.6838  0.2927  0.5825
  192DOPC  H11R23726   1.414   5.743   4.021 -2.5635  2.1078  0.5105
  192DOPC  H11S23727   1.517   5.719   4.159  0.2757 -3.7526  0.5937
  192DOPC  C21223728   1.363   5.861   4.205 -0.1143 -0.0933  0.0704
  192DOPC  H12R23729   1.452   5.926   4.219 -2.0281  2.2296  2.3795
  192DOPC  H12S23730   1.318   5.836   4.303  1.1510  3.4640  1.7294
  192DOPC  C21323731   1.262   5.945   4.119  0.4202  0.4744  0.4574
  192DOPC  H13R23732   1.219   6.014   4.196 -0.7129 -0.7084  0.9214
  192DOPC  H13S23733   1.178   5.881   4.085 -1.0102  2.0055  0.9695
  192DOPC  C21423734   1.327   6.029   4.006 -0.5703 -0.6834  0.4452
  192DOPC  H14R23735   1.383   5.969   3.930  5.3291  3.5329  0.8219
  192DOPC  H14S23736   1.404   6.097   4.046 -0.0415 -1.0976  0.1386
  192DOPC  C21523737   1.221   6.089   3.918 -0.4834 -0.1343  0.2855
  192DOPC  H15R23738   1.141   6.137   3.979  1.8345  3.0922  1.0822
  192DOPC  H15S23739   1.174   6.014   3.851  2.1057 -0.5183 -1.2143
  192DOPC  C21623740   1.270   6.205   3.826  0.4902 -0.0128 -0.0199
  192DOPC  H16R23741   1.287   6.292   3.893  0.2019  0.3155 -0.3685
  192DOPC  H16S23742   1.183   6.229   3.762 -0.2368  1.1269  1.3298
  192DOPC  C21723743   1.396   6.170   3.752  0.9915  0.1127  0.1516
  192DOPC  H17R23744   1.473   6.154   3.830  0.7805  0.8116  0.5031
  192DOPC  H17S23745   1.422   6.250   3.680 -0.3337 -0.6917 -1.2926
  192DOPC  C21823746   1.404   6.049   3.661  0.1826  0.0194  0.0577
  192DOPC  H18R23747   1.396   5.949   3.708 -0.7723  0.3204  0.5666
  192DOPC  H18S23748   1.497   6.044   3.601 -0.1288 -2.0434 -0.3043
  192DOPC  H18T23749   1.320   6.064   3.590 -1.0915  0.9455  1.6706
  192DOPC   C3323750   0.701   4.957   3.659  0.1486 -0.0181  0.3426
  192DOPC   H3X23751   0.798   4.904   3.659 -0.1783 -0.6749 -1.1593
  192DOPC   H3Y23752   0.619   4.883   3.644  0.1555 -0.0516  0.4712
  192DOPC   C3423753   0.692   5.009   3.802  0.4006  0.7124  0.3765
  192DOPC   H4X23754   0.660   4.927   3.869  3.3760 -1.2973 -0.4841
  192DOPC   H4Y23755   0.613   5.087   3.809 -0.8248 -0.3997 -0.4546
  192DOPC   C3523756   0.827   5.058   3.871 -0.1706 -0.4944  0.0184
  192DOPC   H5X23757   0.881   5.123   3.799 -1.1893  1.7759  1.1927
  192DOPC   H5Y23758   0.906   4.980   3.880 -0.4589 -0.7451  0.4219
  192DOPC   C3623759   0.798   5.137   3.998  0.1001  0.1178 -0.8793
  192DOPC   H6X23760   0.714   5.209   3.987 -3.1865 -2.8772  2.3168
  192DOPC   H6Y23761   0.763   5.067   4.076  0.7593  2.0355  1.2548
  192DOPC   C3723762   0.923   5.217   4.048 -0.1236 -0.1980 -0.0699
  192DOPC   H7X23763   1.008   5.145   4.058 -0.3050 -0.1844  2.0001
  192DOPC   H7Y23764   0.951   5.286   3.966  0.4692 -0.4851 -0.1142
  192DOPC   C3823765   0.897   5.286   4.177 -0.0959 -0.4781  0.0956
  192DOPC   H8X23766   0.987   5.328   4.226  0.2768 -0.5271 -0.5450
  192DOPC   H8Y23767   0.851   5.219   4.253  1.0910  0.8521  2.0965
  192DOPC   C3923768   0.806   5.401   4.158  0.8589  0.0041  0.1437
  192DOPC   H9X23769   0.843   5.475   4.085  0.9350  1.1896  1.3398
  192DOPC  C31023770   0.678   5.423   4.208  0.0694 -0.1964  0.5053
  192DOPC  H10X23771   0.630   5.521   4.195  0.6533  0.5764  3.4239
  192DOPC  C31123772   0.604   5.331   4.306 -0.1360  0.2331 -0.3243
  192DOPC  H11X23773   0.560   5.391   4.388  0.8980 -1.8093  1.8100
  192DOPC  H11Y23774   0.660   5.245   4.347 -0.4976 -0.4507 -1.2032
  192DOPC  C31223775   0.484   5.260   4.232 -0.2976  0.3101 -0.0011
  192DOPC  H12X23776   0.521   5.214   4.137 -2.3843 -1.2647 -0.1149
  192DOPC  H12Y23777   0.410   5.338   4.205 -0.0934  0.9006  1.0993
  192DOPC  C31323778   0.422   5.155   4.324  0.2354 -0.3046 -0.0370
  192DOPC  H13X23779   0.491   5.069   4.320  0.6194  0.0296 -2.1055
  192DOPC  H13Y23780   0.402   5.196   4.425  0.4383 -0.2598 -0.0155
  192DOPC  C31423781   0.294   5.097   4.267  0.4674  0.7150 -0.2843
  192DOPC  H14X23782   0.210   5.169   4.276  0.1497  0.3536 -0.3566
  192DOPC  H14Y23783   0.289   5.061   4.162  0.9128 -0.4327  0.0727
  192DOPC  C31523784   0.235   4.975   4.352  0.3786 -0.0087 -0.1365
  192DOPC  H15X23785   0.314   4.897   4.346 -1.4322 -1.7969 -2.7169
  192DOPC  H15Y23786   0.148   4.927   4.303 -0.8905  2.1856 -0.1711
  192DOPC  C31623787   0.198   5.008   4.495 -0.7460  1.0907  0.5952
  192DOPC  H16X23788   0.296   5.033   4.540  0.4528 -0.2261 -1.1596
  192DOPC  H16Y23789   0.139   5.102   4.499 -1.7646  0.4157  3.3077
  192DOPC  C31723790   0.127   4.893   4.565 -0.3559  0.3272 -0.4167
  192DOPC  H17X23791   0.044   4.857   4.500 -0.6736  0.1521  0.0804
  192DOPC  H17Y23792   0.196   4.806   4.573 -0.7914 -0.0659 -0.8348
  192DOPC  C31823793   0.080   4.936   4.700  0.2423  0.1902 -0.0815
  192DOPC  H18X23794   0.021   4.857   4.749  1.2681 -1.1194 -0.8742
  192DOPC  H18Y23795   0.175   4.945   4.757  0.7814 -1.7840 -0.5878
  192DOPC  H18Z23796   0.020   5.029   4.706 -0.5909 -0.2008 -1.6183
  193DOPC     N23797   7.257   1.407   1.897  0.1788  0.9337 -0.7881
  193DOPC   C1223798   7.182   1.345   2.017  0.1917  0.3507 -0.6089
  193DOPC  H12A23799   7.203   1.239   2.024  0.5845  0.4661  0.0252
  193DOPC  H12B23800   7.078   1.350   1.991  0.2037 -0.4148 -0.8318
  193DOPC   C1323801   7.208   1.547   1.863 -0.2537 -0.6899  0.1068
  193DOPC  H13A23802   7.239   1.629   1.925 -0.3055  1.3840 -2.4319
  193DOPC  H13B23803   7.232   1.578   1.762  0.5006  2.6475  1.1849
  193DOPC  H13C23804   7.100   1.560   1.860 -0.1951  0.7699  2.3489
  193DOPC   C1423805   7.225   1.324   1.778  0.6941  0.8424 -0.1405
  193DOPC  H14A23806   7.271   1.354   1.685 -0.6430 -1.1256 -1.5426
  193DOPC  H14B23807   7.245   1.219   1.798  1.7363  1.3490  1.7078
  193DOPC  H14C23808   7.119   1.330   1.762  0.0737 -3.0980  1.2942
  193DOPC   C1523809   7.401   1.402   1.908 -0.9034  0.0819 -0.4577
  193DOPC  H15A23810   7.452   1.433   1.817 -0.4510 -0.3578 -0.3596
  193DOPC  H15B23811   7.435   1.302   1.926 -2.5212 -0.2970  0.5968
  193DOPC  H15C23812   7.434   1.445   2.001 -2.5745  1.4634 -0.4408
  193DOPC   C1123813   7.206   1.398   2.158  0.4675  0.2966 -0.5772
  193DOPC  H11A23814   7.157   1.496   2.141 -1.0672 -0.1944  0.8041
  193DOPC  H11B23815   7.151   1.341   2.236  0.8096 -0.9188 -1.2037
  193DOPC     P23816   7.405   1.513   2.282 -0.3010 -0.0395  0.2628
  193DOPC   O1323817   7.366   1.645   2.226  0.0980  0.3768 -0.4934
  193DOPC   O1423818   7.553   1.483   2.284  0.0633 -0.4120 -0.3350
  193DOPC   O1223819   7.345   1.400   2.194  0.0955 -0.5900  0.6615
  193DOPC   O1123820   7.331   1.488   2.419 -0.1681  0.3557 -0.3795
  193DOPC    C123821   7.325   1.352   2.470 -0.0345  0.1393  0.1726
  193DOPC    HA23822   7.423   1.300   2.462  1.5413  2.8138  0.8322
  193DOPC    HB23823   7.257   1.280   2.419 -0.7805  0.7484  0.2838
  193DOPC    C223824   7.296   1.354   2.626 -0.7203  0.1187  0.1441
  193DOPC    HS23825   7.290   1.250   2.665  0.3746  0.5454  1.5338
  193DOPC   O2123826   7.175   1.427   2.648 -0.3181  0.1664  0.1520
  193DOPC   C2123827   7.054   1.363   2.629 -0.2834  0.7486 -0.2579
  193DOPC   O2223828   7.035   1.259   2.573  0.0150  0.0541  0.1496
  193DOPC   C2223829   6.947   1.450   2.706  0.1529 -0.0908  0.0522
  193DOPC   H2R23830   6.846   1.408   2.685  1.4138 -2.8219 -0.9786
  193DOPC   H2S23831   6.947   1.552   2.662 -0.3906 -0.9017 -1.9630
  193DOPC    C323832   7.418   1.411   2.708  0.0476 -0.0665 -0.3568
  193DOPC    HX23833   7.448   1.494   2.641  0.1310 -0.7320 -1.1651
  193DOPC    HY23834   7.503   1.339   2.701  0.7289  0.8143 -1.5957
  193DOPC   O3123835   7.388   1.445   2.845  0.0779  0.0774 -0.6110
  193DOPC   C3123836   7.491   1.502   2.906  0.0536  0.4257  0.3149
  193DOPC   O3223837   7.600   1.530   2.856 -0.0776  0.1403  0.2961
  193DOPC   C3223838   7.447   1.538   3.047  0.2197 -0.8255  0.1456
  193DOPC   H2X23839   7.466   1.644   3.074 -0.2295 -1.1772  1.9567
  193DOPC   H2Y23840   7.340   1.511   3.059 -0.8987  1.3525 -3.2511
  193DOPC   C2323841   6.967   1.465   2.857  0.2324  0.3620 -0.2712
  193DOPC   H3R23842   6.887   1.535   2.890 -0.0609 -0.0512 -0.0828
  193DOPC   H3S23843   7.064   1.511   2.881  1.3717 -2.8480  1.9805
  193DOPC   C2423844   6.955   1.336   2.936 -0.3050 -0.4011 -0.6754
  193DOPC   H4R23845   7.003   1.254   2.878 -0.7838 -1.1127 -0.0902
  193DOPC   H4S23846   6.847   1.310   2.945 -0.6631  0.6150 -1.8802
  193DOPC   C2523847   7.018   1.356   3.081 -0.2790 -0.5147 -0.0566
  193DOPC   H5R23848   7.008   1.465   3.100 -0.4049 -0.8954  2.4448
  193DOPC   H5S23849   7.122   1.323   3.059 -0.6468 -0.2738 -2.4237
  193DOPC   C2623850   6.956   1.261   3.186  0.3734 -0.1817  0.4942
  193DOPC   H6R23851   6.986   1.161   3.148  0.1556  0.0076 -0.1868
  193DOPC   H6S23852   6.845   1.260   3.185  0.3614  0.1527  1.0395
  193DOPC   C2723853   7.030   1.268   3.319 -0.1353 -0.1085  0.2739
  193DOPC   H7R23854   7.012   1.366   3.369 -1.9998 -0.9226  1.3328
  193DOPC   H7S23855   7.138   1.258   3.296 -0.3295  0.2545 -0.8487
  193DOPC   C2823856   6.964   1.172   3.421 -0.1260 -1.0710  0.3391
  193DOPC   H8R23857   6.973   1.085   3.353 -0.5965 -1.3514  0.6245
  193DOPC   H8S23858   6.854   1.190   3.427 -0.0220  0.3360 -1.2259
  193DOPC   C2923859   7.031   1.157   3.553 -0.0225  0.6541 -0.2843
  193DOPC   H9R23860   7.079   1.060   3.571  3.1235  1.9461 -1.0645
  193DOPC  C21023861   7.035   1.250   3.654  0.8962  0.4377  0.3793
  193DOPC  H10R23862   7.064   1.213   3.753 -1.8484  1.6680  1.7361
  193DOPC  C21123863   6.970   1.388   3.654 -0.0051  0.0766  0.6814
  193DOPC  H11R23864   6.886   1.402   3.583 -1.2247  1.9446  2.3771
  193DOPC  H11S23865   7.051   1.464   3.640 -0.1659  0.0802 -0.2925
  193DOPC  C21223866   6.904   1.421   3.793 -0.1380 -0.6986 -0.4478
  193DOPC  H12R23867   6.817   1.357   3.821 -0.3508 -0.8866 -1.4925
  193DOPC  H12S23868   6.863   1.523   3.775  2.1256  0.0436 -1.7987
  193DOPC  C21323869   6.998   1.424   3.913  0.4302  0.6321 -0.1206
  193DOPC  H13R23870   7.078   1.501   3.906  0.3407  0.9539  1.7500
  193DOPC  H13S23871   7.051   1.327   3.918  0.7745  0.8285  3.7889
  193DOPC  C21423872   6.924   1.448   4.044 -0.6506  0.9702 -0.0578
  193DOPC  H14R23873   6.853   1.363   4.056  0.3412  0.1476  0.1670
  193DOPC  H14S23874   6.862   1.540   4.036 -0.9533  0.8336  0.6295
  193DOPC  C21523875   7.016   1.449   4.169  0.2931 -0.5848 -0.9141
  193DOPC  H15R23876   7.111   1.502   4.151  1.1667 -1.5236  0.7071
  193DOPC  H15S23877   7.035   1.343   4.194  0.0430  0.0117  2.1937
  193DOPC  C21623878   6.934   1.512   4.290  0.1470  0.2789  0.1310
  193DOPC  H16R23879   6.834   1.463   4.284  0.8535 -1.0517 -3.9601
  193DOPC  H16S23880   6.932   1.621   4.272  0.6708  0.3982  0.7714
  193DOPC  C21723881   6.987   1.463   4.420  0.1434  0.3187  1.0131
  193DOPC  H17R23882   7.092   1.501   4.425  0.3321 -0.0845  0.2617
  193DOPC  H17S23883   6.988   1.352   4.419 -2.9108  0.1730 -1.2503
  193DOPC  C21823884   6.909   1.516   4.533 -0.2612  0.4247  0.3525
  193DOPC  H18R23885   6.809   1.470   4.548  0.0865 -0.4978 -0.0851
  193DOPC  H18S23886   6.881   1.621   4.513 -0.7763  0.1764 -0.2430
  193DOPC  H18T23887   6.975   1.505   4.623  0.5093 -2.3600 -0.4572
  193DOPC   C3323888   7.519   1.472   3.169  0.2014  0.1740 -0.3153
  193DOPC   H3X23889   7.626   1.503   3.160  1.0558 -1.6062  2.4832
  193DOPC   H3Y23890   7.526   1.362   3.154  0.3172 -0.1549  1.9093
  193DOPC   C3423891   7.455   1.498   3.307  0.1967  0.5071 -0.3058
  193DOPC   H4X23892   7.357   1.446   3.314  1.5171 -1.9596  0.9139
  193DOPC   H4Y23893   7.445   1.608   3.323 -0.2804  0.7566 -2.1038
  193DOPC   C3523894   7.531   1.433   3.426 -0.4770 -0.3409  0.1899
  193DOPC   H5X23895   7.627   1.486   3.444 -0.9079 -0.0874  1.9565
  193DOPC   H5Y23896   7.557   1.326   3.410  1.7936  0.4601 -2.2413
  193DOPC   C3623897   7.456   1.452   3.551 -0.4820 -0.4955  0.3139
  193DOPC   H6X23898   7.456   1.560   3.576 -0.3614  0.2926 -2.7272
  193DOPC   H6Y23899   7.353   1.415   3.539 -0.4559 -0.5761  0.3399
  193DOPC   C3723900   7.525   1.380   3.672 -0.0048 -0.2697 -0.1382
  193DOPC   H7X23901   7.535   1.272   3.651  1.1377 -0.1126 -0.4577
  193DOPC   H7Y23902   7.623   1.426   3.697 -0.0836 -0.4460  0.5396
  193DOPC   C3823903   7.437   1.392   3.798 -0.1340 -0.3373 -0.0529
  193DOPC   H8X23904   7.333   1.364   3.769 -0.2739 -1.2371  1.2518
  193DOPC   H8Y23905   7.435   1.497   3.836 -0.3552 -0.0927 -0.7268
  193DOPC   C3923906   7.499   1.301   3.904  0.0840  1.0478  0.3545
  193DOPC   H9X23907   7.511   1.198   3.868  1.2841  1.2923  0.0001
  193DOPC  C31023908   7.549   1.325   4.026  0.4483 -0.3710  0.1768
  193DOPC  H10X23909   7.592   1.240   4.081 -0.6029 -0.9945  0.0734
  193DOPC  C31123910   7.548   1.469   4.084  0.3661 -0.0993  0.8752
  193DOPC  H11X23911   7.536   1.551   4.010 -2.1194 -0.5509  0.6669
  193DOPC  H11Y23912   7.637   1.484   4.148 -0.4290  0.9315  1.7705
  193DOPC  C31223913   7.426   1.495   4.168 -0.2741 -0.1817  0.5353
  193DOPC  H12X23914   7.417   1.404   4.232 -2.3210  0.1902  0.8609
  193DOPC  H12Y23915   7.330   1.496   4.112 -1.7413 -0.2973  2.8933
  193DOPC  C31323916   7.440   1.615   4.270  0.1414  0.3125 -0.6369
  193DOPC  H13X23917   7.469   1.703   4.209 -2.0052  1.9841  0.6512
  193DOPC  H13Y23918   7.347   1.636   4.327  0.3297 -1.3540  0.3753
  193DOPC  C31423919   7.532   1.594   4.391 -0.7089 -0.8180 -0.2096
  193DOPC  H14X23920   7.482   1.518   4.455 -0.8183  1.2870  2.3264
  193DOPC  H14Y23921   7.629   1.551   4.360  0.9816  1.5773  1.4942
  193DOPC  C31523922   7.550   1.726   4.478 -0.6033  0.7031  0.3380
  193DOPC  H15X23923   7.596   1.685   4.572 -0.7919  1.8559  0.9450
  193DOPC  H15Y23924   7.448   1.766   4.495 -0.8486  0.1310  0.2502
  193DOPC  C31623925   7.657   1.819   4.421  0.0235 -0.9195  0.1880
  193DOPC  H16X23926   7.619   1.847   4.320 -2.3881  0.8590  1.4921
  193DOPC  H16Y23927   7.669   1.914   4.476 -0.5805  0.1280 -1.4296
  193DOPC  C31723928   7.801   1.766   4.405  0.5370  0.2231 -0.3435
  193DOPC  H17X23929   7.791   1.665   4.358  0.3132  0.0622  0.0499
  193DOPC  H17Y23930   7.859   1.824   4.330 -0.7622  0.9673 -0.8059
  193DOPC  C31823931   7.888   1.751   4.536 -0.1738 -0.0636  0.1459
  193DOPC  H18X23932   7.917   1.846   4.586  1.1424 -0.9249  1.0782
  193DOPC  H18Y23933   7.838   1.695   4.618  1.2522 -0.8935  0.4665
  193DOPC  H18Z23934   7.986   1.710   4.504 -0.2635 -0.0328 -0.1765
  194DOPC     N23935   1.658   0.810   2.477 -0.5806  0.0948 -0.3089
  194DOPC   C1223936   1.666   0.784   2.620 -0.0175 -0.1810 -0.1432
  194DOPC  H12A23937   1.567   0.778   2.663  0.0307 -0.3139 -0.0509
  194DOPC  H12B23938   1.722   0.869   2.659 -1.3728  1.0001 -0.6743
  194DOPC   C1323939   1.558   0.718   2.410  0.0809 -0.2174 -0.2784
  194DOPC  H13A23940   1.571   0.614   2.435 -2.4004 -0.7050 -0.7699
  194DOPC  H13B23941   1.458   0.753   2.433  0.5529  2.2365 -1.5430
  194DOPC  H13C23942   1.558   0.718   2.302  3.1991  0.0892 -0.3894
  194DOPC   C1423943   1.790   0.791   2.407  0.4890  0.0141 -0.4439
  194DOPC  H14A23944   1.777   0.823   2.305  1.7235 -1.4057 -1.0959
  194DOPC  H14B23945   1.862   0.854   2.457  0.7896 -0.9884  0.4393
  194DOPC  H14C23946   1.826   0.689   2.417  0.9467  0.2415  0.3365
  194DOPC   C1523947   1.617   0.952   2.460 -0.3421 -0.5293  0.5091
  194DOPC  H15A23948   1.597   0.987   2.360 -2.0017  0.5508  1.1765
  194DOPC  H15B23949   1.700   1.008   2.501 -0.2750  0.0667 -0.4175
  194DOPC  H15C23950   1.525   0.976   2.512 -0.7141 -1.8446  0.5085
  194DOPC   C1123951   1.721   0.648   2.678 -0.6837  0.0682 -0.8827
  194DOPC  H11A23952   1.812   0.621   2.620  0.7759  0.3639  1.1418
  194DOPC  H11B23953   1.747   0.662   2.785 -0.7813 -1.0134 -0.7051
  194DOPC     P23954   1.494   0.532   2.742  0.3480  0.0145  0.4574
  194DOPC   O1323955   1.422   0.400   2.713 -0.1153 -0.4530 -0.2418
  194DOPC   O1423956   1.419   0.654   2.716  0.8787  0.2729 -0.8472
  194DOPC   O1223957   1.625   0.543   2.656 -0.2082  0.3587 -0.2896
  194DOPC   O1123958   1.558   0.524   2.890  0.1553 -0.0710 -0.1645
  194DOPC    C123959   1.664   0.437   2.938 -0.3674 -0.0913  0.1066
  194DOPC    HA23960   1.757   0.493   2.959 -0.6996  0.4260  0.2208
  194DOPC    HB23961   1.687   0.361   2.859  0.6504 -0.5649  0.8493
  194DOPC    C223962   1.622   0.369   3.070  0.5976  0.4453 -0.0263
  194DOPC    HS23963   1.525   0.315   3.057  1.2732 -1.1762  1.3581
  194DOPC   O2123964   1.607   0.481   3.162 -0.0033  0.8402  0.3568
  194DOPC   C2123965   1.548   0.470   3.280 -0.5586 -0.0843  0.2745
  194DOPC   O2223966   1.491   0.369   3.320  0.2472 -0.2917  0.1840
  194DOPC   C2223967   1.550   0.607   3.351  0.1926  0.3275 -0.1889
  194DOPC   H2R23968   1.445   0.644   3.343 -0.0710 -0.6170 -1.4365
  194DOPC   H2S23969   1.612   0.675   3.289  0.0705 -0.9618 -1.7918
  194DOPC    C323970   1.724   0.259   3.113 -0.1012 -0.1485  0.2655
  194DOPC    HX23971   1.816   0.312   3.146 -1.6334  1.7515  1.6977
  194DOPC    HY23972   1.743   0.188   3.029  0.6249  0.7522 -0.3513
  194DOPC   O3123973   1.688   0.188   3.236  0.6505 -0.3538 -0.4927
  194DOPC   C3123974   1.610   0.089   3.236  0.3375 -0.1245  0.4197
  194DOPC   O3223975   1.549   0.046   3.137 -0.3733  0.0602  0.2456
  194DOPC   C3223976   1.613   0.014   3.378 -0.0688  0.3535  0.4832
  194DOPC   H2X23977   1.715  -0.018   3.407  0.0663  0.9641  0.6948
  194DOPC   H2Y23978   1.588   0.092   3.452 -2.6298 -1.5818  1.7924
  194DOPC   C2323979   1.589   0.595   3.504 -1.1188 -0.2003  0.3908
  194DOPC   H3R23980   1.697   0.567   3.512 -1.3521 -1.4763 -0.6448
  194DOPC   H3S23981   1.540   0.509   3.555 -0.4988 -0.9628 -0.2656
  194DOPC   C2423982   1.578   0.723   3.587 -0.4878  0.4071  0.0915
  194DOPC   H4R23983   1.469   0.738   3.603 -0.9080 -1.3850 -0.7729
  194DOPC   H4S23984   1.604   0.813   3.528 -1.8435  0.0822 -1.0396
  194DOPC   C2523985   1.654   0.714   3.723 -0.2790  0.5922  0.4085
  194DOPC   H5R23986   1.635   0.806   3.783 -1.1867  0.5709  0.1688
  194DOPC   H5S23987   1.761   0.695   3.698 -0.3463  2.9581 -2.2372
  194DOPC   C2623988   1.618   0.594   3.815 -0.2039  0.6450 -1.2210
  194DOPC   H6R23989   1.637   0.496   3.768 -1.7302 -0.0050 -0.5328
  194DOPC   H6S23990   1.510   0.589   3.839  0.3253 -0.4424  1.2079
  194DOPC   C2723991   1.701   0.603   3.951 -0.4569  0.5481  0.2243
  194DOPC   H7R23992   1.704   0.705   3.994 -2.4904  0.8270 -0.1624
  194DOPC   H7S23993   1.803   0.561   3.938 -0.9519 -0.9812  0.9765
  194DOPC   C2823994   1.631   0.526   4.063  0.3004 -0.2258 -0.8533
  194DOPC   H8R23995   1.521   0.540   4.063  0.1061 -1.6032 -0.1769
  194DOPC   H8S23996   1.662   0.556   4.165 -2.9004 -2.9044  1.1547
  194DOPC   C2923997   1.652   0.383   4.054  0.5403 -0.0593 -0.3662
  194DOPC   H9R23998   1.610   0.335   3.964  0.0674 -2.3480  1.0059
  194DOPC  C21023999   1.714   0.305   4.142  0.8689 -0.0365  0.8286
  194DOPC  H10R24000   1.708   0.197   4.127 -2.2023  0.1363  0.1061
  194DOPC  C21124001   1.776   0.345   4.273 -0.4490 -0.3752  0.0681
  194DOPC  H11R24002   1.778   0.248   4.326 -1.3395 -0.2103  0.4089
  194DOPC  H11S24003   1.706   0.411   4.329 -0.0216  1.0567 -1.0035
  194DOPC  C21224004   1.911   0.404   4.279 -0.5253 -0.4543 -0.0972
  194DOPC  H12R24005   1.910   0.505   4.233  0.7383 -0.2521  0.2529
  194DOPC  H12S24006   2.002   0.355   4.237  0.9460 -0.3585  2.7219
  194DOPC  C21324007   1.962   0.409   4.428  0.1319  0.5321 -0.0961
  194DOPC  H13R24008   1.978   0.302   4.454  0.6948  0.3984 -0.9598
  194DOPC  H13S24009   1.877   0.459   4.480  0.1003  1.2076 -0.7675
  194DOPC  C21424010   2.093   0.484   4.447 -0.3998  0.1543 -0.3028
  194DOPC  H14R24011   2.086   0.593   4.426 -0.3101  0.5718  1.6212
  194DOPC  H14S24012   2.173   0.444   4.381 -0.5031  1.1654 -1.0786
  194DOPC  C21524013   2.134   0.483   4.600 -0.8114  0.3138  0.2615
  194DOPC  H15R24014   2.151   0.380   4.638 -1.4777 -0.0683 -0.4610
  194DOPC  H15S24015   2.046   0.521   4.656  0.4383  2.4432  0.9039
  194DOPC  C21624016   2.258   0.565   4.626  0.1972 -0.0444  0.4452
  194DOPC  H16R24017   2.284   0.624   4.536 -1.1446  0.3919  0.3253
  194DOPC  H16S24018   2.349   0.508   4.654 -0.7253 -0.7686  2.1576
  194DOPC  C21724019   2.245   0.679   4.733  0.0903 -0.2855  0.1550
  194DOPC  H17R24020   2.181   0.760   4.692  1.4230 -0.5879 -2.7275
  194DOPC  H17S24021   2.347   0.723   4.736 -0.1138  0.1793  2.8306
  194DOPC  C21824022   2.201   0.632   4.875  0.0904  0.5815  0.4943
  194DOPC  H18R24023   2.092   0.616   4.866 -0.0175  0.2262  2.0686
  194DOPC  H18S24024   2.224   0.710   4.951  0.0894  1.6421 -0.5752
  194DOPC  H18T24025   2.249   0.536   4.903 -1.1971 -0.3362 -0.3641
  194DOPC   C3324026   1.519  -0.101   3.398 -0.4370  0.0758 -0.2595
  194DOPC   H3X24027   1.553  -0.168   3.317  0.6274  0.5853 -0.2465
  194DOPC   H3Y24028   1.417  -0.072   3.363 -0.1274  1.3129 -0.1724
  194DOPC   C3424029   1.542  -0.192   3.523 -0.1733  0.7529 -0.4969
  194DOPC   H4X24030   1.649  -0.184   3.551  0.1854 -0.6699 -1.3619
  194DOPC   H4Y24031   1.536  -0.297   3.489 -1.6707  0.2605  1.1004
  194DOPC   C3524032   1.457  -0.167   3.650 -0.2617  0.1743 -0.0035
  194DOPC   H5X24033   1.512  -0.210   3.736 -2.1751 -1.5254  0.4612
  194DOPC   H5Y24034   1.364  -0.227   3.645 -0.0896 -0.1257  0.3318
  194DOPC   C3624035   1.414  -0.022   3.660  0.2797  0.4287 -0.6852
  194DOPC   H6X24036   1.505   0.039   3.645 -0.9602  2.3453 -0.6822
  194DOPC   H6Y24037   1.350   0.011   3.576 -0.1854 -3.9083 -2.3014
  194DOPC   C3724038   1.372   0.019   3.797 -0.0014 -0.2587 -0.6145
  194DOPC   H7X24039   1.458   0.020   3.868 -1.1521  1.3276  0.8281
  194DOPC   H7Y24040   1.348   0.127   3.790  0.8366 -0.1151 -1.6787
  194DOPC   C3824041   1.258  -0.062   3.861 -0.5178  0.2849 -0.8453
  194DOPC   H8X24042   1.298  -0.154   3.908  1.0305  0.2190 -2.2154
  194DOPC   H8Y24043   1.190  -0.098   3.780  0.2929 -1.8905 -0.6260
  194DOPC   C3924044   1.174   0.011   3.967  0.4294 -0.1492  0.4516
  194DOPC   H9X24045   1.094   0.075   3.927  1.8138  1.6914  0.5097
  194DOPC  C31024046   1.165  -0.021   4.098 -0.9578 -0.9829  0.1882
  194DOPC  H10X24047   1.097   0.035   4.163 -0.9501 -1.4266  0.5827
  194DOPC  C31124048   1.237  -0.125   4.177 -0.8548 -0.4879 -0.4127
  194DOPC  H11X24049   1.344  -0.115   4.148 -0.5518 -2.6005 -0.1997
  194DOPC  H11Y24050   1.218  -0.232   4.152 -1.2982 -0.4505 -0.2454
  194DOPC  C31224051   1.212  -0.113   4.333 -0.4468  0.1022 -0.2593
  194DOPC  H12X24052   1.254  -0.018   4.372 -0.8700 -0.1727  0.9366
  194DOPC  H12Y24053   1.255  -0.207   4.375  1.9228  1.3784  0.3045
  194DOPC  C31324054   1.061  -0.123   4.366 -0.2294  0.6773 -0.5287
  194DOPC  H13X24055   1.005  -0.040   4.320  0.1558  2.2409  1.6655
  194DOPC  H13Y24056   1.023  -0.217   4.321  0.0957 -0.8870  2.1924
  194DOPC  C31424057   1.032  -0.125   4.520  0.5939 -0.2348  0.4756
  194DOPC  H14X24058   1.120  -0.154   4.581 -0.4183  0.1896  2.2292
  194DOPC  H14Y24059   1.007  -0.020   4.547 -0.1615  0.3625 -2.2330
  194DOPC  C31524060   0.910  -0.221   4.547  0.0040  1.0622  0.3150
  194DOPC  H15X24061   0.819  -0.192   4.490 -0.8313 -1.6460  0.1259
  194DOPC  H15Y24062   0.882  -0.196   4.652 -2.1720 -1.4649  0.4502
  194DOPC  C31624063   0.950  -0.371   4.540 -0.0725 -0.0102  0.9469
  194DOPC  H16X24064   0.943  -0.397   4.433  0.3317 -2.2211  1.4028
  194DOPC  H16Y24065   1.056  -0.380   4.572 -0.5026 -0.4604  2.3549
  194DOPC  C31724066   0.878  -0.467   4.633  0.4104 -0.1395 -0.3612
  194DOPC  H17X24067   0.918  -0.571   4.623 -3.7810 -2.4159  3.3637
  194DOPC  H17Y24068   0.904  -0.438   4.737  0.2860  2.3299 -0.9491
  194DOPC  C31824069   0.726  -0.472   4.619  0.0161 -0.2379  0.0918
  194DOPC  H18X24070   0.713  -0.523   4.522  1.4825  0.6776 -0.6207
  194DOPC  H18Y24071   0.674  -0.537   4.693  1.2967 -0.4035  0.8771
  194DOPC  H18Z24072   0.681  -0.371   4.618  0.4549  0.0083  1.7507
  195DOPC     N24073   5.375   1.718   2.027 -0.4296 -0.1330 -0.6849
  195DOPC   C1224074   5.446   1.728   2.161 -0.4840  0.0884 -0.2004
  195DOPC  H12A24075   5.377   1.736   2.244  2.5159  1.5636  2.3592
  195DOPC  H12B24076   5.488   1.827   2.166 -0.6097  0.1736 -0.7129
  195DOPC   C1324077   5.294   1.839   1.997 -0.0548  0.2602 -0.5151
  195DOPC  H13A24078   5.216   1.859   2.069  0.4926  0.1836  0.1200
  195DOPC  H13B24079   5.351   1.929   1.977  0.5446 -0.3903 -1.8164
  195DOPC  H13C24080   5.246   1.819   1.903  0.5644 -2.3054 -0.3589
  195DOPC   C1424081   5.281   1.600   2.035  0.5599  0.5733  0.0956
  195DOPC  H14A24082   5.214   1.616   2.119  1.3433  1.0202  0.6453
  195DOPC  H14B24083   5.213   1.599   1.951 -0.8802  0.8521  1.2007
  195DOPC  H14C24084   5.333   1.506   2.032 -1.6389 -0.6972 -2.5415
  195DOPC   C1524085   5.478   1.688   1.927  0.0661 -0.7386  0.1862
  195DOPC  H15A24086   5.550   1.768   1.915 -0.7905  0.1312  0.7220
  195DOPC  H15B24087   5.425   1.677   1.834 -0.2055  1.4468  0.0171
  195DOPC  H15C24088   5.533   1.599   1.953 -0.2097 -1.2362 -0.8870
  195DOPC   C1124089   5.535   1.613   2.204  0.2814 -0.1042  0.0993
  195DOPC  H11A24090   5.607   1.582   2.125 -0.3396  0.6892 -0.7831
  195DOPC  H11B24091   5.593   1.668   2.281  0.0345  1.1806 -0.6126
  195DOPC     P24092   5.366   1.462   2.360  0.1944  0.0317  0.0065
  195DOPC   O1324093   5.429   1.377   2.463 -0.5749  0.4585  0.1548
  195DOPC   O1424094   5.242   1.408   2.304  0.4835  0.0736  0.1668
  195DOPC   O1224095   5.460   1.494   2.245 -0.8526  0.2279  0.5544
  195DOPC   O1124096   5.338   1.611   2.417  0.5421  0.1576 -0.0911
  195DOPC    C124097   5.373   1.653   2.545 -0.5020  0.2805 -0.3058
  195DOPC    HA24098   5.348   1.761   2.544 -2.3987 -0.1209 -1.1712
  195DOPC    HB24099   5.484   1.655   2.548 -0.4878  2.2626 -0.5824
  195DOPC    C224100   5.296   1.591   2.664  0.5801  0.6145  0.5466
  195DOPC    HS24101   5.308   1.481   2.656  0.1962  0.6278 -0.4578
  195DOPC   O2124102   5.161   1.628   2.651 -0.4755 -0.2934 -0.1877
  195DOPC   C2124103   5.072   1.537   2.685 -0.3953 -0.7344  0.0165
  195DOPC   O2224104   5.103   1.428   2.733 -0.4940  0.5176  0.2755
  195DOPC   C2224105   4.923   1.589   2.657 -0.3865  0.6075  0.4114
  195DOPC   H2R24106   4.911   1.574   2.548 -2.4207  0.5225  0.6087
  195DOPC   H2S24107   4.928   1.699   2.671  1.9217  0.6121 -0.1203
  195DOPC    C324108   5.346   1.636   2.796 -0.1191 -0.3578  0.6703
  195DOPC    HX24109   5.332   1.746   2.802  0.8479 -0.2588  1.4544
  195DOPC    HY24110   5.454   1.610   2.795 -0.7162 -3.1198  0.5390
  195DOPC   O3124111   5.285   1.564   2.905  0.0117  0.1819 -0.7668
  195DOPC   C3124112   5.324   1.443   2.929 -0.0515  0.3921  0.4917
  195DOPC   O3224113   5.410   1.377   2.873 -0.5342 -0.6535  0.1747
  195DOPC   C3224114   5.226   1.392   3.035  0.4379  0.0478  0.2214
  195DOPC   H2X24115   5.123   1.430   3.014 -0.0658 -0.5708  1.4185
  195DOPC   H2Y24116   5.215   1.282   3.028 -0.8455  0.2431 -1.3982
  195DOPC   C2324117   4.820   1.499   2.721 -0.2797  0.5944  0.0509
  195DOPC   H3R24118   4.829   1.401   2.670  2.3645  1.1244 -0.6350
  195DOPC   H3S24119   4.713   1.525   2.703 -0.3233 -0.8950 -2.1895
  195DOPC   C2424120   4.834   1.495   2.876 -0.3967 -0.1978  0.0498
  195DOPC   H4R24121   4.818   1.598   2.915  2.2677  0.2144  0.2359
  195DOPC   H4S24122   4.934   1.458   2.906  0.2262  0.5162 -1.0697
  195DOPC   C2524123   4.726   1.398   2.928 -0.3739 -0.3176 -0.1894
  195DOPC   H5R24124   4.739   1.312   2.860 -0.5150  1.9295 -3.2724
  195DOPC   H5S24125   4.627   1.440   2.902 -1.6097 -2.5502  0.6785
  195DOPC   C2624126   4.744   1.358   3.073  0.8490 -0.3447 -0.2317
  195DOPC   H6R24127   4.711   1.442   3.137  1.4001 -0.0657 -0.3093
  195DOPC   H6S24128   4.853   1.336   3.081  1.0986  0.3519 -1.3461
  195DOPC   C2724129   4.659   1.236   3.118  0.1207  0.1319 -0.1479
  195DOPC   H7R24130   4.678   1.205   3.223 -2.6204 -0.3028  0.2980
  195DOPC   H7S24131   4.691   1.152   3.052  0.5993 -1.3912  1.9368
  195DOPC   C2824132   4.508   1.264   3.107 -0.2023 -0.7543  0.1988
  195DOPC   H8R24133   4.494   1.283   2.999  1.6851  1.0943  0.2406
  195DOPC   H8S24134   4.479   1.355   3.163 -2.5401 -2.3236  1.7451
  195DOPC   C2924135   4.411   1.159   3.159  0.5191  1.0472  0.0644
  195DOPC   H9R24136   4.388   1.083   3.083  0.2856  0.1842  0.9757
  195DOPC  C21024137   4.343   1.155   3.273 -0.0711 -0.1442 -0.1968
  195DOPC  H10R24138   4.287   1.062   3.287  0.9030 -0.9613 -1.4323
  195DOPC  C21124139   4.346   1.255   3.388 -0.0321 -0.3795  0.3480
  195DOPC  H11R24140   4.246   1.305   3.384  0.2487  0.3155  1.4823
  195DOPC  H11S24141   4.431   1.326   3.379 -0.3900 -0.0824 -0.9653
  195DOPC  C21224142   4.362   1.193   3.531 -0.0993  0.1526  0.4960
  195DOPC  H12R24143   4.367   1.281   3.599  0.1511  0.6069 -0.1091
  195DOPC  H12S24144   4.457   1.135   3.542 -0.6483 -0.4317  2.8959
  195DOPC  C21324145   4.243   1.114   3.577 -0.1312  0.1451  0.2307
  195DOPC  H13R24146   4.258   1.010   3.540 -0.8696  0.7895 -2.0181
  195DOPC  H13S24147   4.154   1.153   3.524 -0.7986 -0.7930  0.6266
  195DOPC  C21424148   4.226   1.128   3.727  0.6774 -0.4168  0.1067
  195DOPC  H14R24149   4.155   1.047   3.753 -0.6704  0.7320  0.0809
  195DOPC  H14S24150   4.184   1.224   3.763 -0.5801 -1.5915  1.9658
  195DOPC  C21524151   4.355   1.076   3.798  0.1114  0.0114 -0.2691
  195DOPC  H15R24152   4.438   1.142   3.764 -0.5314  0.4379 -1.0644
  195DOPC  H15S24153   4.377   0.973   3.763  0.0842 -0.2121  0.3711
  195DOPC  C21624154   4.358   1.091   3.957 -0.7423  0.1613  0.2827
  195DOPC  H16R24155   4.283   1.022   4.001 -0.8936 -0.5810 -1.0822
  195DOPC  H16S24156   4.330   1.195   3.985 -1.4772 -0.1230  0.6198
  195DOPC  C21724157   4.496   1.060   4.020  0.1165 -0.3038  0.2446
  195DOPC  H17R24158   4.568   1.124   3.966 -0.3396  0.7914  0.8946
  195DOPC  H17S24159   4.525   0.953   4.019 -0.3957 -0.4606  0.9527
  195DOPC  C21824160   4.502   1.121   4.164  0.0955 -0.2942  0.4543
  195DOPC  H18R24161   4.595   1.092   4.217  0.8601 -0.1834 -0.7777
  195DOPC  H18S24162   4.415   1.096   4.229  0.4455 -0.2587  0.9369
  195DOPC  H18T24163   4.497   1.231   4.151 -0.9002 -0.5706 -2.1197
  195DOPC   C3324164   5.266   1.430   3.176  1.2814 -0.5115 -0.6521
  195DOPC   H3X24165   5.298   1.537   3.183 -1.4128  0.4244 -1.3657
  195DOPC   H3Y24166   5.354   1.369   3.204  1.1645 -0.7490 -0.8035
  195DOPC   C3424167   5.145   1.407   3.276 -0.3251 -0.0829  0.5825
  195DOPC   H4X24168   5.055   1.445   3.222 -0.6775 -1.4405  0.1805
  195DOPC   H4Y24169   5.164   1.468   3.367  1.3011  0.1810  0.0997
  195DOPC   C3524170   5.110   1.267   3.315  0.8282  0.4024  0.1812
  195DOPC   H5X24171   5.083   1.205   3.227  2.3716 -1.9003  1.2113
  195DOPC   H5Y24172   5.029   1.272   3.390  0.1024 -3.0613 -0.1967
  195DOPC   C3624173   5.226   1.197   3.381 -0.2703  0.3253 -0.4473
  195DOPC   H6X24174   5.302   1.190   3.301 -0.6968  0.2087 -0.8433
  195DOPC   H6Y24175   5.264   1.266   3.460  0.2532 -0.1154 -0.3081
  195DOPC   C3724176   5.178   1.061   3.446 -0.1612  0.6626 -0.3967
  195DOPC   H7X24177   5.082   1.067   3.501 -0.9258 -0.7385 -1.5103
  195DOPC   H7Y24178   5.167   0.993   3.359  0.2084 -0.2931  0.2868
  195DOPC   C3824179   5.284   0.994   3.538 -0.0499  0.4422 -0.8061
  195DOPC   H8X24180   5.255   0.887   3.549  0.5887  0.3555  0.2604
  195DOPC   H8Y24181   5.284   1.045   3.637 -0.3669 -0.6403 -0.2323
  195DOPC   C3924182   5.421   1.005   3.476 -0.4740  0.6218 -0.2094
  195DOPC   H9X24183   5.432   0.929   3.397 -2.0641  0.5597 -0.4022
  195DOPC  C31024184   5.518   1.098   3.496  0.1992 -0.4764 -0.3319
  195DOPC  H10X24185   5.610   1.090   3.436  0.6400  1.2957  0.0568
  195DOPC  C31124186   5.500   1.214   3.589  0.9112 -0.0907  0.4361
  195DOPC  H11X24187   5.398   1.226   3.632  1.1131 -1.0910  1.2254
  195DOPC  H11Y24188   5.512   1.312   3.538 -0.2632 -0.7406 -1.1309
  195DOPC  C31224189   5.586   1.193   3.715 -0.0523 -0.4265 -0.2764
  195DOPC  H12X24190   5.695   1.196   3.695 -0.2504 -2.0157 -1.8148
  195DOPC  H12Y24191   5.573   1.088   3.751 -0.4712  0.5480  2.6742
  195DOPC  C31324192   5.547   1.286   3.834 -0.3597 -0.4728 -0.0663
  195DOPC  H13X24193   5.556   1.388   3.791  2.2065  0.5834  2.6118
  195DOPC  H13Y24194   5.442   1.273   3.868  0.0398  2.5832  2.9801
  195DOPC  C31424195   5.642   1.250   3.952  0.3248  0.0016  0.4340
  195DOPC  H14X24196   5.606   1.289   4.050 -0.2657  1.7019 -0.4222
  195DOPC  H14Y24197   5.650   1.139   3.951 -1.2839 -0.2571 -3.7014
  195DOPC  C31524198   5.787   1.308   3.942  0.1465  0.1490 -0.2219
  195DOPC  H15X24199   5.783   1.414   3.909  0.2017 -0.3262 -1.8807
  195DOPC  H15Y24200   5.845   1.249   3.868 -0.8632 -0.3000 -0.6793
  195DOPC  C31624201   5.855   1.300   4.078 -1.1841  0.1803 -0.1236
  195DOPC  H16X24202   5.797   1.356   4.155  2.0903 -0.5357  3.1097
  195DOPC  H16Y24203   5.864   1.195   4.111  2.6753  0.4375  0.0806
  195DOPC  C31724204   5.995   1.361   4.074 -0.4976  0.0819 -0.1224
  195DOPC  H17X24205   6.054   1.304   3.998  0.2353 -0.1677  0.6215
  195DOPC  H17Y24206   5.990   1.465   4.035  0.5977 -0.0591 -0.6860
  195DOPC  C31824207   6.080   1.350   4.202  0.5809  0.3138  1.0961
  195DOPC  H18X24208   6.071   1.248   4.245 -0.3696  0.2848  0.8450
  195DOPC  H18Y24209   6.188   1.375   4.189  0.4750 -0.6257 -2.7700
  195DOPC  H18Z24210   6.029   1.420   4.272  2.0919  1.3303  1.2481
  196DOPC     N24211   0.187   1.879   2.417  0.6989 -0.3004 -0.4217
  196DOPC   C1224212   0.141   1.995   2.497  0.4156 -0.3052 -1.0772
  196DOPC  H12A24213   0.194   2.000   2.590  1.3271 -3.6990 -1.2754
  196DOPC  H12B24214   0.039   1.977   2.527  1.6108 -1.6663  2.7326
  196DOPC   C1324215   0.162   1.755   2.494 -0.3685 -0.0365 -0.3225
  196DOPC  H13A24216   0.161   1.665   2.434 -0.5913 -0.4737  0.3192
  196DOPC  H13B24217   0.225   1.753   2.582 -0.3799 -0.3071 -0.3193
  196DOPC  H13C24218   0.062   1.755   2.535 -0.9237 -1.1810 -1.5856
  196DOPC   C1424219   0.331   1.905   2.381  0.2206 -0.4134 -0.0664
  196DOPC  H14A24220   0.373   1.818   2.332  0.3581 -0.0537 -0.6022
  196DOPC  H14B24221   0.344   1.992   2.318 -0.3031  1.5246  2.3394
  196DOPC  H14C24222   0.393   1.924   2.467 -1.0408  1.4853  0.4767
  196DOPC   C1524223   0.105   1.869   2.299  0.0660 -0.1422  0.6978
  196DOPC  H15A24224   0.111   1.953   2.231 -1.1389  1.1587  2.1169
  196DOPC  H15B24225  -0.002   1.878   2.314  0.0437  1.3716 -0.1564
  196DOPC  H15C24226   0.119   1.773   2.252 -2.0356  0.4601 -1.3534
  196DOPC   C1124227   0.139   2.136   2.436  1.5446  0.4531 -0.7780
  196DOPC  H11A24228   0.080   2.148   2.342  1.4733  0.4759 -0.7305
  196DOPC  H11B24229   0.083   2.201   2.507 -1.5021 -2.3238 -0.4093
  196DOPC     P24230   0.340   2.242   2.547 -0.0689 -0.0696 -0.1588
  196DOPC   O1324231   0.315   2.388   2.566  0.0904  0.6799  0.5684
  196DOPC   O1424232   0.481   2.197   2.532  0.4450  0.4608  0.0766
  196DOPC   O1224233   0.266   2.185   2.411 -0.0338  0.7750 -0.3275
  196DOPC   O1124234   0.268   2.174   2.672 -0.7209 -0.6830  0.0083
  196DOPC    C124235   0.331   2.122   2.791  0.0719 -0.3131  0.4082
  196DOPC    HA24236   0.426   2.072   2.763 -0.0620 -0.0307 -0.5731
  196DOPC    HB24237   0.267   2.042   2.833 -1.0781 -0.7304 -1.9674
  196DOPC    C224238   0.363   2.227   2.904 -0.5463  0.0110  0.3470
  196DOPC    HS24239   0.453   2.283   2.869 -0.5169 -0.3070 -0.1004
  196DOPC   O2124240   0.401   2.154   3.021  0.4320 -1.0123 -0.5519
  196DOPC   C2124241   0.465   2.228   3.118  0.4034  0.3934 -0.1541
  196DOPC   O2224242   0.470   2.349   3.118  0.2186  0.0206  1.0042
  196DOPC   C2224243   0.530   2.130   3.215 -0.3686  0.6142 -0.1779
  196DOPC   H2R24244   0.636   2.114   3.186 -0.6352 -1.0331 -0.3443
  196DOPC   H2S24245   0.479   2.031   3.213  0.4137  0.1231  1.7115
  196DOPC    C324246   0.243   2.322   2.923  0.6457  0.4063 -0.0903
  196DOPC    HX24247   0.195   2.346   2.826  0.5876  2.0164  0.3077
  196DOPC    HY24248   0.285   2.415   2.968 -1.0171  1.2573 -0.2150
  196DOPC   O3124249   0.150   2.252   3.005  0.6570 -0.3203 -0.2873
  196DOPC   C3124250   0.055   2.332   3.058  0.4601  0.3469  0.0531
  196DOPC   O3224251   0.048   2.452   3.038 -0.3682  0.0012  0.2373
  196DOPC   C3224252  -0.047   2.259   3.151  0.6518  0.9557 -0.1722
  196DOPC   H2X24253  -0.149   2.249   3.108  0.5036 -0.6953  0.4583
  196DOPC   H2Y24254  -0.003   2.157   3.158 -1.0039  0.2784  1.3327
  196DOPC   C2324255   0.542   2.179   3.359  0.2598  0.2785  0.0754
  196DOPC   H3R24256   0.445   2.188   3.414  2.4185 -3.0087  5.1408
  196DOPC   H3S24257   0.597   2.275   3.353 -0.6691  0.7493 -1.3131
  196DOPC   C2424258   0.614   2.085   3.465  0.3488 -0.2135  0.8242
  196DOPC   H4R24259   0.714   2.058   3.424 -0.4334 -2.6803  0.3825
  196DOPC   H4S24260   0.558   1.990   3.477 -0.2822  0.2062  1.2029
  196DOPC   C2524261   0.632   2.138   3.601 -0.3904 -0.2268 -0.0041
  196DOPC   H5R24262   0.533   2.159   3.648 -0.0357  1.0896  0.1929
  196DOPC   H5S24263   0.678   2.238   3.604 -0.5714 -0.1533  1.4645
  196DOPC   C2624264   0.714   2.048   3.696  0.3517 -0.2898 -0.3364
  196DOPC   H6R24265   0.802   2.016   3.636  1.4121  0.4601  0.7889
  196DOPC   H6S24266   0.644   1.963   3.709 -0.6487  0.5421 -0.1191
  196DOPC   C2724267   0.742   2.121   3.830  0.5298  0.1646 -0.2770
  196DOPC   H7R24268   0.643   2.154   3.869 -0.7028 -1.8343 -1.5127
  196DOPC   H7S24269   0.804   2.212   3.823  1.8940 -0.7041  0.0076
  196DOPC   C2824270   0.803   2.033   3.938  0.5312  0.3135 -0.7349
  196DOPC   H8R24271   0.814   2.099   4.027  2.8882 -0.3198 -0.5030
  196DOPC   H8S24272   0.902   1.991   3.909  0.1162 -1.2231 -0.0146
  196DOPC   C2924273   0.715   1.914   3.971 -0.8515  0.2995  0.1676
  196DOPC   H9R24274   0.690   1.855   3.881  1.3170 -1.2769  0.5252
  196DOPC  C21024275   0.668   1.881   4.090 -0.8902 -0.0124  0.9724
  196DOPC  H10R24276   0.597   1.798   4.097 -2.9501  1.5320 -0.5854
  196DOPC  C21124277   0.694   1.964   4.216  0.5702  0.2181  0.7992
  196DOPC  H11R24278   0.619   1.938   4.293  1.0032 -0.3838  1.0196
  196DOPC  H11S24279   0.667   2.071   4.197 -2.2678 -0.5506 -0.1271
  196DOPC  C21224280   0.829   1.940   4.278  0.0579  0.4132  0.7772
  196DOPC  H12R24281   0.909   1.976   4.209 -0.8718 -1.3667 -1.3704
  196DOPC  H12S24282   0.839   1.833   4.303 -0.5859  1.1257  4.6559
  196DOPC  C21324283   0.849   2.023   4.407 -0.2226 -0.0348 -0.0269
  196DOPC  H13R24284   0.818   2.127   4.387  1.7097  1.5749  4.1583
  196DOPC  H13S24285   0.953   2.026   4.448  0.6665  2.5565 -2.1964
  196DOPC  C21424286   0.763   1.956   4.523 -0.6897  0.2759 -0.5385
  196DOPC  H14R24287   0.776   1.846   4.516  1.5631  0.3603  1.0665
  196DOPC  H14S24288   0.660   1.991   4.503 -0.1939  0.6713 -2.5309
  196DOPC  C21524289   0.787   1.993   4.668  0.0429 -0.1348  0.5427
  196DOPC  H15R24290   0.891   1.988   4.707  0.8454  1.0341 -1.3170
  196DOPC  H15S24291   0.724   1.929   4.733  0.1929 -0.2701  0.5572
  196DOPC  C21624292   0.721   2.127   4.701 -0.4400  0.1487 -0.4205
  196DOPC  H16R24293   0.611   2.126   4.689 -0.9523 -0.4088  3.1048
  196DOPC  H16S24294   0.754   2.212   4.638 -1.3967 -0.6473 -2.0671
  196DOPC  C21724295   0.749   2.164   4.852 -0.2529  0.2659  0.2965
  196DOPC  H17R24296   0.852   2.141   4.886  1.0953  0.1288 -3.4253
  196DOPC  H17S24297   0.676   2.119   4.922  0.7358 -0.8616  0.6373
  196DOPC  C21824298   0.731   2.312   4.887  0.5574  0.1424  0.1654
  196DOPC  H18R24299   0.664   2.363   4.814  0.4657 -0.4257 -0.1625
  196DOPC  H18S24300   0.825   2.369   4.874 -0.7645  2.0008 -2.0614
  196DOPC  H18T24301   0.701   2.336   4.991  0.6223  1.6419 -0.1472
  196DOPC   C3324302  -0.055   2.331   3.288 -0.2381  0.5938  0.5053
  196DOPC   H3X24303  -0.145   2.290   3.338  0.3545 -1.4311  0.0030
  196DOPC   H3Y24304  -0.067   2.441   3.283  2.3377  0.9061 -0.8624
  196DOPC   C3424305   0.061   2.293   3.380 -0.0765  0.2699 -0.1564
  196DOPC   H4X24306   0.041   2.357   3.469 -0.0413 -0.8545  0.6719
  196DOPC   H4Y24307   0.161   2.312   3.333  0.1508  0.5800  0.4362
  196DOPC   C3524308   0.051   2.148   3.428  0.3078  0.0465 -0.5241
  196DOPC   H5X24309   0.089   2.075   3.353 -0.3047 -1.0084  0.1587
  196DOPC   H5Y24310  -0.059   2.132   3.435  0.4234 -0.4248  0.3578
  196DOPC   C3624311   0.103   2.120   3.566  0.1295  0.0391  0.5326
  196DOPC   H6X24312   0.214   2.127   3.568  0.2634 -1.1919 -0.7796
  196DOPC   H6Y24313   0.054   2.194   3.632 -3.0931 -1.3504 -0.1118
  196DOPC   C3724314   0.055   1.987   3.609  0.8315  0.3236  0.0012
  196DOPC   H7X24315  -0.056   1.985   3.597  0.8332  0.3496 -0.0209
  196DOPC   H7Y24316   0.092   1.911   3.537 -0.1224 -0.2466  0.0977
  196DOPC   C3824317   0.093   1.946   3.754  0.4204 -0.2796  0.2854
  196DOPC   H8X24318   0.068   1.839   3.771  0.9367 -0.4311  0.1001
  196DOPC   H8Y24319   0.019   2.003   3.815 -0.6973 -0.4979 -0.8122
  196DOPC   C3924320   0.235   1.977   3.780 -0.2981 -0.3104  0.1340
  196DOPC   H9X24321   0.253   2.085   3.764 -2.1924 -0.0314 -0.2907
  196DOPC  C31024322   0.340   1.891   3.791 -0.9032 -0.0375 -0.4021
  196DOPC  H10X24323   0.443   1.922   3.814 -0.7090 -1.8695  1.5717
  196DOPC  C31124324   0.339   1.737   3.783  0.4612 -0.2109 -0.1983
  196DOPC  H11X24325   0.238   1.709   3.746 -0.4981 -0.6372  2.5334
  196DOPC  H11Y24326   0.333   1.687   3.882  0.6594 -0.2300 -0.1963
  196DOPC  C31224327   0.451   1.685   3.695 -0.4188  0.1425  0.2697
  196DOPC  H12X24328   0.472   1.576   3.697 -0.7292  0.0137 -1.6555
  196DOPC  H12Y24329   0.542   1.742   3.725  0.3368 -0.6762 -0.4209
  196DOPC  C31324330   0.424   1.699   3.538 -0.2109 -0.3826  0.1808
  196DOPC  H13X24331   0.352   1.621   3.506  0.0651  0.0882 -1.7155
  196DOPC  H13Y24332   0.397   1.805   3.519 -0.0037  0.1369  2.5412
  196DOPC  C31424333   0.553   1.657   3.463 -0.5511  0.4292  0.4053
  196DOPC  H14X24334   0.629   1.715   3.519 -0.3200 -0.1875  0.7360
  196DOPC  H14Y24335   0.566   1.549   3.486  1.3295  0.1509 -1.6448
  196DOPC  C31524336   0.546   1.691   3.312 -0.4836 -0.2906 -0.0760
  196DOPC  H15X24337   0.646   1.676   3.267 -0.9885 -3.0094 -0.4405
  196DOPC  H15Y24338   0.536   1.800   3.288  1.9227 -0.4624 -2.3223
  196DOPC  C31624339   0.435   1.608   3.240  0.5453 -0.6334  0.4509
  196DOPC  H16X24340   0.430   1.510   3.293  0.0943 -0.8290  0.0521
  196DOPC  H16Y24341   0.337   1.659   3.239 -0.0005 -1.6000  1.9294
  196DOPC  C31724342   0.472   1.593   3.092  0.2400 -0.5595  0.3234
  196DOPC  H17X24343   0.388   1.544   3.040  1.4063 -2.2611 -0.0422
  196DOPC  H17Y24344   0.481   1.696   3.051  0.4537 -0.2804  1.0517
  196DOPC  C31824345   0.594   1.502   3.057 -0.0862 -0.2574 -0.2943
  196DOPC  H18X24346   0.593   1.487   2.947 -0.1221  0.9066 -0.4581
  196DOPC  H18Y24347   0.690   1.556   3.075  0.2086 -0.7716 -0.2831
  196DOPC  H18Z24348   0.585   1.405   3.111 -1.5043 -0.0954 -0.2253
  197DOPC     N24349   2.971   0.402   2.846  0.1538 -0.1114 -0.6344
  197DOPC   C1224350   3.029   0.262   2.823 -0.3777 -0.1374  0.5348
  197DOPC  H12A24351   3.113   0.261   2.890 -1.1376 -0.3261  1.5109
  197DOPC  H12B24352   3.059   0.259   2.719 -3.2047  0.7784 -0.4080
  197DOPC   C1324353   2.862   0.431   2.758  0.3618  0.0180  0.2943
  197DOPC  H13A24354   2.782   0.363   2.783 -0.2359  1.3849  2.3763
  197DOPC  H13B24355   2.827   0.533   2.755 -1.3305 -0.5224 -2.5315
  197DOPC  H13C24356   2.886   0.402   2.656 -0.8986  0.4133 -0.1397
  197DOPC   C1424357   3.079   0.505   2.821  0.2348 -0.1701 -0.6503
  197DOPC  H14A24358   3.042   0.606   2.827 -0.0596 -0.0439 -3.1842
  197DOPC  H14B24359   3.159   0.500   2.893  0.2614  1.0123 -0.5838
  197DOPC  H14C24360   3.115   0.492   2.720 -1.2094 -0.8706 -1.1091
  197DOPC   C1524361   2.925   0.411   2.984  0.8836 -0.2248 -0.4266
  197DOPC  H15A24362   2.847   0.340   3.007 -0.6003  1.5303  0.1971
  197DOPC  H15B24363   2.895   0.513   2.999  3.4829  0.5900 -0.3141
  197DOPC  H15C24364   3.008   0.391   3.051  0.3780 -0.4472  0.1423
  197DOPC   C1124365   2.931   0.143   2.844 -0.1168  0.1260  0.0945
  197DOPC  H11A24366   2.975   0.054   2.794 -0.9886  0.4956 -1.3996
  197DOPC  H11B24367   2.937   0.109   2.950  0.3329  0.9813  0.3489
  197DOPC     P24368   2.671   0.106   2.891 -0.0376  0.1711  0.1063
  197DOPC   O1324369   2.711  -0.035   2.911  0.2190 -0.0427 -0.5640
  197DOPC   O1424370   2.552   0.136   2.812  0.2733  0.0103  0.4829
  197DOPC   O1224371   2.791   0.173   2.804 -0.5169  0.6093 -0.1637
  197DOPC   O1124372   2.665   0.193   3.022 -0.3411 -0.2402  0.0007
  197DOPC    C124373   2.682   0.122   3.148 -0.1038 -0.7451  0.6020
  197DOPC    HA24374   2.705   0.201   3.223  1.2900  0.6174 -1.1596
  197DOPC    HB24375   2.768   0.052   3.152  0.0410 -0.6072  0.0588
  197DOPC    C224376   2.554   0.042   3.197 -0.8342  0.5570  0.4665
  197DOPC    HS24377   2.521  -0.024   3.114 -1.5652 -1.5594  2.3169
  197DOPC   O2124378   2.449   0.140   3.233  0.4400  0.4245 -0.5366
  197DOPC   C2124379   2.327   0.094   3.244  0.3212 -0.8491 -1.0797
  197DOPC   O2224380   2.295  -0.026   3.239 -0.3701  0.6962  0.1030
  197DOPC   C2224381   2.229   0.209   3.238  0.6848  0.0380 -1.1732
  197DOPC   H2R24382   2.233   0.263   3.141  0.5374  0.4587 -0.9438
  197DOPC   H2S24383   2.237   0.283   3.320 -0.1474  0.2733 -1.2979
  197DOPC    C324384   2.588  -0.046   3.317  0.2365 -0.5129  0.7322
  197DOPC    HX24385   2.661  -0.127   3.296  0.1886 -1.4899  3.8457
  197DOPC    HY24386   2.503  -0.105   3.357 -0.7861  0.9233  0.7492
  197DOPC   O3124387   2.649   0.029   3.424  0.3173  0.5482 -0.1998
  197DOPC   C3124388   2.574   0.064   3.529  0.4232  0.8971 -0.0074
  197DOPC   O3224389   2.452   0.048   3.535  0.4673 -0.3357  0.2523
  197DOPC   C3224390   2.662   0.126   3.636 -0.7883  0.0147 -0.3762
  197DOPC   H2X24391   2.704   0.216   3.586  0.2947 -0.7147 -0.8188
  197DOPC   H2Y24392   2.596   0.154   3.720 -1.8539  0.1375 -1.2279
  197DOPC   C2324393   2.081   0.158   3.244 -0.4608  0.5639 -0.4029
  197DOPC   H3R24394   2.077   0.054   3.205 -0.1595  0.6614 -0.6973
  197DOPC   H3S24395   2.008   0.217   3.185 -1.0055 -0.3707 -0.6973
  197DOPC   C2424396   2.025   0.155   3.389 -0.5348  0.6076  0.2369
  197DOPC   H4R24397   2.110   0.127   3.454  0.4894 -0.8015 -1.5926
  197DOPC   H4S24398   1.947   0.078   3.404  1.0017 -0.7796  1.4813
  197DOPC   C2524399   1.980   0.285   3.439  0.4326  0.5698 -0.6981
  197DOPC   H5R24400   1.876   0.320   3.418  0.4418  2.1815  1.5262
  197DOPC   H5S24401   2.050   0.358   3.393  1.9681 -0.1831  0.3792
  197DOPC   C2624402   1.979   0.294   3.597 -0.1762  0.3403  0.5176
  197DOPC   H6R24403   1.964   0.401   3.625  0.0315  0.2577  0.9417
  197DOPC   H6S24404   2.079   0.272   3.638  0.8080  1.7772 -0.9591
  197DOPC   C2724405   1.865   0.202   3.648  0.7343  0.0511 -0.0368
  197DOPC   H7R24406   1.886   0.097   3.622  2.1248 -0.1535  1.7016
  197DOPC   H7S24407   1.772   0.220   3.590  1.0723 -0.0078 -0.6066
  197DOPC   C2824408   1.836   0.211   3.798  0.2176 -0.7422 -0.0118
  197DOPC   H8R24409   1.728   0.188   3.810 -0.3864  1.8892  0.2678
  197DOPC   H8S24410   1.837   0.320   3.819 -3.7930 -0.1837 -1.8580
  197DOPC   C2924411   1.926   0.120   3.877 -0.1313  0.3612  0.0490
  197DOPC   H9R24412   2.016   0.171   3.916 -1.1410  3.1408 -1.0464
  197DOPC  C21024413   1.906  -0.014   3.893 -1.0527 -0.3397  0.0020
  197DOPC  H10R24414   1.978  -0.075   3.951 -0.2634 -1.1451 -1.7599
  197DOPC  C21124415   1.798  -0.108   3.842 -0.7121 -0.4599  0.0408
  197DOPC  H11R24416   1.843  -0.201   3.803  0.8739  0.0435  0.5870
  197DOPC  H11S24417   1.742  -0.052   3.764 -1.3636  0.9323  1.4327
  197DOPC  C21224418   1.707  -0.150   3.963  0.7129 -0.4365  0.2157
  197DOPC  H12R24419   1.626  -0.211   3.919  0.0522  1.0431 -0.7148
  197DOPC  H12S24420   1.659  -0.056   3.997  1.0427  0.1719 -0.9269
  197DOPC  C21324421   1.776  -0.223   4.086  0.5465  0.6213  0.6396
  197DOPC  H13R24422   1.853  -0.148   4.112 -0.4831  0.8561  3.4140
  197DOPC  H13S24423   1.819  -0.320   4.055 -1.9896 -0.3823 -0.0213
  197DOPC  C21424424   1.685  -0.232   4.212 -0.2106  0.3699 -0.8452
  197DOPC  H14R24425   1.754  -0.272   4.290 -1.3583  2.3233  1.3075
  197DOPC  H14S24426   1.600  -0.298   4.189 -2.8181  3.5688 -1.1659
  197DOPC  C21524427   1.640  -0.096   4.268  0.5649 -0.4219  0.3000
  197DOPC  H15R24428   1.563  -0.053   4.200  0.2617  0.8493  1.4101
  197DOPC  H15S24429   1.724  -0.024   4.278 -0.7197  1.0073  1.3359
  197DOPC  C21624430   1.584  -0.110   4.410 -0.0907  0.4288  0.0021
  197DOPC  H16R24431   1.665  -0.158   4.469  0.9822  1.5427 -0.5113
  197DOPC  H16S24432   1.492  -0.172   4.415  0.4075 -0.5259 -1.7644
  197DOPC  C21724433   1.552   0.024   4.482  0.5895 -0.7173 -0.1080
  197DOPC  H17R24434   1.469   0.075   4.428 -0.6977 -0.4415  2.0261
  197DOPC  H17S24435   1.641   0.090   4.469  0.9528 -1.4233 -1.4187
  197DOPC  C21824436   1.513   0.005   4.629  0.0805  0.2826 -1.0237
  197DOPC  H18R24437   1.415  -0.047   4.634 -0.2304  0.9442 -0.0871
  197DOPC  H18S24438   1.495   0.097   4.689  0.4120  0.6632 -1.5002
  197DOPC  H18T24439   1.578  -0.069   4.682  0.2009  0.0548 -1.4808
  197DOPC   C3324440   2.770   0.033   3.681 -0.0652 -0.2579 -0.5004
  197DOPC   H3X24441   2.826  -0.015   3.597 -1.3281 -2.0922 -0.3662
  197DOPC   H3Y24442   2.730  -0.055   3.736  1.1914 -0.5719 -0.0466
  197DOPC   C3424443   2.862   0.094   3.787 -0.1041 -0.7446 -0.4639
  197DOPC   H4X24444   2.802   0.109   3.880 -1.0594 -2.9815 -0.6479
  197DOPC   H4Y24445   2.901   0.190   3.747  0.6812 -1.3872 -1.2728
  197DOPC   C3524446   2.977   0.005   3.826 -0.3906 -0.1800  0.1140
  197DOPC   H5X24447   2.937  -0.090   3.868 -0.4768  0.3640  1.3006
  197DOPC   H5Y24448   3.024   0.066   3.906 -1.8260  0.6729  0.3529
  197DOPC   C3624449   3.088  -0.019   3.717 -0.2593 -0.1635 -0.5366
  197DOPC   H6X24450   3.137  -0.118   3.734  1.6630  0.9602  0.8153
  197DOPC   H6Y24451   3.048  -0.026   3.613 -0.2888 -1.4610 -0.4646
  197DOPC   C3724452   3.203   0.086   3.725 -0.2919 -0.2457  0.0934
  197DOPC   H7X24453   3.162   0.175   3.671 -0.0373 -1.9762 -3.2354
  197DOPC   H7Y24454   3.222   0.109   3.832 -2.2077  2.5302 -0.0502
  197DOPC   C3824455   3.336   0.049   3.670 -0.1831 -0.4615 -0.0821
  197DOPC   H8X24456   3.390  -0.016   3.743  0.3994  0.9633  0.7805
  197DOPC   H8Y24457   3.394   0.143   3.675 -0.3923 -0.2909 -0.6802
  197DOPC   C3924458   3.352   0.007   3.529  0.0695  0.5056  0.3615
  197DOPC   H9X24459   3.276  -0.062   3.490  0.0650  0.6427  0.1226
  197DOPC  C31024460   3.446   0.042   3.442 -0.0513 -0.0293 -0.2551
  197DOPC  H10X24461   3.446   0.002   3.340  1.9915  1.0569 -0.7355
  197DOPC  C31124462   3.558   0.140   3.475 -0.1000  0.3479  0.6181
  197DOPC  H11X24463   3.652   0.091   3.442 -1.6427 -3.0624  0.8697
  197DOPC  H11Y24464   3.586   0.163   3.580  3.9883  1.5037 -0.5397
  197DOPC  C31224465   3.550   0.278   3.408 -0.2174 -0.0347  0.8295
  197DOPC  H12X24466   3.529   0.253   3.302 -2.0303  0.0113  1.1391
  197DOPC  H12Y24467   3.647   0.332   3.411  0.0476 -0.4208 -0.4100
  197DOPC  C31324468   3.442   0.367   3.462 -0.3511  0.0437  0.2239
  197DOPC  H13X24469   3.341   0.344   3.421 -0.3593  1.4331 -0.5881
  197DOPC  H13Y24470   3.436   0.345   3.571 -1.3225 -1.5453 -0.1143
  197DOPC  C31424471   3.465   0.518   3.454  0.5492 -0.0542  0.6041
  197DOPC  H14X24472   3.547   0.541   3.526  1.0417 -3.3837  1.3165
  197DOPC  H14Y24473   3.497   0.559   3.357 -1.3414 -0.8031 -0.3978
  197DOPC  C31524474   3.339   0.606   3.473 -0.6077 -0.2261 -0.3040
  197DOPC  H15X24475   3.292   0.546   3.554  1.8888 -1.0178  0.6784
  197DOPC  H15Y24476   3.276   0.612   3.382 -0.1299  0.4960 -0.5969
  197DOPC  C31624477   3.381   0.748   3.514  0.7928 -0.1205 -0.1351
  197DOPC  H16X24478   3.461   0.747   3.591 -0.0126 -0.6519  0.7177
  197DOPC  H16Y24479   3.424   0.789   3.420 -0.4236 -0.9476 -1.0896
  197DOPC  C31724480   3.267   0.831   3.573  0.9348  0.4349  0.5634
  197DOPC  H17X24481   3.293   0.938   3.592 -0.6914  1.7402 -3.5217
  197DOPC  H17Y24482   3.184   0.850   3.502  2.4321 -0.8946 -1.6675
  197DOPC  C31824483   3.205   0.772   3.698 -0.5947 -0.7900 -0.2952
  197DOPC  H18X24484   3.283   0.718   3.755  0.6601  2.9710  1.8990
  197DOPC  H18Y24485   3.168   0.856   3.761 -1.0661 -3.5885  3.4989
  197DOPC  H18Z24486   3.120   0.702   3.681 -0.2096 -1.3429  0.0079
  198DOPC     N24487   6.811   6.642   1.471 -0.2745  0.1962 -0.0813
  198DOPC   C1224488   6.834   6.735   1.587 -0.1693 -0.4318 -0.7274
  198DOPC  H12A24489   6.817   6.838   1.558  2.1586  0.3024  0.2436
  198DOPC  H12B24490   6.941   6.744   1.594 -0.2410  2.2114 -1.6573
  198DOPC   C1324491   6.665   6.619   1.445 -1.0588  0.4566  0.0701
  198DOPC  H13A24492   6.627   6.567   1.531 -0.7146 -0.7170 -0.4608
  198DOPC  H13B24493   6.614   6.712   1.424  1.0624  2.0140  1.4829
  198DOPC  H13C24494   6.648   6.556   1.359  1.6308 -0.9990  0.5025
  198DOPC   C1424495   6.883   6.507   1.500 -0.8708  0.5719  0.8983
  198DOPC  H14A24496   6.826   6.450   1.572 -0.3158  1.7426  2.2975
  198DOPC  H14B24497   6.901   6.445   1.413 -1.3471  0.5115  0.8394
  198DOPC  H14C24498   6.980   6.525   1.543 -0.4211  0.9182 -0.2318
  198DOPC   C1524499   6.872   6.691   1.344 -0.7449  0.3113  0.2862
  198DOPC  H15A24500   6.822   6.778   1.304 -1.6999  0.7647  2.3218
  198DOPC  H15B24501   6.883   6.606   1.279 -1.5524 -0.5160  1.2103
  198DOPC  H15C24502   6.973   6.719   1.373 -1.0313  0.9337  0.7150
  198DOPC   C1124503   6.774   6.703   1.724 -0.9676 -0.1229  0.2497
  198DOPC  H11A24504   6.793   6.776   1.806  0.7810 -0.3741  0.1227
  198DOPC  H11B24505   6.664   6.699   1.711 -0.8913  1.1875 -1.0635
  198DOPC     P24506   6.971   6.580   1.839  0.0767 -0.0685  0.2017
  198DOPC   O1324507   7.041   6.708   1.810  0.0161  0.1890 -0.3415
  198DOPC   O1424508   7.039   6.452   1.792 -0.0317 -0.2277 -0.8125
  198DOPC   O1224509   6.827   6.577   1.770  0.4031  0.4090  0.4168
  198DOPC   O1124510   6.929   6.570   1.992  0.2362 -0.6138 -0.3030
  198DOPC    C124511   6.804   6.498   2.020  0.4446 -0.9089  0.2292
  198DOPC    HA24512   6.808   6.398   1.971  2.4036 -1.0093  0.5124
  198DOPC    HB24513   6.716   6.550   1.977 -1.3738 -5.2551 -1.9177
  198DOPC    C224514   6.778   6.496   2.170  0.2440 -0.3824 -0.0038
  198DOPC    HS24515   6.687   6.435   2.188  1.0322 -2.1129 -1.5318
  198DOPC   O2124516   6.770   6.625   2.223  0.0182  0.3810  0.1362
  198DOPC   C2124517   6.673   6.705   2.192  0.5647 -0.3057 -0.3136
  198DOPC   O2224518   6.571   6.678   2.128 -0.1155  0.2394 -0.1325
  198DOPC   C2224519   6.683   6.829   2.283  0.0195 -0.7249 -0.6032
  198DOPC   H2R24520   6.584   6.876   2.262  1.2047  2.7274  0.8097
  198DOPC   H2S24521   6.761   6.894   2.238  0.1003 -0.6835 -0.4012
  198DOPC    C324522   6.890   6.415   2.244  0.1628  0.0640 -0.1801
  198DOPC    HX24523   6.990   6.442   2.204 -0.5824  2.5253 -0.5074
  198DOPC    HY24524   6.880   6.310   2.207  1.2842  0.2173 -0.9866
  198DOPC   O3124525   6.883   6.420   2.390 -0.2830  0.3690  0.6520
  198DOPC   C3124526   6.959   6.515   2.452  0.1394 -0.2187  0.6083
  198DOPC   O3224527   7.026   6.599   2.398 -0.3228  0.2835  0.4933
  198DOPC   C3224528   6.956   6.477   2.606  0.0445 -0.3970 -0.1551
  198DOPC   H2X24529   6.885   6.392   2.617  0.4168 -1.2245 -3.2326
  198DOPC   H2Y24530   7.056   6.437   2.634  0.6804  0.4736 -1.0853
  198DOPC   C2324531   6.696   6.811   2.435  0.3177 -1.3552  0.2791
  198DOPC   H3R24532   6.786   6.749   2.458  0.8353 -0.5466  0.4671
  198DOPC   H3S24533   6.606   6.761   2.476 -0.6693 -0.0982 -0.2845
  198DOPC   C2424534   6.698   6.950   2.514 -0.1186  0.6743 -0.0966
  198DOPC   H4R24535   6.777   7.015   2.470 -0.5021  0.5097 -1.0583
  198DOPC   H4S24536   6.752   6.948   2.611  0.4539  0.1669 -0.4177
  198DOPC   C2524537   6.563   7.020   2.518  0.2280 -0.0221 -0.6832
  198DOPC   H5R24538   6.475   6.953   2.520 -1.8040  2.4659 -0.9962
  198DOPC   H5S24539   6.552   7.073   2.422 -3.4073  0.9428  0.1123
  198DOPC   C2624540   6.547   7.122   2.629 -0.4109 -0.1009 -0.2336
  198DOPC   H6R24541   6.449   7.174   2.625 -0.3037  0.4620  2.5020
  198DOPC   H6S24542   6.624   7.203   2.626 -0.7563  0.2171 -0.9882
  198DOPC   C2724543   6.564   7.066   2.772 -0.6680  0.1499  0.6069
  198DOPC   H7R24544   6.533   7.134   2.854  0.1023 -0.6863  1.6083
  198DOPC   H7S24545   6.673   7.055   2.788 -0.6273  2.5169  2.4666
  198DOPC   C2824546   6.489   6.928   2.795  0.1473  0.1745 -0.1111
  198DOPC   H8R24547   6.522   6.909   2.899  1.9158 -0.2078 -0.6904
  198DOPC   H8S24548   6.536   6.848   2.733 -0.5435  0.9294 -1.6776
  198DOPC   C2924549   6.337   6.928   2.777 -0.0618  0.4880  0.0141
  198DOPC   H9R24550   6.307   6.907   2.673  1.9364 -0.8934 -0.3346
  198DOPC  C21024551   6.246   6.948   2.879 -0.1857 -0.1831  0.4019
  198DOPC  H10R24552   6.140   6.937   2.856 -0.3401  1.2515  0.3664
  198DOPC  C21124553   6.282   6.987   3.023  0.0121  0.1255  0.6822
  198DOPC  H11R24554   6.233   7.081   3.053  0.1218  0.4595 -0.1497
  198DOPC  H11S24555   6.389   7.005   3.046  0.3312  0.3873 -0.8687
  198DOPC  C21224556   6.241   6.873   3.115 -0.5595 -0.2968  0.2583
  198DOPC  H12R24557   6.296   6.779   3.092  0.2447  0.4639 -1.0320
  198DOPC  H12S24558   6.131   6.854   3.112 -1.3541  3.5134 -0.0568
  198DOPC  C21324559   6.275   6.911   3.262 -0.3774 -0.4581  0.4069
  198DOPC  H13R24560   6.230   7.012   3.277  1.0809  0.4738 -1.1661
  198DOPC  H13S24561   6.385   6.915   3.270 -0.4492  0.4460  1.1363
  198DOPC  C21424562   6.214   6.809   3.358  0.2719  0.1856 -0.4331
  198DOPC  H14R24563   6.226   6.707   3.318  0.9229  0.4369 -0.8932
  198DOPC  H14S24564   6.106   6.831   3.373  0.8115  1.9061  1.3671
  198DOPC  C21524565   6.292   6.805   3.490  0.0584  0.4555  0.3402
  198DOPC  H15R24566   6.400   6.786   3.474  0.0131 -0.7427  1.3406
  198DOPC  H15S24567   6.253   6.726   3.558 -0.7915 -0.5390 -1.2388
  198DOPC  C21624568   6.256   6.931   3.577 -0.3031  0.8329 -0.5645
  198DOPC  H16R24569   6.149   6.943   3.604  0.0229 -0.2977  1.4023
  198DOPC  H16S24570   6.275   7.018   3.510 -3.1147  1.4072 -0.7538
  198DOPC  C21724571   6.343   6.929   3.703  0.7408 -0.9944 -0.3129
  198DOPC  H17R24572   6.444   6.967   3.675  0.3247  1.1177  0.8033
  198DOPC  H17S24573   6.350   6.826   3.745 -0.9359 -0.6446  0.9592
  198DOPC  C21824574   6.284   7.020   3.815 -0.5627  0.3487 -0.2468
  198DOPC  H18R24575   6.329   7.122   3.818 -0.7637  0.4332 -0.1217
  198DOPC  H18S24576   6.312   6.974   3.912 -0.6810 -1.9806 -1.2601
  198DOPC  H18T24577   6.173   7.013   3.815 -0.6756 -3.9731  4.6665
  198DOPC   C3324578   6.928   6.594   2.700 -0.3319  0.1669 -0.1054
  198DOPC   H3X24579   6.834   6.647   2.673  0.1493  1.4539  0.6449
  198DOPC   H3Y24580   7.011   6.666   2.683  0.4489 -0.4717  0.8814
  198DOPC   C3424581   6.916   6.543   2.842 -0.5754  0.3402 -0.3241
  198DOPC   H4X24582   7.009   6.496   2.878 -0.3325  0.0425 -1.3224
  198DOPC   H4Y24583   6.835   6.469   2.825  1.9449 -2.5762 -0.4665
  198DOPC   C3524584   6.880   6.654   2.935 -0.3710  0.3571  0.0046
  198DOPC   H5X24585   6.809   6.716   2.876 -1.5594 -0.2573  0.7527
  198DOPC   H5Y24586   6.973   6.708   2.963 -0.3075 -0.6034  1.7844
  198DOPC   C3624587   6.798   6.623   3.060  0.4127 -0.4038 -0.2080
  198DOPC   H6X24588   6.722   6.546   3.033  0.5016 -0.3758 -0.5522
  198DOPC   H6Y24589   6.869   6.565   3.121  1.3012 -1.1578 -1.8929
  198DOPC   C3724590   6.726   6.740   3.129 -0.2720 -1.0530  0.2964
  198DOPC   H7X24591   6.806   6.797   3.182 -0.4669 -0.0470 -0.4652
  198DOPC   H7Y24592   6.686   6.813   3.056  0.3842  0.1662  1.1163
  198DOPC   C3824593   6.618   6.706   3.227  0.0163  1.0295 -0.1777
  198DOPC   H8X24594   6.533   6.664   3.169 -0.0003 -0.2700  0.7505
  198DOPC   H8Y24595   6.576   6.801   3.266 -2.3634 -0.2782  0.7185
  198DOPC   C3924596   6.667   6.616   3.337 -0.0712 -0.2293 -0.4772
  198DOPC   H9X24597   6.669   6.509   3.313 -1.3067 -0.3083 -0.2960
  198DOPC  C31024598   6.699   6.646   3.466  0.1836 -0.1653  0.8534
  198DOPC  H10X24599   6.724   6.559   3.528 -0.1151 -0.2113  0.9115
  198DOPC  C31124600   6.687   6.780   3.526  0.7175 -0.0366  0.5573
  198DOPC  H11X24601   6.590   6.797   3.576  0.1794 -0.0106 -0.4802
  198DOPC  H11Y24602   6.695   6.865   3.455 -1.8743 -0.4398 -0.2971
  198DOPC  C31224603   6.796   6.797   3.640  0.6355 -0.2199 -0.1596
  198DOPC  H12X24604   6.900   6.806   3.600  0.7141 -0.0598  0.0785
  198DOPC  H12Y24605   6.801   6.709   3.708  2.1114 -0.2074 -0.2127
  198DOPC  C31324606   6.765   6.913   3.735 -0.3466  0.1400  0.2682
  198DOPC  H13X24607   6.771   7.006   3.674 -0.5661 -0.0283 -0.0137
  198DOPC  H13Y24608   6.662   6.888   3.770 -0.0965 -1.2827  0.0171
  198DOPC  C31424609   6.857   6.919   3.855  0.0478 -0.2319  0.0041
  198DOPC  H14X24610   6.860   6.828   3.918  2.2676 -1.8336 -2.2151
  198DOPC  H14Y24611   6.961   6.916   3.817  0.2669 -0.1473  0.5911
  198DOPC  C31524612   6.823   7.028   3.955 -0.2471 -0.6359 -0.6978
  198DOPC  H15X24613   6.716   7.013   3.982 -0.2949 -0.7304 -0.9464
  198DOPC  H15Y24614   6.830   7.127   3.907  1.0588  0.8466  2.2555
  198DOPC  C31624615   6.912   7.032   4.085 -0.3020  0.1430  0.8292
  198DOPC  H16X24616   6.883   7.108   4.161  0.1978  1.5913 -0.3762
  198DOPC  H16Y24617   6.889   6.937   4.136 -0.4566 -0.1472  0.2293
  198DOPC  C31724618   7.064   7.057   4.061 -0.3493  0.0414 -0.1487
  198DOPC  H17X24619   7.109   6.997   3.979 -0.2205  0.2653 -0.2449
  198DOPC  H17Y24620   7.075   7.159   4.018 -2.1228 -0.4459 -1.8778
  198DOPC  C31824621   7.150   7.027   4.196 -0.4849 -0.7044 -0.1357
  198DOPC  H18X24622   7.107   7.091   4.276  0.7066 -0.4243  0.2909
  198DOPC  H18Y24623   7.139   6.918   4.213 -0.4129 -0.7086 -0.1175
  198DOPC  H18Z24624   7.259   7.042   4.186 -0.0071 -0.7878  3.4636
  199DOPC     N24625   6.669   1.559   1.591 -0.3967 -0.5530 -0.5136
  199DOPC   C1224626   6.542   1.596   1.678  0.0015 -0.0511  0.0020
  199DOPC  H12A24627   6.477   1.510   1.666 -1.5565  0.5864  2.9672
  199DOPC  H12B24628   6.487   1.680   1.639  0.3046  0.3319  0.3933
  199DOPC   C1324629   6.710   1.418   1.607 -0.5860 -0.0398  0.4994
  199DOPC  H13A24630   6.774   1.388   1.525 -0.8448 -1.2071  0.7159
  199DOPC  H13B24631   6.770   1.402   1.695 -2.3731 -0.3434  1.7150
  199DOPC  H13C24632   6.620   1.359   1.616 -1.1510  0.9856  1.8779
  199DOPC   C1424633   6.777   1.653   1.633 -0.0475 -0.1394 -0.3449
  199DOPC  H14A24634   6.742   1.755   1.626  0.5022  0.0140 -0.9542
  199DOPC  H14B24635   6.795   1.633   1.738  0.5809 -0.7759 -0.5622
  199DOPC  H14C24636   6.863   1.632   1.570 -0.8175  0.3453 -1.5910
  199DOPC   C1524637   6.646   1.601   1.453  0.6309  0.2307  1.2036
  199DOPC  H15A24638   6.572   1.538   1.406  0.9564  0.3413  0.5218
  199DOPC  H15B24639   6.732   1.591   1.388  0.4849 -0.1966  1.0765
  199DOPC  H15C24640   6.619   1.705   1.442  0.2265  0.1631  1.5490
  199DOPC   C1124641   6.552   1.608   1.831  0.4174  0.6671  0.8181
  199DOPC  H11A24642   6.592   1.709   1.857 -0.8385  1.2100  0.7636
  199DOPC  H11B24643   6.445   1.600   1.860  0.1121 -1.2355 -0.6964
  199DOPC     P24644   6.575   1.370   1.920 -0.2429  0.2121  0.0130
  199DOPC   O1324645   6.684   1.285   1.977  0.4483  0.0355  0.5290
  199DOPC   O1424646   6.506   1.318   1.800  0.3110  1.0544 -0.4082
  199DOPC   O1224647   6.635   1.511   1.890  0.1648  0.4122  0.0039
  199DOPC   O1124648   6.466   1.401   2.026  0.6266 -0.0821  0.5548
  199DOPC    C124649   6.340   1.333   2.040 -0.0266  0.4787  0.3404
  199DOPC    HA24650   6.312   1.262   1.959  0.1184 -0.2113  0.8818
  199DOPC    HB24651   6.259   1.409   2.044  0.1127  0.7734 -1.5968
  199DOPC    C224652   6.334   1.252   2.173  0.3333  0.1903 -0.2952
  199DOPC    HS24653   6.251   1.178   2.171  0.2058  0.0966  3.0375
  199DOPC   O2124654   6.311   1.339   2.287 -0.0607 -0.3859 -0.4469
  199DOPC   C2124655   6.195   1.371   2.317 -0.5695 -0.3134  0.2005
  199DOPC   O2224656   6.095   1.330   2.260  0.0805 -0.9542  0.1600
  199DOPC   C2224657   6.189   1.461   2.438 -0.5574  0.1238  0.0592
  199DOPC   H2R24658   6.083   1.455   2.472 -0.4421  0.4042  0.4694
  199DOPC   H2S24659   6.221   1.563   2.407 -1.1676  0.1427 -0.5173
  199DOPC    C324660   6.468   1.172   2.195 -0.2586  0.4785 -0.1338
  199DOPC    HX24661   6.557   1.239   2.202 -1.0291  1.6052 -0.6722
  199DOPC    HY24662   6.482   1.117   2.100  0.5786  1.1553 -0.4237
  199DOPC   O3124663   6.453   1.075   2.299 -0.0033  0.2300  0.4177
  199DOPC   C3124664   6.511   1.115   2.419 -0.2182 -0.3493 -0.5391
  199DOPC   O3224665   6.593   1.206   2.435  0.2054  0.1325  0.0882
  199DOPC   C3224666   6.467   1.022   2.528  0.1287  0.0756 -0.1063
  199DOPC   H2X24667   6.358   1.007   2.545  0.3837 -0.9473  0.7061
  199DOPC   H2Y24668   6.494   0.922   2.490 -2.4616 -0.2413 -1.3695
  199DOPC   C2324669   6.273   1.393   2.552 -0.8023  0.0182  0.2487
  199DOPC   H3R24670   6.380   1.401   2.525 -0.3084  1.4311  2.3509
  199DOPC   H3S24671   6.238   1.290   2.573 -2.1703  0.5385  0.6742
  199DOPC   C2424672   6.260   1.483   2.681  0.0321  0.2800  0.4342
  199DOPC   H4R24673   6.154   1.509   2.701 -0.2035  1.9604 -2.5466
  199DOPC   H4S24674   6.307   1.576   2.644  1.5735 -0.5628  0.1692
  199DOPC   C2524675   6.350   1.429   2.789  0.4822  0.3046 -0.3230
  199DOPC   H5R24676   6.450   1.404   2.746  0.6880 -0.4909  0.5634
  199DOPC   H5S24677   6.307   1.332   2.822 -0.9104  0.8746 -0.4318
  199DOPC   C2624678   6.363   1.513   2.912 -0.2273  0.2832 -0.3572
  199DOPC   H6R24679   6.270   1.549   2.960 -1.1557 -1.7463 -0.5231
  199DOPC   H6S24680   6.412   1.606   2.877  0.8186  0.6507  1.9032
  199DOPC   C2724681   6.453   1.448   3.016 -0.1971  0.0987  0.6406
  199DOPC   H7R24682   6.552   1.427   2.971 -0.8753 -2.6183  0.2201
  199DOPC   H7S24683   6.404   1.351   3.042 -0.8298  0.0895 -0.5060
  199DOPC   C2824684   6.481   1.533   3.141  0.3818  1.0302  0.6596
  199DOPC   H8R24685   6.400   1.512   3.214  1.4643 -2.1298  1.1314
  199DOPC   H8S24686   6.493   1.640   3.114 -0.6358  1.2103  0.8529
  199DOPC   C2924687   6.608   1.506   3.219 -0.8483  0.0052 -0.0508
  199DOPC   H9R24688   6.691   1.560   3.171 -0.8397 -0.1589 -0.2172
  199DOPC  C21024689   6.633   1.440   3.338 -0.8238  0.9170 -0.2326
  199DOPC  H10R24690   6.728   1.459   3.390 -1.4920 -0.0642  1.4341
  199DOPC  C21124691   6.530   1.370   3.435 -0.2151 -0.0596  0.3776
  199DOPC  H11R24692   6.563   1.264   3.447  2.4486  0.6018 -0.4516
  199DOPC  H11S24693   6.429   1.377   3.389  1.2897  0.4920 -3.1219
  199DOPC  C21224694   6.536   1.436   3.579  0.3395  0.5685 -0.2261
  199DOPC  H12R24695   6.498   1.540   3.572 -0.2413  0.7363  3.5618
  199DOPC  H12S24696   6.638   1.453   3.619  0.5567  1.4815 -1.1295
  199DOPC  C21324697   6.454   1.353   3.677  0.3877  0.2294 -0.3202
  199DOPC  H13R24698   6.499   1.252   3.664  1.8914  0.7544  0.5324
  199DOPC  H13S24699   6.350   1.344   3.638  0.6377 -2.4147 -0.5929
  199DOPC  C21424700   6.461   1.413   3.823  0.0898 -0.7891  0.3664
  199DOPC  H14R24701   6.567   1.432   3.851 -0.4128  1.1716  1.1366
  199DOPC  H14S24702   6.420   1.328   3.883 -0.0275 -0.1052  1.2874
  199DOPC  C21524703   6.375   1.538   3.835 -0.0261 -0.5850 -0.4590
  199DOPC  H15R24704   6.268   1.511   3.824  0.1346 -1.4796  0.1079
  199DOPC  H15S24705   6.416   1.621   3.772  1.0210 -1.2229 -0.6429
  199DOPC  C21624706   6.394   1.600   3.979  0.3337  0.5765 -0.5791
  199DOPC  H16R24707   6.498   1.628   4.008 -0.3468 -0.5804  3.4901
  199DOPC  H16S24708   6.359   1.533   4.060  0.3623  2.1147  0.7597
  199DOPC  C21724709   6.305   1.720   4.012  0.1720 -0.0794 -0.0668
  199DOPC  H17R24710   6.197   1.694   4.014 -0.2533  1.5812 -0.0312
  199DOPC  H17S24711   6.311   1.793   3.929  0.7675  0.5392  0.5028
  199DOPC  C21824712   6.341   1.779   4.148 -0.2983  0.6996 -0.3957
  199DOPC  H18R24713   6.325   1.708   4.232  0.6036  0.9885  0.0285
  199DOPC  H18S24714   6.282   1.871   4.169 -1.2662 -0.0582  0.2603
  199DOPC  H18T24715   6.450   1.803   4.155  0.2597 -1.7237 -0.0654
  199DOPC   C3324716   6.536   1.053   2.658 -0.1435 -0.1304  0.3018
  199DOPC   H3X24717   6.464   1.120   2.711 -0.1407  0.0096  0.1289
  199DOPC   H3Y24718   6.632   1.107   2.652 -0.1196 -0.2800 -0.8201
  199DOPC   C3424719   6.552   0.928   2.754  0.4223 -0.1165  0.2306
  199DOPC   H4X24720   6.620   0.867   2.691 -0.3891 -1.1563  0.3384
  199DOPC   H4Y24721   6.455   0.876   2.764  0.2952  0.0650 -0.0557
  199DOPC   C3524722   6.605   0.969   2.895 -0.2193  0.0131 -0.1074
  199DOPC   H5X24723   6.521   0.981   2.967 -2.0535  0.4710 -2.1754
  199DOPC   H5Y24724   6.669   1.059   2.888  0.3572 -0.3654  0.2419
  199DOPC   C3624725   6.689   0.860   2.959 -0.1055  0.3238 -0.2416
  199DOPC   H6X24726   6.617   0.783   2.993  0.8305 -0.4637  0.0000
  199DOPC   H6Y24727   6.771   0.828   2.891  0.5996  0.8456  0.3328
  199DOPC   C3724728   6.768   0.904   3.091  0.1758  0.5255 -0.6204
  199DOPC   H7X24729   6.832   0.822   3.130  0.1583  0.8766  0.1809
  199DOPC   H7Y24730   6.839   0.984   3.061  0.5503 -0.4474 -2.4498
  199DOPC   C3824731   6.685   0.959   3.208 -0.2429  0.0300 -0.2538
  199DOPC   H8X24732   6.631   1.056   3.205 -0.8552 -0.3373 -1.2318
  199DOPC   H8Y24733   6.767   0.984   3.279 -1.0830  1.0241  0.4013
  199DOPC   C3924734   6.587   0.863   3.259  0.4877  0.8960 -0.1031
  199DOPC   H9X24735   6.518   0.826   3.182  0.6002 -0.3883  0.3861
  199DOPC  C31024736   6.591   0.812   3.384  0.1197 -0.5065 -0.4316
  199DOPC  H10X24737   6.514   0.746   3.426  0.6615 -0.7684  0.1838
  199DOPC  C31124738   6.688   0.845   3.498  0.2963  0.3822  0.0084
  199DOPC  H11X24739   6.789   0.858   3.454  0.0374 -0.9817 -1.0332
  199DOPC  H11Y24740   6.686   0.751   3.557 -3.9075 -0.6586 -1.4248
  199DOPC  C31224741   6.636   0.972   3.574  0.9719 -0.6405  0.1690
  199DOPC  H12X24742   6.539   0.951   3.625  0.5941 -1.1134 -0.7241
  199DOPC  H12Y24743   6.617   1.054   3.502 -0.2361 -0.0259  1.1400
  199DOPC  C31324744   6.726   1.026   3.682  0.1920 -0.6137 -0.0749
  199DOPC  H13X24745   6.835   1.018   3.664 -0.1414 -1.4977 -1.8886
  199DOPC  H13Y24746   6.702   1.134   3.687 -1.7286 -1.0385  0.8372
  199DOPC  C31424747   6.703   0.973   3.828  0.4091  0.0880  0.0929
  199DOPC  H14X24748   6.599   0.981   3.866  0.0249 -1.2464 -0.6129
  199DOPC  H14Y24749   6.728   0.866   3.810  2.9569  0.5439  0.4992
  199DOPC  C31524750   6.807   1.031   3.926 -0.5028  0.2346  0.3814
  199DOPC  H15X24751   6.793   1.141   3.933  0.6478  0.6073 -2.0746
  199DOPC  H15Y24752   6.909   1.017   3.886  0.0846  0.4377  1.7497
  199DOPC  C31624753   6.793   0.982   4.071 -0.4411  0.0638 -0.3951
  199DOPC  H16X24754   6.781   0.872   4.070 -1.6545  0.1155  1.7841
  199DOPC  H16Y24755   6.880   1.004   4.138  0.8062 -1.0011 -1.6121
  199DOPC  C31724756   6.670   1.033   4.142 -0.8973  0.2260  0.1498
  199DOPC  H17X24757   6.581   1.007   4.080  0.9551 -1.9207 -1.7561
  199DOPC  H17Y24758   6.662   0.976   4.237 -0.8323  1.2556  0.7987
  199DOPC  C31824759   6.681   1.181   4.172 -0.4475  0.1907 -0.6151
  199DOPC  H18X24760   6.601   1.214   4.242  1.9192  0.4045  2.1958
  199DOPC  H18Y24761   6.778   1.197   4.223 -1.4353  0.1134  1.3993
  199DOPC  H18Z24762   6.684   1.245   4.081  1.8880  0.2370 -0.5477
  200DOPC     N24763   0.859   0.450   2.178  0.0985  0.5024 -0.4742
  200DOPC   C1224764   0.866   0.400   2.329 -0.3060 -0.2669 -0.4393
  200DOPC  H12A24765   0.954   0.338   2.338  1.1472  1.3035 -2.7314
  200DOPC  H12B24766   0.783   0.334   2.351 -0.1924 -0.2059  0.2030
  200DOPC   C1324767   0.753   0.552   2.164 -0.3445  0.3570  0.1268
  200DOPC  H13A24768   0.775   0.639   2.224 -1.2689 -0.1981  1.3087
  200DOPC  H13B24769   0.723   0.582   2.065 -1.1658  2.3362  0.9201
  200DOPC  H13C24770   0.656   0.523   2.202  0.0403  1.7484  2.3569
  200DOPC   C1424771   0.828   0.333   2.091 -0.1400 -0.0445  0.3951
  200DOPC  H14A24772   0.837   0.359   1.987 -2.0561 -0.5469  0.0603
  200DOPC  H14B24773   0.899   0.255   2.115 -0.6466 -0.5551  0.2655
  200DOPC  H14C24774   0.732   0.287   2.109 -0.5158  1.1815  1.7466
  200DOPC   C1524775   0.976   0.528   2.134 -0.5965 -0.1157 -0.3874
  200DOPC  H15A24776   1.011   0.597   2.209  1.5770 -2.5195  0.9856
  200DOPC  H15B24777   0.963   0.578   2.039 -1.4117 -2.4137 -1.5487
  200DOPC  H15C24778   1.055   0.457   2.113  0.5387 -0.0728  3.1573
  200DOPC   C1124779   0.860   0.502   2.452 -0.5365 -0.3689  0.1219
  200DOPC  H11A24780   0.908   0.438   2.530  2.0567  0.5734 -0.5880
  200DOPC  H11B24781   0.938   0.581   2.454  1.1023 -1.8951 -0.3793
  200DOPC     P24782   0.621   0.470   2.544 -0.0921 -0.0771  0.2211
  200DOPC   O1324783   0.615   0.333   2.484  0.6065  0.0388 -0.2190
  200DOPC   O1424784   0.501   0.547   2.531 -0.6222 -0.0235 -0.0675
  200DOPC   O1224785   0.731   0.554   2.478 -0.7649  0.2439 -0.1334
  200DOPC   O1124786   0.664   0.461   2.694  0.1083  0.5566 -0.1260
  200DOPC    C124787   0.703   0.576   2.772  0.4295  0.2428  0.3082
  200DOPC    HA24788   0.676   0.671   2.720 -0.4876  0.8173  1.7507
  200DOPC    HB24789   0.810   0.571   2.802  0.5067  0.1126  0.0073
  200DOPC    C224790   0.623   0.582   2.906 -0.7468  0.8706 -0.5640
  200DOPC    HS24791   0.673   0.655   2.973 -0.0724 -2.5990  3.0829
  200DOPC   O2124792   0.631   0.452   2.967  0.0903 -0.2307 -0.3923
  200DOPC   C2124793   0.647   0.451   3.097  0.2162  0.1563 -0.4042
  200DOPC   O2224794   0.654   0.547   3.171 -0.3260  0.1133  0.4457
  200DOPC   C2224795   0.653   0.304   3.138 -0.3045  0.7873  0.5415
  200DOPC   H2R24796   0.749   0.287   3.193  1.0282  0.4209 -1.7834
  200DOPC   H2S24797   0.657   0.245   3.044  0.2233  0.7302  0.5932
  200DOPC    C324798   0.478   0.619   2.885  0.2346 -0.1110 -0.1065
  200DOPC    HX24799   0.431   0.557   2.806  0.1369 -0.5915  0.3200
  200DOPC    HY24800   0.472   0.720   2.840 -2.2496  0.2451  0.8535
  200DOPC   O3124801   0.405   0.621   3.014  0.8857  0.0148  0.6975
  200DOPC   C3124802   0.419   0.732   3.081 -0.1114  0.4337 -0.4079
  200DOPC   O3224803   0.493   0.825   3.045  0.2427 -0.0453 -0.2816
  200DOPC   C3224804   0.346   0.719   3.217 -0.0417 -0.6374  0.1797
  200DOPC   H2X24805   0.238   0.718   3.193  0.4483 -1.0476 -2.1957
  200DOPC   H2Y24806   0.372   0.621   3.263 -2.2275 -1.0597  0.6237
  200DOPC   C2324807   0.528   0.267   3.223  1.2164  0.5436  0.3877
  200DOPC   H3R24808   0.525   0.156   3.220  0.0310  0.5643  0.1304
  200DOPC   H3S24809   0.440   0.306   3.167  1.3241  0.9178  0.4762
  200DOPC   C2424810   0.534   0.307   3.366  0.6326 -0.1869  0.4142
  200DOPC   H4R24811   0.433   0.292   3.411  0.4448 -2.4259 -0.6270
  200DOPC   H4S24812   0.565   0.413   3.372 -1.4494  0.5508 -0.9034
  200DOPC   C2524813   0.632   0.224   3.453  0.0102 -0.4568 -0.2170
  200DOPC   H5R24814   0.732   0.220   3.404 -0.3781 -1.2935 -0.9672
  200DOPC   H5S24815   0.595   0.119   3.449  0.3867 -0.6424  0.7722
  200DOPC   C2624816   0.628   0.275   3.598  0.1903  0.0394  0.3573
  200DOPC   H6R24817   0.526   0.314   3.620 -1.2942 -2.3832 -1.7220
  200DOPC   H6S24818   0.692   0.365   3.585 -2.7652  2.3564  0.8333
  200DOPC   C2724819   0.699   0.183   3.705 -0.2121  0.6423 -0.0942
  200DOPC   H7R24820   0.785   0.133   3.657  0.6438  0.1120  1.8965
  200DOPC   H7S24821   0.627   0.105   3.738  1.5301 -1.3074 -0.7514
  200DOPC   C2824822   0.734   0.241   3.839  0.0530 -0.3492 -0.7743
  200DOPC   H8R24823   0.648   0.284   3.896 -1.3440 -4.1450  0.2726
  200DOPC   H8S24824   0.812   0.319   3.821 -0.8193  0.3356 -1.7160
  200DOPC   C2924825   0.788   0.129   3.935 -0.3901  0.1762  0.8552
  200DOPC   H9R24826   0.816   0.029   3.900  0.1418  0.4761  0.4058
  200DOPC  C21024827   0.817   0.149   4.060 -0.4879 -0.1206  0.7302
  200DOPC  H10R24828   0.865   0.067   4.114  0.8191 -0.2248 -0.5110
  200DOPC  C21124829   0.809   0.281   4.131  0.1051 -0.2978 -0.2171
  200DOPC  H11R24830   0.808   0.367   4.061  3.0097  0.0889  0.0865
  200DOPC  H11S24831   0.903   0.287   4.190 -0.8374  0.2104  1.3058
  200DOPC  C21224832   0.688   0.281   4.237  0.0048 -0.0002  0.1121
  200DOPC  H12R24833   0.606   0.286   4.162 -1.5175  0.9374  1.7698
  200DOPC  H12S24834   0.680   0.383   4.280 -1.4891 -0.0703  0.0442
  200DOPC  C21324835   0.670   0.169   4.338  0.0157  0.5441 -0.2891
  200DOPC  H13R24836   0.758   0.164   4.406 -0.3217 -2.2899  0.0545
  200DOPC  H13S24837   0.672   0.067   4.294  2.0565  0.6230 -0.4792
  200DOPC  C21424838   0.538   0.188   4.412  0.4867  0.7284 -0.2610
  200DOPC  H14R24839   0.468   0.225   4.334  0.4396  2.4497  0.5705
  200DOPC  H14S24840   0.551   0.273   4.482  1.6624 -1.1000  1.8723
  200DOPC  C21524841   0.494   0.068   4.493  0.3618  0.2787 -0.0310
  200DOPC  H15R24842   0.463  -0.003   4.414  2.9339  0.0748 -0.9534
  200DOPC  H15S24843   0.406   0.085   4.558  0.3205  2.6493 -0.6161
  200DOPC  C21624844   0.610  -0.004   4.569 -1.0275 -0.8409 -0.0878
  200DOPC  H16R24845   0.684  -0.048   4.499  0.8519 -1.1369  1.9975
  200DOPC  H16S24846   0.556  -0.093   4.608 -0.9988 -1.9425 -2.3965
  200DOPC  C21724847   0.689   0.089   4.670  0.2495  0.6058 -0.4714
  200DOPC  H17R24848   0.714   0.192   4.638  0.8280  0.7867  0.5207
  200DOPC  H17S24849   0.789   0.041   4.673  0.3440  0.7401 -1.2841
  200DOPC  C21824850   0.618   0.107   4.805 -0.1843 -0.1999 -0.2814
  200DOPC  H18R24851   0.538   0.183   4.792  0.9262  0.9085 -0.9238
  200DOPC  H18S24852   0.685   0.149   4.884  0.4133 -2.0961  0.2665
  200DOPC  H18T24853   0.576   0.012   4.844  0.3501 -0.2768  0.1258
  200DOPC   C3324854   0.374   0.829   3.318 -0.1409 -0.2310  0.1600
  200DOPC   H3X24855   0.344   0.923   3.268 -0.1748 -1.2669 -1.8473
  200DOPC   H3Y24856   0.483   0.821   3.338  0.0944 -0.4918 -1.1142
  200DOPC   C3424857   0.289   0.814   3.453  0.3689 -0.4082 -0.3613
  200DOPC   H4X24858   0.186   0.786   3.422  0.4821 -0.6339 -0.5348
  200DOPC   H4Y24859   0.305   0.910   3.506  0.3540 -0.3525 -0.4584
  200DOPC   C3524860   0.347   0.711   3.546 -0.2046  0.0829  0.1788
  200DOPC   H5X24861   0.454   0.736   3.559  0.3110 -1.9203  0.1167
  200DOPC   H5Y24862   0.346   0.609   3.501 -0.1138  0.5160 -0.8063
  200DOPC   C3624863   0.292   0.722   3.691  0.0423  0.2982  0.6186
  200DOPC   H6X24864   0.296   0.825   3.733 -0.0842  1.0383 -1.0729
  200DOPC   H6Y24865   0.183   0.701   3.705  0.6526 -2.4472  1.8729
  200DOPC   C3724866   0.367   0.639   3.794  0.0649 -0.1516  0.3904
  200DOPC   H7X24867   0.336   0.534   3.782  0.1515 -0.3295  1.5407
  200DOPC   H7Y24868   0.477   0.651   3.782  0.1537 -0.5555  0.7662
  200DOPC   C3824869   0.342   0.678   3.939 -0.0684 -0.0576  0.7303
  200DOPC   H8X24870   0.232   0.690   3.937 -0.3878 -2.2809 -2.1371
  200DOPC   H8Y24871   0.395   0.774   3.958  0.8567 -0.8975  2.6112
  200DOPC   C3924872   0.387   0.581   4.041 -0.1838 -0.0182 -0.4124
  200DOPC   H9X24873   0.475   0.526   4.006 -1.0785 -2.4010  0.8678
  200DOPC  C31024874   0.333   0.559   4.158  0.6297  0.5781 -0.1765
  200DOPC  H10X24875   0.356   0.461   4.201 -1.9706  0.3304  0.8386
  200DOPC  C31124876   0.208   0.622   4.215 -0.1545  0.4260 -0.8831
  200DOPC  H11X24877   0.159   0.546   4.279  1.7112 -0.8770 -0.9100
  200DOPC  H11Y24878   0.131   0.651   4.140 -1.2131  0.8336  0.3353
  200DOPC  C31224879   0.245   0.737   4.315  0.4759 -0.2817  0.5615
  200DOPC  H12X24880   0.160   0.808   4.330 -1.8632 -3.0833  1.5475
  200DOPC  H12Y24881   0.320   0.801   4.264  1.1251 -0.5920  1.1257
  200DOPC  C31324882   0.295   0.692   4.457  0.1115 -0.3459  0.0756
  200DOPC  H13X24883   0.370   0.610   4.466 -0.1434 -0.3569  3.3269
  200DOPC  H13Y24884   0.342   0.771   4.518  1.4977 -2.5397  2.0299
  200DOPC  C31424885   0.180   0.646   4.553  0.4508  0.0753  0.3793
  200DOPC  H14X24886   0.103   0.725   4.540 -0.4949 -1.2561 -4.2900
  200DOPC  H14Y24887   0.144   0.557   4.497  1.0217 -0.4100  0.7785
  200DOPC  C31524888   0.218   0.605   4.695 -0.5526  0.1889 -0.1527
  200DOPC  H15X24889   0.126   0.629   4.752 -0.5599 -0.5545  0.1688
  200DOPC  H15Y24890   0.304   0.655   4.745  1.5486 -2.5672 -0.7623
  200DOPC  C31624891   0.266   0.455   4.706 -1.0525  0.0199 -0.1281
  200DOPC  H16X24892   0.182   0.390   4.674 -1.4577  0.1082  0.7357
  200DOPC  H16Y24893   0.350   0.436   4.636 -0.2440 -0.3738  0.9193
  200DOPC  C31724894   0.307   0.409   4.845  0.0742 -0.7177 -0.3835
  200DOPC  H17X24895   0.415   0.428   4.866 -0.3868  1.4626  0.2127
  200DOPC  H17Y24896   0.247   0.466   4.918 -1.2052 -1.9934 -0.4023
  200DOPC  C31824897   0.274   0.263   4.865 -0.1894  0.5455  0.5293
  200DOPC  H18X24898   0.333   0.210   4.787 -0.0120 -0.6544  1.4527
  200DOPC  H18Y24899   0.316   0.225   4.961 -0.9112 -0.8640  0.3250
  200DOPC  H18Z24900   0.167   0.237   4.851 -0.1256  0.0523  0.9219
  201SOD    SOD24901   6.805   5.942   1.603  0.0209  0.3638 -0.1443
  202SOD    SOD24902   0.583   5.314   2.066 -0.3214  0.4017 -0.4536
  203SOD    SOD24903   5.266   1.353   9.317  0.1550 -0.2319 -0.6348
  204SOD    SOD24904   2.891   4.152   7.310  0.7009  0.0421 -0.3070
  205SOD    SOD24905   3.615   0.775   9.222  0.0416 -0.3118 -0.3235
  206SOD    SOD24906   6.706   7.403   8.294  0.1792  0.1949 -0.0444
  207SOD    SOD24907   1.436   3.888   1.219 -0.0732 -0.0335 -0.6785
  208SOD    SOD24908   7.418   4.759   1.081  0.4138 -0.2363 -0.4815
  209SOD    SOD24909   3.051   5.075   9.309  1.0099  0.1530  0.1744
  210SOD    SOD24910   7.154   0.139   1.508  0.1312  0.2468 -0.2394
  211SOD    SOD24911   4.710   0.639   0.469  0.3752  0.6041  0.1376
  212SOD    SOD24912   4.503   6.067   1.513 -0.1310 -0.2280  0.2642
  213SOD    SOD24913   5.436   2.487   9.391 -0.1344 -0.3073  0.3535
  214SOD    SOD24914   2.518   5.825   0.338 -0.0700 -0.6663  0.0591
  215SOD    SOD24915   4.836   0.973   7.800  0.1161 -0.2174 -0.3252
  216SOD    SOD24916   4.811   3.102   8.143  0.9116 -0.3771 -0.0926
  217SOD    SOD24917   4.102   4.959   0.976 -0.1934 -0.1596 -0.1474
  218SOD    SOD24918   1.601   4.908   2.419  0.1437 -0.4964  0.4928
  219SOD    SOD24919   3.760   0.050   8.725  0.1974  0.2292  0.1672
  220SOD    SOD24920   5.953   6.325   8.319 -0.2467  0.7022  0.3260
  221SOD    SOD24921   5.700   4.812   8.604  0.1612 -0.1108  0.2717
  222SOD    SOD24922   6.821   3.818   9.400  0.5123  0.0932 -0.5357
  223SOD    SOD24923   1.458   7.284   7.108  0.1792 -0.7341 -0.2781
  224SOD    SOD24924   1.491   4.218   2.301  0.3962  0.2203  0.0717
  225SOD    SOD24925   4.189   4.772   8.943 -0.3190 -0.2919 -0.1401
  226SOD    SOD24926   4.508   0.147   8.406  0.0782  0.0146  0.6109
  227CLA    CLA24927   4.240   2.152   0.185 -0.2706  0.2659 -0.0842
  228CLA    CLA24928   4.293   4.724   8.702 -0.4873  0.0845  0.0763
  229CLA    CLA24929   3.136   6.908   8.082 -0.1826 -0.6009  0.1656
  230CLA    CLA24930   1.146   5.478   1.760 -0.2313 -0.5028 -0.0435
  231CLA    CLA24931   1.283   0.563   9.678 -0.2620 -0.2268 -0.0290
  232CLA    CLA24932   3.133   6.160   0.236 -0.1651 -0.4878 -0.4334
  233CLA    CLA24933   0.414   6.051   1.100 -0.1177 -0.1051 -0.1558
  234CLA    CLA24934   7.071   2.605   0.132 -0.3685  0.3860  0.0630
  235CLA    CLA24935   7.077   7.069   0.541 -0.1553 -0.2092 -0.0519
  236CLA    CLA24936   1.370   1.061   9.705 -0.1809 -0.0555  0.0121
  237CLA    CLA24937   5.208   7.241   9.424  0.5245  0.1685  0.1678
  238CLA    CLA24938   3.411   0.316   8.197  0.3797  0.0020  0.7608
  239CLA    CLA24939   7.100   5.192   8.700 -0.2371 -0.0697 -0.1238
  240CLA    CLA24940   5.893   5.652   9.127 -0.0124 -0.2932 -0.3490
  241CLA    CLA24941   4.496   0.342   7.953  0.5112  0.0114  0.4296
  242CLA    CLA24942   3.669   1.519   1.816 -0.1420 -0.0879 -0.0114
  243CLA    CLA24943   5.218   2.418   8.793  0.1523 -0.4046  0.1039
  244CLA    CLA24944   4.672   6.123   8.962 -0.1759 -0.0393  0.5019
  245CLA    CLA24945   5.685   1.876   9.385 -0.1530 -0.4784 -0.0398
  246CLA    CLA24946   6.258   7.407   0.185  0.1025 -0.0406  0.0766
  247CLA    CLA24947   2.435   0.744   8.190  0.0725 -0.1108  0.2366
  248CLA    CLA24948   4.708   4.048   1.469  0.9022 -0.1093  0.0228
  249CLA    CLA24949   5.172   5.158   8.754  0.0261  0.0127  0.1973
  250CLA    CLA24950   5.315   6.432   8.446  0.2491 -0.2251 -0.0143
  251CLA    CLA24951   7.280   4.248   1.062  0.3260 -0.2138  0.2204
  252CLA    CLA24952   3.631   1.759   0.709  0.2406 -0.0837 -0.2053
  253TIP3   OH224953   1.425   5.688   0.351  0.5510  0.1101 -0.2437
  253TIP3    H124954   1.371   5.715   0.277  1.2076  0.9392 -0.4397
  253TIP3    H224955   1.364   5.680   0.424  0.0303  0.1304 -0.6704
  254TIP3   OH224956   4.283   4.381   9.469 -0.3908 -0.4034  0.1894
  254TIP3    H124957   4.331   4.391   9.551  0.9240  0.1136 -0.6152
  254TIP3    H224958   4.275   4.286   9.457  0.8723 -0.5098  0.0986
  255TIP3   OH224959   5.731   3.289   0.243 -0.5916  0.4995 -0.1851
  255TIP3    H124960   5.727   3.369   0.189 -1.8500  0.6934  0.1622
  255TIP3    H224961   5.723   3.321   0.333 -0.3274  0.0297  0.0063
  256TIP3   OH224962   5.503   1.869   1.157  0.4365 -0.1995 -0.0484
  256TIP3    H124963   5.433   1.809   1.131  2.1633 -2.1757 -0.4019
  256TIP3    H224964   5.491   1.881   1.251 -0.9477  0.3287 -0.2677
  257TIP3   OH224965   2.795   2.446   0.921 -0.6927 -0.1940  0.1911
  257TIP3    H124966   2.759   2.509   0.858  1.6401 -0.4205 -1.5405
  257TIP3    H224967   2.761   2.361   0.892 -1.7732 -0.0209  0.9264
  258TIP3   OH224968   3.214   5.698   7.483 -0.8361  0.2984 -0.2130
  258TIP3    H124969   3.255   5.697   7.397 -0.4281 -1.3619 -0.0375
  258TIP3    H224970   3.123   5.675   7.467 -0.6867 -0.3379 -0.1912
  259TIP3   OH224971   6.262   3.816   9.195 -0.0580 -0.2812  0.0491
  259TIP3    H124972   6.185   3.870   9.179  0.9642  1.5297  0.9626
  259TIP3    H224973   6.228   3.734   9.228 -1.6359  0.0667 -0.6423
  260TIP3   OH224974   0.209   2.657   0.616  0.3826  0.5281 -0.4426
  260TIP3    H124975   0.165   2.572   0.614  1.3468  0.0189 -1.5583
  260TIP3    H224976   0.138   2.721   0.619 -0.4505 -0.2664 -1.9328
  261TIP3   OH224977   3.938   2.555   7.977  0.0623  0.1570 -0.2100
  261TIP3    H124978   3.928   2.463   7.952  2.2552  0.1428 -1.2071
  261TIP3    H224979   3.866   2.571   8.038 -1.2428 -1.7951 -1.1351
  262TIP3   OH224980   4.984   6.416   9.822  0.2087 -0.7612  0.3966
  262TIP3    H124981   4.927   6.342   9.801  0.3874 -0.9186  0.4685
  262TIP3    H224982   5.046   6.381   9.885 -0.3540 -0.2797  1.2335
  263TIP3   OH224983   0.820   4.355   1.944  0.0087 -0.1135 -0.3084
  263TIP3    H124984   0.777   4.278   1.908  2.6904 -1.1313 -1.5431
  263TIP3    H224985   0.911   4.330   1.956  1.0101  2.8583 -0.7599
  264TIP3   OH224986   2.385   0.830   9.480  0.2333 -0.0849  0.3765
  264TIP3    H124987   2.302   0.873   9.459  1.1816  1.8297  0.2903
  264TIP3    H224988   2.374   0.799   9.569 -1.3012 -1.8177 -0.3531
  265TIP3   OH224989   0.351   4.135   7.115 -0.3367 -0.4171 -0.3382
  265TIP3    H124990   0.311   4.105   7.033 -1.6918 -1.5612  0.6998
  265TIP3    H224991   0.396   4.058   7.149  0.4881  0.1394 -0.1339
  266TIP3   OH224992   3.835   3.070   0.705  0.4146  0.2186  0.1337
  266TIP3    H124993   3.907   3.125   0.674  0.7561  0.7391  1.7318
  266TIP3    H224994   3.773   3.067   0.632  1.7879  0.2112 -1.0828
  267TIP3   OH224995   5.600   6.608   0.504  0.3410 -0.2643  0.4883
  267TIP3    H124996   5.609   6.615   0.409  0.9001  1.4575  0.6260
  267TIP3    H224997   5.527   6.666   0.526 -0.4949 -1.4823  1.0263
  268TIP3   OH224998   4.719   3.232   8.329 -0.4727 -0.5293 -0.2393
  268TIP3    H124999   4.789   3.284   8.368 -1.2225 -0.3880  0.9714
  268TIP3    H225000   4.715   3.153   8.384 -0.8352 -0.8279 -0.6896
  269TIP3   OH225001   7.365   3.817   0.772 -0.3353  0.3678  0.2771
  269TIP3    H125002   7.362   3.911   0.785  0.4113  0.6333 -1.2405
  269TIP3    H225003   7.389   3.806   0.680 -0.7718 -1.3056  0.3269
  270TIP3   OH225004   4.527   1.844   8.835 -0.3596 -0.0299  0.3884
  270TIP3    H125005   4.477   1.823   8.913 -3.9886  0.7398 -1.5380
  270TIP3    H225006   4.522   1.940   8.828  2.0783  0.1668  0.4595
  271TIP3   OH225007   1.354   4.346   0.082  0.2830  0.0948  0.2618
  271TIP3    H125008   1.289   4.345   0.152  1.5848 -1.4009  1.5318
  271TIP3    H225009   1.437   4.359   0.127  1.1541 -0.8991 -0.9971
  272TIP3   OH225010   4.066   0.249   1.349 -0.7898  0.2861 -0.3414
  272TIP3    H125011   4.001   0.181   1.364 -0.1521 -0.2119  0.2012
  272TIP3    H225012   4.024   0.329   1.380 -1.0572 -0.0673  0.2222
  273TIP3   OH225013   0.438   3.285   0.460 -0.0075 -0.2320  0.0657
  273TIP3    H125014   0.368   3.247   0.406 -1.1758  0.1372  1.2839
  273TIP3    H225015   0.470   3.211   0.512 -1.3782  0.0978  1.4679
  274TIP3   OH225016   0.079   7.076   8.090  0.1220 -0.3017  0.6483
  274TIP3    H125017   0.011   7.130   8.049 -1.1747 -1.4556  1.1740
  274TIP3    H225018   0.112   7.020   8.019 -0.3925 -0.6100  0.6444
  275TIP3   OH225019   7.127   4.226   2.760  0.2961 -0.6531 -0.3803
  275TIP3    H125020   7.035   4.200   2.767 -0.3438  0.3024 -3.5852
  275TIP3    H225021   7.134   4.304   2.815 -1.4279  0.5322 -1.7285
  276TIP3   OH225022   2.210   1.740   2.108  0.0765  0.4717 -0.7251
  276TIP3    H125023   2.142   1.710   2.047 -1.3803 -1.0435  1.5068
  276TIP3    H225024   2.281   1.678   2.096 -1.4898 -1.8690  1.2843
  277TIP3   OH225025   2.758   3.658   2.192 -0.2867  0.2216 -0.5470
  277TIP3    H125026   2.799   3.603   2.259 -0.8213  0.2552 -0.1826
  277TIP3    H225027   2.665   3.659   2.215 -0.2074  1.8051 -0.1701
  278TIP3   OH225028   7.459   2.571   9.136 -0.4936  1.2349 -0.4765
  278TIP3    H125029   7.490   2.645   9.188  2.1429 -1.4887  2.2314
  278TIP3    H225030   7.510   2.575   9.056  0.9351  1.4002  0.4087
  279TIP3   OH225031   7.284   0.481   7.337 -0.3872  0.0921 -0.0885
  279TIP3    H125032   7.203   0.507   7.379 -1.4800  0.1740 -2.1146
  279TIP3    H225033   7.263   0.476   7.244  1.4072 -1.8346 -0.4954
  280TIP3   OH225034   2.025   2.766   1.305  0.1066 -0.5265 -0.1854
  280TIP3    H125035   1.991   2.854   1.315 -1.0723 -0.9946  0.0611
  280TIP3    H225036   2.099   2.762   1.365  0.8299  0.6031 -0.9532
  281TIP3   OH225037   2.887   3.229   9.068  0.2009 -0.3899 -0.5969
  281TIP3    H125038   2.908   3.239   8.975  2.7575  0.3187 -0.0144
  281TIP3    H225039   2.825   3.300   9.086  3.3560  2.7024 -0.8173
  282TIP3   OH225040   3.637   5.313   8.514  0.4078 -0.0549  0.0163
  282TIP3    H125041   3.712   5.255   8.525 -0.2891 -0.9551  0.1064
  282TIP3    H225042   3.560   5.257   8.525 -0.2908  0.9741  0.6228
  283TIP3   OH225043   6.378   0.963   1.884  0.3602  0.0288 -0.3749
  283TIP3    H125044   6.425   0.941   1.803  0.2306  1.6968 -0.9316
  283TIP3    H225045   6.286   0.950   1.862  0.3122  0.6841 -0.5621
  284TIP3   OH225046   1.996   0.007   0.642  0.5620 -0.4403 -0.1203
  284TIP3    H125047   2.018   0.057   0.720  1.7020 -0.6105 -0.3066
  284TIP3    H225048   1.904  -0.016   0.653  0.6071 -0.1529  0.9935
  285TIP3   OH225049   4.756   2.166   2.533  0.0383 -0.5460 -0.1782
  285TIP3    H125050   4.774   2.218   2.612 -0.2312 -1.4702  0.5039
  285TIP3    H225051   4.669   2.129   2.548 -0.1271 -0.5210 -1.0328
  286TIP3   OH225052   3.210   5.287   0.257 -0.2530  0.2454 -0.3326
  286TIP3    H125053   3.151   5.264   0.185  0.3964 -1.4233 -0.3828
  286TIP3    H225054   3.243   5.374   0.234  0.6237 -0.6057 -2.5573
  287TIP3   OH225055   7.069   3.630   0.559  0.1631 -0.1503 -0.4904
  287TIP3    H125056   7.141   3.607   0.617  0.0436  2.1721  0.6747
  287TIP3    H225057   7.002   3.667   0.616 -1.3363 -0.7866 -1.7495
  288TIP3   OH225058   0.838   0.993   1.230  0.5083  0.2813  0.6018
  288TIP3    H125059   0.770   0.928   1.211 -0.3325  0.8644  1.5131
  288TIP3    H225060   0.814   1.028   1.315  0.8139  1.9426  0.0456
  289TIP3   OH225061   6.285   5.750   1.725  0.6168 -0.0732 -0.3751
  289TIP3    H125062   6.250   5.817   1.784  0.4663 -0.1477 -0.3799
  289TIP3    H225063   6.320   5.683   1.783  2.3888  0.8187 -0.3361
  290TIP3   OH225064   1.875   2.972   9.477  0.2846 -0.2587 -0.5192
  290TIP3    H125065   1.935   2.901   9.501  1.3530  0.3562 -1.2963
  290TIP3    H225066   1.832   2.996   9.559  0.3994 -1.3382 -0.1203
  291TIP3   OH225067   2.496   1.501   9.544 -0.2457  0.4088 -0.0922
  291TIP3    H125068   2.516   1.584   9.501  0.0289  0.7373  0.6389
  291TIP3    H225069   2.402   1.504   9.560 -0.1496  0.8604  0.4608
  292TIP3   OH225070   6.868   5.766   8.525  0.0200 -0.1100 -0.2246
  292TIP3    H125071   6.788   5.795   8.570 -0.5263 -1.1041 -0.5306
  292TIP3    H225072   6.894   5.687   8.572  1.5471  0.8525  0.6553
  293TIP3   OH225073   1.693   4.383   6.394  0.4523  0.0591 -0.1371
  293TIP3    H125074   1.711   4.302   6.346  0.6959 -0.0574  0.1422
  293TIP3    H225075   1.633   4.432   6.338  0.7294 -0.0729 -0.5582
  294TIP3   OH225076   1.223   5.877   6.832  0.0241  0.2300  0.1009
  294TIP3    H125077   1.197   5.786   6.844 -0.7601  0.4797  0.3816
  294TIP3    H225078   1.167   5.926   6.893 -1.3967  1.1514 -1.8454
  295TIP3   OH225079   6.733   1.739   8.308 -0.1689 -0.4570 -0.2741
  295TIP3    H125080   6.690   1.825   8.301  0.1943 -0.0661  1.6636
  295TIP3    H225081   6.821   1.753   8.273  0.2531  0.2896  1.0032
  296TIP3   OH225082   0.182   6.725   0.212 -0.6048  0.0994  0.3837
  296TIP3    H125083   0.119   6.663   0.175  1.7158 -2.4269  0.3436
  296TIP3    H225084   0.148   6.743   0.300 -2.8348  1.1627 -0.6039
  297TIP3   OH225085   2.140   5.233   7.367  0.2985 -0.2344 -0.0619
  297TIP3    H125086   2.136   5.314   7.318 -0.7570 -0.3908 -0.2471
  297TIP3    H225087   2.100   5.167   7.310 -1.0111 -0.4039  1.0135
  298TIP3   OH225088   7.076   1.793   9.147 -0.5995  0.4263  0.3922
  298TIP3    H125089   7.009   1.728   9.168  0.3355 -0.6979  0.0039
  298TIP3    H225090   7.049   1.831   9.064 -0.5978 -0.2627  0.0697
  299TIP3   OH225091   5.279   5.950   0.884  0.4356 -0.2042  0.3318
  299TIP3    H125092   5.280   6.026   0.826  1.2281 -0.4609  0.0023
  299TIP3    H225093   5.357   5.900   0.860  0.9039 -0.2041  1.7711
  300TIP3   OH225094   0.117   2.628   7.766 -0.6750 -0.5045  0.3617
  300TIP3    H125095   0.199   2.585   7.742 -0.9160 -0.1749 -1.1630
  300TIP3    H225096   0.141   2.691   7.834  0.4441 -0.0471 -0.4303
  301TIP3   OH225097   0.573   0.985   9.193  0.1462  0.4198 -0.1441
  301TIP3    H125098   0.561   1.046   9.120  0.3951 -0.1680 -0.6824
  301TIP3    H225099   0.608   0.906   9.153 -1.9502 -0.7903  0.2425
  302TIP3   OH225100   5.368   4.858   7.635  0.3194 -0.1599  0.7064
  302TIP3    H125101   5.354   4.952   7.625  0.0920 -0.2077  0.5683
  302TIP3    H225102   5.411   4.832   7.554  1.6601  0.0689  1.3221
  303TIP3   OH225103   0.248   0.248   1.283  0.1774 -0.4374  0.6223
  303TIP3    H125104   0.175   0.273   1.339  0.2446 -0.1993  0.6062
  303TIP3    H225105   0.207   0.214   1.204  0.0364  1.8581 -0.3847
  304TIP3   OH225106   6.109   3.394   9.203 -0.2751 -0.0250 -0.5529
  304TIP3    H125107   6.149   3.446   9.134  1.0001 -1.9656 -1.3535
  304TIP3    H225108   6.183   3.356   9.251 -1.1570 -0.2382  0.6936
  305TIP3   OH225109   4.478   6.800   9.326 -0.5021 -0.4390  0.3691
  305TIP3    H125110   4.456   6.711   9.352 -1.8591 -0.2993 -0.2457
  305TIP3    H225111   4.556   6.790   9.270 -0.2524 -1.1557  0.8271
  306TIP3   OH225112   7.456   0.912   1.654 -0.0498  0.2251  0.2265
  306TIP3    H125113   7.477   0.939   1.744 -0.1493 -1.3608  0.7498
  306TIP3    H225114   7.507   0.972   1.599 -0.7441  1.8734  1.2920
  307TIP3   OH225115   7.437   2.796   0.651 -0.1220  0.5355  0.5368
  307TIP3    H125116   7.407   2.712   0.618 -0.8260  1.1292 -0.3982
  307TIP3    H225117   7.384   2.861   0.604  2.0888  1.6158 -0.5870
  308TIP3   OH225118   4.647   7.395   8.416 -0.4463 -0.1818 -0.1963
  308TIP3    H125119   4.737   7.400   8.446  0.2894 -2.7317 -1.6027
  308TIP3    H225120   4.601   7.347   8.485 -0.4676  0.1781  0.0397
  309TIP3   OH225121   2.300   3.933   0.214  0.5339 -0.3556  0.0347
  309TIP3    H125122   2.249   3.881   0.152 -1.0164  0.5206  0.5031
  309TIP3    H225123   2.377   3.880   0.233  0.2160 -1.3660 -1.3605
  310TIP3   OH225124   5.330   7.362   8.847 -0.7146  0.3635  0.2715
  310TIP3    H125125   5.248   7.320   8.872 -1.5671  1.5711 -0.3790
  310TIP3    H225126   5.398   7.305   8.882 -1.8298 -0.4870  1.1217
  311TIP3   OH225127   3.040   2.487   9.866 -0.6032  0.1028 -0.2767
  311TIP3    H125128   2.974   2.552   9.891 -2.1079 -0.8863 -1.4594
  311TIP3    H225129   3.070   2.451   9.949 -1.5618  0.5775  0.3002
  312TIP3   OH225130   3.982   6.500   6.689 -0.4986 -0.1022 -0.3678
  312TIP3    H125131   4.065   6.537   6.656 -1.4079  2.5494  0.0602
  312TIP3    H225132   3.954   6.562   6.757 -2.5588 -1.2582 -0.0923
  313TIP3   OH225133   2.236   7.094   9.211  0.0516 -0.6892  0.2653
  313TIP3    H125134   2.329   7.080   9.196  0.1764  1.0152 -0.7819
  313TIP3    H225135   2.210   7.022   9.269  1.7783 -1.7597 -0.2151
  314TIP3   OH225136   5.038   6.851   0.367  0.3530 -0.4385  0.0231
  314TIP3    H125137   5.026   6.941   0.337  1.8285  0.1657  1.1095
  314TIP3    H225138   5.127   6.828   0.339  0.3432 -1.2031  0.5726
  315TIP3   OH225139   1.738   7.404   2.081 -0.2999 -0.2586  0.3229
  315TIP3    H125140   1.643   7.398   2.068 -0.2681 -0.8646  0.3431
  315TIP3    H225141   1.770   7.446   2.002 -0.6036  0.1056  0.3892
  316TIP3   OH225142   0.345   6.896   9.400  0.8207 -0.0095 -0.3649
  316TIP3    H125143   0.292   6.850   9.465 -0.3451 -0.4631 -1.5905
  316TIP3    H225144   0.367   6.829   9.335 -0.0957  0.9377 -1.6900
  317TIP3   OH225145   3.365   4.215   2.203  0.0805 -0.4875  0.9255
  317TIP3    H125146   3.457   4.242   2.199  0.0974 -0.7068 -0.9773
  317TIP3    H225147   3.316   4.297   2.211  0.3305 -0.1448 -0.7727
  318TIP3   OH225148   2.437   1.898   0.857 -1.0195  0.1535  0.2256
  318TIP3    H125149   2.401   1.816   0.890 -0.0559 -0.4502 -0.1996
  318TIP3    H225150   2.371   1.964   0.879 -3.0532 -1.0952 -1.7003
  319TIP3   OH225151   7.180   7.374   0.763 -0.0710 -0.5227 -0.4020
  319TIP3    H125152   7.140   7.290   0.741  0.5823 -1.7443  2.5671
  319TIP3    H225153   7.186   7.373   0.859  1.9791  1.9671 -0.4084
  320TIP3   OH225154   2.984   7.278   8.330 -0.2220 -0.1088  0.5837
  320TIP3    H125155   3.067   7.230   8.328 -0.5153 -0.6183 -0.7649
  320TIP3    H225156   2.995   7.348   8.266 -0.3102  0.7696  1.5047
  321TIP3   OH225157   0.451   2.954   8.738  0.5436 -0.0904 -0.5982
  321TIP3    H125158   0.426   2.962   8.830 -3.5733  1.2714 -1.6133
  321TIP3    H225159   0.474   2.862   8.727  0.2705 -0.4786  1.6153
  322TIP3   OH225160   6.033   7.033   9.778  0.0819 -0.1380 -0.0286
  322TIP3    H125161   6.126   7.021   9.794  0.4064  0.4885 -1.2832
  322TIP3    H225162   6.028   7.065   9.688 -1.4201 -1.0812 -0.3126
  323TIP3   OH225163   1.113   4.110   7.143 -0.4285 -0.0900  0.2552
  323TIP3    H125164   1.097   4.122   7.049  3.3240 -1.6761 -0.7435
  323TIP3    H225165   1.185   4.169   7.163  0.3860 -1.4763  1.5734
  324TIP3   OH225166   3.026   3.501   6.843 -0.0642 -0.0562  0.2775
  324TIP3    H125167   3.105   3.545   6.876 -0.3758 -0.7059  2.0221
  324TIP3    H225168   2.964   3.572   6.829  0.4320  0.3488  0.1056
  325TIP3   OH225169   2.566   1.377   7.380  0.3807  0.5684 -0.8456
  325TIP3    H125170   2.521   1.332   7.308  1.4591  0.2983 -1.3760
  325TIP3    H225171   2.560   1.317   7.454  0.2091  0.3692 -1.0211
  326TIP3   OH225172   6.675   7.179   9.311 -0.3302 -0.0040  0.1666
  326TIP3    H125173   6.698   7.099   9.359  1.4237 -0.9104 -2.0197
  326TIP3    H225174   6.686   7.249   9.376  1.5054 -1.2091  1.2702
  327TIP3   OH225175   5.778   2.187   0.544 -0.0566 -0.0155  0.2658
  327TIP3    H125176   5.845   2.130   0.581 -1.8301 -1.5963  1.2072
  327TIP3    H225177   5.773   2.261   0.605  1.7320  0.8681 -0.5679
  328TIP3   OH225178   4.334   5.779   8.391 -0.0028 -0.0111 -0.5265
  328TIP3    H125179   4.298   5.806   8.307  1.5892  1.7364 -0.7267
  328TIP3    H225180   4.307   5.847   8.452  1.0408  0.1527 -0.2200
  329TIP3   OH225181   1.563   7.100   0.835 -0.1715 -0.0687 -0.5060
  329TIP3    H125182   1.644   7.116   0.785  0.1435  0.7292  0.2190
  329TIP3    H225183   1.550   7.006   0.830  1.6863 -0.4322  0.6607
  330TIP3   OH225184   7.265   0.355   1.011  0.0232  0.4421  0.0861
  330TIP3    H125185   7.295   0.411   1.083  2.7438 -0.5193 -0.1716
  330TIP3    H225186   7.275   0.266   1.044  1.2745 -0.0153 -1.4179
  331TIP3   OH225187   0.482   1.644   0.051  0.2954  0.4151 -0.7199
  331TIP3    H125188   0.565   1.599   0.034  0.3906  0.5825 -0.7000
  331TIP3    H225189   0.507   1.735   0.066 -0.0734  0.8835 -2.7067
  332TIP3   OH225190   6.164   4.350   9.342  0.4186 -0.1149  0.1783
  332TIP3    H125191   6.190   4.272   9.391  0.8142  0.1883  0.4528
  332TIP3    H225192   6.124   4.407   9.407  0.3262  0.0007  0.0189
  333TIP3   OH225193   1.304   1.977   8.555  0.0291 -0.2606 -0.0568
  333TIP3    H125194   1.256   1.963   8.636 -0.3020  0.6617 -0.0703
  333TIP3    H225195   1.370   1.909   8.553 -1.0307 -1.3247  0.1584
  334TIP3   OH225196   1.461   2.571   7.924 -0.4771  0.0030  0.9588
  334TIP3    H125197   1.405   2.642   7.891 -1.7821 -1.3161  0.2293
  334TIP3    H225198   1.416   2.541   8.003 -0.7092 -0.9299  0.4827
  335TIP3   OH225199   6.046   3.845   9.844  0.0725 -0.3667  0.1123
  335TIP3    H125200   5.973   3.907   9.848  0.5436  0.2919 -1.0939
  335TIP3    H225201   6.022   3.785   9.773  1.2836  0.6430 -1.1934
  336TIP3   OH225202   1.747   3.069   9.231 -0.3174  0.5730  0.0279
  336TIP3    H125203   1.715   3.138   9.289 -1.8196  0.4526 -0.6149
  336TIP3    H225204   1.792   3.008   9.290  2.3678  2.7741  0.4195
  337TIP3   OH225205   4.898   1.907   9.696 -0.7663  0.1664  0.0859
  337TIP3    H125206   4.986   1.942   9.710 -0.7686  0.3315 -0.3044
  337TIP3    H225207   4.871   1.874   9.782 -0.6852  0.9454  0.4128
  338TIP3   OH225208   2.817   7.362   7.245 -0.2222 -0.3057  0.1889
  338TIP3    H125209   2.815   7.364   7.341 -0.1360 -0.0438  0.1869
  338TIP3    H225210   2.906   7.336   7.223  0.3767  1.5840  0.1717
  339TIP3   OH225211   0.523   5.498   1.341 -0.1289  0.0294 -0.0769
  339TIP3    H125212   0.553   5.414   1.307  0.0904  0.4860 -1.0415
  339TIP3    H225213   0.433   5.508   1.308  0.0081  0.3775 -0.3580
  340TIP3   OH225214   4.109   6.051   0.428  0.2062  0.1785  0.3912
  340TIP3    H125215   4.168   6.103   0.374 -0.6166 -0.3465 -1.0623
  340TIP3    H225216   4.024   6.060   0.386 -0.5307 -0.0547  1.7573
  341TIP3   OH225217   3.607   1.904   9.548  0.0680  0.2631  0.1256
  341TIP3    H125218   3.517   1.934   9.540  0.4048  1.2719 -0.0060
  341TIP3    H225219   3.618   1.841   9.477 -0.3447  0.6071 -0.2487
  342TIP3   OH225220   0.538   3.569   7.491 -0.0296 -0.0397 -0.4388
  342TIP3    H125221   0.573   3.646   7.446 -0.3350  0.7521  0.6079
  342TIP3    H225222   0.580   3.494   7.449  0.5043  0.7206 -1.2857
  343TIP3   OH225223   0.681   1.918   9.916 -0.5575 -0.1868 -0.5777
  343TIP3    H125224   0.691   2.009   9.945 -1.5478  0.1223 -1.1631
  343TIP3    H225225   0.765   1.877   9.938 -0.3698  0.6720  0.3793
  344TIP3   OH225226   0.797   3.004   1.285  0.1184 -0.1232  0.6634
  344TIP3    H125227   0.886   3.018   1.316 -0.0350 -0.3512  1.2149
  344TIP3    H225228   0.741   3.037   1.356 -0.2421 -1.0545  0.8259
  345TIP3   OH225229   5.675   5.468   9.000  0.3996  0.0279  0.0174
  345TIP3    H125230   5.721   5.543   9.040  0.6765 -0.0738 -0.1047
  345TIP3    H225231   5.609   5.443   9.065 -0.9264  1.5292 -0.7007
  346TIP3   OH225232   7.429   0.124   7.196  0.0772 -0.1093 -0.2123
  346TIP3    H125233   7.493   0.195   7.204 -2.3128  2.0065  1.7138
  346TIP3    H225234   7.472   0.048   7.234  2.3428  0.4908 -1.3909
  347TIP3   OH225235   2.491   6.857   2.127 -0.0051  0.4679  0.2260
  347TIP3    H125236   2.501   6.933   2.069  0.0864  0.3614  0.1005
  347TIP3    H225237   2.571   6.808   2.115 -1.3325 -1.3466 -2.1827
  348TIP3   OH225238   1.277   1.543   1.303  0.2609  0.3602  0.0709
  348TIP3    H125239   1.191   1.548   1.346 -0.0674 -0.4962 -0.4375
  348TIP3    H225240   1.333   1.601   1.353 -1.1943  2.8049 -0.9852
  349TIP3   OH225241   3.811   6.320   8.220 -0.3405 -0.2266 -0.4127
  349TIP3    H125242   3.763   6.385   8.272 -0.4060 -1.1152  0.6498
  349TIP3    H225243   3.897   6.360   8.205 -0.3689  0.0897  0.2610
  350TIP3   OH225244   1.335   0.731   3.081 -0.1968  0.2057  0.1774
  350TIP3    H125245   1.277   0.780   3.023 -0.2612  3.0769  2.4207
  350TIP3    H225246   1.306   0.756   3.169  1.9562 -1.3529  1.4027
  351TIP3   OH225247   0.589   1.633   2.114 -0.1863  0.2980  0.3485
  351TIP3    H125248   0.580   1.668   2.203 -1.1237 -0.6243  0.6393
  351TIP3    H225249   0.582   1.710   2.057  3.2501  1.3446  1.0986
  352TIP3   OH225250   5.652   1.156   9.122  0.0560 -0.1259 -0.2576
  352TIP3    H125251   5.564   1.169   9.088  0.3982 -1.5673 -1.8700
  352TIP3    H225252   5.707   1.153   9.044  1.6779  1.4890  0.7434
  353TIP3   OH225253   4.031   0.020   8.091 -0.5328 -0.6629 -0.9432
  353TIP3    H125254   3.957   0.007   8.149  1.7378  0.1210  2.4449
  353TIP3    H225255   3.998   0.078   8.022 -3.0761 -0.5451  0.2731
  354TIP3   OH225256   1.667   4.975   7.444 -0.0401  0.1692  0.4305
  354TIP3    H125257   1.705   4.897   7.486  2.2712  0.3624 -1.1107
  354TIP3    H225258   1.653   5.036   7.517  1.7170 -0.3213  1.2486
  355TIP3   OH225259   4.087   3.611   9.934  0.5157  0.4684 -0.2388
  355TIP3    H125260   3.992   3.611   9.929  0.2447 -0.5805  2.8463
  355TIP3    H225261   4.116   3.604   9.842 -2.3629 -0.1451 -1.1998
  356TIP3   OH225262   0.482   5.711   2.437 -0.0875  0.5469  0.3542
  356TIP3    H125263   0.424   5.778   2.401  1.4290  1.2718 -0.8367
  356TIP3    H225264   0.430   5.630   2.433 -0.6665  0.9690 -1.6769
  357TIP3   OH225265   4.604   0.654   1.298 -0.3692 -0.0513 -0.3214
  357TIP3    H125266   4.511   0.628   1.302 -1.0418  2.2073 -0.0711
  357TIP3    H225267   4.630   0.632   1.208 -0.6698 -2.0776  0.0335
  358TIP3   OH225268   6.848   3.937   1.825 -0.0316 -0.2863 -0.1879
  358TIP3    H125269   6.806   3.922   1.909  1.2644 -1.0824  0.3548
  358TIP3    H225270   6.885   3.852   1.801  1.2478  0.3567 -0.6114
  359TIP3   OH225271   4.190   2.167   8.081  0.2127 -0.1618  0.0979
  359TIP3    H125272   4.255   2.229   8.115  1.0757 -0.5001 -0.8874
  359TIP3    H225273   4.141   2.217   8.016 -2.4741  0.9643  2.7363
  360TIP3   OH225274   3.623   1.284   1.081 -0.3000  0.0579  0.2910
  360TIP3    H125275   3.696   1.319   1.131  0.8708  0.2037 -1.4332
  360TIP3    H225276   3.652   1.196   1.054 -2.1456 -1.3091  2.3695
  361TIP3   OH225277   2.714   3.064   2.660  0.0578  0.2525 -0.7184
  361TIP3    H125278   2.746   3.153   2.646 -0.8864  0.8490  0.6741
  361TIP3    H225279   2.789   3.018   2.699  0.1850  0.7740 -0.3384
  362TIP3   OH225280   4.778   4.673   8.468  0.0314 -0.4209 -0.0165
  362TIP3    H125281   4.731   4.631   8.396 -0.1951  0.9404 -0.6912
  362TIP3    H225282   4.713   4.732   8.507  1.0731  1.3632 -0.8598
  363TIP3   OH225283   0.747   4.616   0.207 -0.2599 -0.5754  0.0161
  363TIP3    H125284   0.831   4.644   0.170 -0.7888 -2.3524 -2.9270
  363TIP3    H225285   0.695   4.696   0.211  0.5190  0.0534 -1.3873
  364TIP3   OH225286   1.315   0.453   0.641 -0.5459  0.0683 -0.1324
  364TIP3    H125287   1.240   0.394   0.636 -0.7947  0.4686 -1.4971
  364TIP3    H225288   1.332   0.479   0.550  0.0637  1.4623  0.3447
  365TIP3   OH225289   3.555   6.575   0.274  0.1512  0.0732  0.1941
  365TIP3    H125290   3.593   6.660   0.252 -0.8876 -0.0192 -2.2851
  365TIP3    H225291   3.575   6.520   0.199  0.6188 -1.8691  1.6595
  366TIP3   OH225292   1.113   1.079   7.710  0.5278 -0.6626  0.5003
  366TIP3    H125293   1.073   1.164   7.694  0.5741 -0.7138  0.0958
  366TIP3    H225294   1.175   1.095   7.782  1.8055  0.0449 -0.7006
  367TIP3   OH225295   2.629   2.423   9.513 -0.0859 -0.7931 -0.4378
  367TIP3    H125296   2.724   2.428   9.509 -0.0765 -1.5874 -2.3493
  367TIP3    H225297   2.598   2.500   9.465 -0.3491 -1.4503 -1.3619
  368TIP3   OH225298   0.448   6.303   7.990 -0.4479 -0.4992  0.1874
  368TIP3    H125299   0.412   6.392   7.988 -0.6179 -0.3659  3.5532
  368TIP3    H225300   0.510   6.305   8.063 -0.7285 -3.2592  0.5788
  369TIP3   OH225301   1.085   2.964   0.006  0.8429 -0.0203  0.5447
  369TIP3    H125302   1.085   2.870  -0.015  1.8580  0.2633 -0.9031
  369TIP3    H225303   1.110   2.968   0.098 -2.2839 -1.2773  1.5804
  370TIP3   OH225304   2.783   0.243   1.778 -0.0568 -0.0691  0.2231
  370TIP3    H125305   2.727   0.312   1.812 -0.8562 -0.4949 -0.2125
  370TIP3    H225306   2.726   0.167   1.770  0.5407 -0.4662 -0.3890
  371TIP3   OH225307   4.936   5.899   7.739  0.4071 -0.3901  0.8493
  371TIP3    H125308   4.885   5.980   7.748  0.3635 -0.4626  1.2841
  371TIP3    H225309   4.873   5.835   7.706  0.8549  0.1877 -1.3221
  372TIP3   OH225310   4.006   4.504   2.293 -0.0912 -0.2043 -0.1636
  372TIP3    H125311   4.032   4.573   2.353 -0.9567 -0.4184  0.4909
  372TIP3    H225312   4.087   4.473   2.253  0.6444 -0.7663  1.6802
  373TIP3   OH225313   2.029   4.316   6.514  0.3194  0.2436 -0.0621
  373TIP3    H125314   1.970   4.248   6.481  1.2520  0.0623 -1.3923
  373TIP3    H225315   2.086   4.270   6.576 -0.4756  0.2821  0.7124
  374TIP3   OH225316   2.643   4.998   7.771  0.1770 -0.0443 -0.2065
  374TIP3    H125317   2.612   4.928   7.714 -1.7812  1.0534 -0.5918
  374TIP3    H225318   2.623   4.968   7.859 -0.3852 -0.1125 -0.3515
  375TIP3   OH225319   3.531   2.554   8.178  0.1857 -0.1831 -0.0935
  375TIP3    H125320   3.483   2.628   8.139 -1.0340 -0.2299  1.2172
  375TIP3    H225321   3.533   2.488   8.109 -2.7292 -0.6254  0.1164
  376TIP3   OH225322   6.235   0.200   9.566  0.4863  0.8822 -0.7493
  376TIP3    H125323   6.204   0.273   9.620  2.1805  1.3926 -0.4055
  376TIP3    H225324   6.186   0.125   9.598 -0.1025  1.5675  0.0187
  377TIP3   OH225325   3.648   0.923   8.004  0.2159  0.2285  1.0161
  377TIP3    H125326   3.722   0.982   7.995 -1.2003  1.8367 -1.1690
  377TIP3    H225327   3.579   0.976   8.045 -1.6558  0.8524 -2.5409
  378TIP3   OH225328   3.991   5.655   9.115 -0.1975  0.3496 -0.0982
  378TIP3    H125329   3.919   5.718   9.117 -0.6418 -0.1398  1.9010
  378TIP3    H225330   3.974   5.602   9.037  0.1809  2.6130 -1.8215
  379TIP3   OH225331   3.335   2.208   9.844  0.0848 -0.3970 -0.4974
  379TIP3    H125332   3.400   2.178   9.781  1.7481  0.9011  0.5181
  379TIP3    H225333   3.255   2.217   9.793  0.6866 -1.9970 -1.8027
  380TIP3   OH225334   0.826   2.010   2.002  0.0297 -0.2932  0.6252
  380TIP3    H125335   0.825   1.998   2.097 -1.8562  0.4238  0.7301
  380TIP3    H225336   0.893   2.077   1.987 -0.9197  0.9480  1.6705
  381TIP3   OH225337   0.610   5.583   7.650  0.1391  0.1423 -0.6403
  381TIP3    H125338   0.579   5.635   7.724  0.2581 -3.4480  2.2425
  381TIP3    H225339   0.576   5.495   7.667  3.0953 -1.6556 -3.0214
  382TIP3   OH225340   5.993   5.606   9.742 -0.0614  0.3326 -0.0606
  382TIP3    H125341   6.042   5.638   9.818 -0.1176  1.9212 -0.6473
  382TIP3    H225342   5.962   5.685   9.699 -1.4035 -0.5900 -0.8576
  383TIP3   OH225343   5.754   7.358   0.159  0.0652  0.4423 -0.7385
  383TIP3    H125344   5.716   7.367   0.072  0.9631 -0.4874 -1.2494
  383TIP3    H225345   5.719   7.432   0.208 -3.8845 -1.3346 -0.5736
  384TIP3   OH225346   6.252   4.727   0.809  0.5282 -0.3744  0.0666
  384TIP3    H125347   6.212   4.646   0.777 -1.5612  0.5359  0.1821
  384TIP3    H225348   6.256   4.784   0.732 -1.4980  0.6782  0.6781
  385TIP3   OH225349   4.989   3.240   9.332  0.0092 -0.1184 -0.5644
  385TIP3    H125350   4.967   3.186   9.256  0.2967 -0.8762 -0.1203
  385TIP3    H225351   4.993   3.178   9.405  3.8160 -0.1516 -0.6034
  386TIP3   OH225352   3.625   0.641   1.339  0.0282  0.1346  0.4561
  386TIP3    H125353   3.530   0.640   1.346 -0.0146 -0.2227 -0.0900
  386TIP3    H225354   3.653   0.710   1.399 -0.6148  0.6957  0.1171
  387TIP3   OH225355   5.659   5.535   9.866 -0.0867  0.0839  0.1172
  387TIP3    H125356   5.572   5.570   9.848 -0.2137 -0.3344 -0.0885
  387TIP3    H225357   5.696   5.517   9.779  0.1907  0.2198  0.2037
  388TIP3   OH225358   4.076   5.460   0.884  0.2314 -0.2338 -0.3038
  388TIP3    H125359   4.131   5.387   0.914  1.8613  0.9920 -0.1790
  388TIP3    H225360   4.065   5.515   0.962 -1.1228 -0.3995 -0.3571
  389TIP3   OH225361   4.621   4.072   9.378 -0.4404  0.2880 -0.4076
  389TIP3    H125362   4.621   4.018   9.457 -0.5547  0.3744 -0.3475
  389TIP3    H225363   4.673   4.022   9.315  0.9624  0.9211  0.2001
  390TIP3   OH225364   6.921   4.234   1.162 -0.4424 -0.2637 -0.4975
  390TIP3    H125365   7.008   4.269   1.144 -0.0016 -1.6553 -1.2044
  390TIP3    H225366   6.921   4.147   1.122 -1.3646 -1.2365  1.4921
  391TIP3   OH225367   5.223   0.073   8.150  0.4799 -0.6102 -0.8641
  391TIP3    H125368   5.232   0.045   8.241  0.5463  1.3477 -0.2148
  391TIP3    H225369   5.137   0.042   8.123 -1.5539  2.4297  1.3782
  392TIP3   OH225370   7.440   4.412   2.633 -0.0479  0.0219 -0.0953
  392TIP3    H125371   7.512   4.396   2.694 -0.0106  0.2747 -0.0713
  392TIP3    H225372   7.412   4.501   2.652 -0.8187 -0.3096  0.3652
  393TIP3   OH225373   4.117   1.685   1.375 -0.4259  0.4904 -0.0251
  393TIP3    H125374   4.072   1.637   1.445 -1.2246 -1.4711 -1.7799
  393TIP3    H225375   4.050   1.741   1.337 -0.7204 -0.4194 -0.8888
  394TIP3   OH225376   4.784   0.489   8.210 -0.5972  0.4389 -0.3446
  394TIP3    H125377   4.727   0.563   8.233 -1.2127 -0.3222  0.6629
  394TIP3    H225378   4.738   0.412   8.244  1.5490 -0.1286  1.5528
  395TIP3   OH225379   3.469   1.804   0.255 -0.2162  0.2998 -0.0572
  395TIP3    H125380   3.487   1.879   0.312 -0.2513  0.0783  0.2450
  395TIP3    H225381   3.551   1.792   0.206  0.4815 -0.6751  1.2851
  396TIP3   OH225382   2.101   1.167   0.075 -0.2199  0.0468 -0.5596
  396TIP3    H125383   2.043   1.238   0.103  1.8544  0.7410  2.4448
  396TIP3    H225384   2.155   1.206   0.007 -0.2530  0.8473 -0.1448
  397TIP3   OH225385   0.288   0.940   2.217  0.2324 -0.0089  0.0624
  397TIP3    H125386   0.367   0.922   2.166  1.0715  0.1638  1.2577
  397TIP3    H225387   0.265   1.030   2.195  2.8983  1.4998  2.8561
  398TIP3   OH225388   1.020   0.160   9.056  0.0337  0.7455  0.4892
  398TIP3    H125389   0.939   0.123   9.020  0.9746 -0.0383 -0.9594
  398TIP3    H225390   1.075   0.083   9.072  0.2843  1.2240  2.0518
  399TIP3   OH225391   3.515   3.603   9.385 -0.2729  0.6169  0.0439
  399TIP3    H125392   3.441   3.603   9.445 -1.2430 -2.3810 -0.9774
  399TIP3    H225393   3.584   3.555   9.430 -0.5691 -0.5469 -0.6967
  400TIP3   OH225394   3.913   0.356   9.604 -0.4266 -0.1658  0.1072
  400TIP3    H125395   3.903   0.291   9.534 -0.3946 -0.2632  0.1942
  400TIP3    H225396   3.913   0.440   9.557 -1.0490 -0.1943  0.0450
  401TIP3   OH225397   5.610   2.840   7.717 -0.5001  0.0521 -0.0910
  401TIP3    H125398   5.532   2.854   7.662 -0.4222  0.3291 -0.1335
  401TIP3    H225399   5.663   2.779   7.667  0.3089  1.5028 -1.1001
  402TIP3   OH225400   5.357   2.175   9.778 -0.2208  0.2636  0.5709
  402TIP3    H125401   5.438   2.161   9.729 -1.4999  2.2646 -2.3699
  402TIP3    H225402   5.378   2.247   9.838  0.5098 -0.1081  0.7742
  403TIP3   OH225403   0.952   1.527   8.552  0.4905 -0.0329  0.6287
  403TIP3    H125404   0.888   1.537   8.481 -1.8275  1.4670  2.7555
  403TIP3    H225405   1.035   1.552   8.513 -0.4795 -0.3339 -1.8175
  404TIP3   OH225406   0.428   0.067   7.741 -0.4097 -0.1399 -0.0338
  404TIP3    H125407   0.421  -0.027   7.759  0.2257 -0.2552 -0.3419
  404TIP3    H225408   0.348   0.105   7.777 -0.6852 -0.8051  0.0658
  405TIP3   OH225409   1.273   6.283   0.732  0.0026 -0.2253  0.3165
  405TIP3    H125410   1.228   6.208   0.691  0.7916 -0.7058  0.3037
  405TIP3    H225411   1.203   6.333   0.773 -0.6593 -0.4284 -0.5333
  406TIP3   OH225412   1.197   5.097   9.491 -0.4408 -0.5852  0.2708
  406TIP3    H125413   1.183   5.076   9.399  0.2784 -0.0577  0.0328
  406TIP3    H225414   1.135   5.166   9.510 -1.4956 -1.5726  0.5465
  407TIP3   OH225415   2.423   4.282   8.745  0.4557  0.3319  0.1997
  407TIP3    H125416   2.508   4.272   8.703  0.1594  1.2694 -0.6582
  407TIP3    H225417   2.434   4.358   8.803  0.4541 -0.0900  0.7601
  408TIP3   OH225418   5.580   3.304   7.967  0.2158 -0.5457 -0.3699
  408TIP3    H125419   5.559   3.287   7.875  0.3584 -0.6302 -0.3876
  408TIP3    H225420   5.537   3.387   7.987  0.0336 -0.6183 -0.4622
  409TIP3   OH225421   5.011   6.980   1.893 -0.4746 -0.4205  0.7335
  409TIP3    H125422   5.092   7.005   1.938 -0.4724 -0.6067  0.8331
  409TIP3    H225423   5.009   6.885   1.898  0.2865 -0.5723 -0.9745
  410TIP3   OH225424   3.450   1.673   9.018  0.0365 -0.2060 -0.3771
  410TIP3    H125425   3.398   1.741   9.061 -0.3373 -0.6979 -0.0319
  410TIP3    H225426   3.413   1.591   9.052 -0.3704 -0.6095 -1.7392
  411TIP3   OH225427   1.770   2.596   8.170 -0.0700  0.0392  0.1168
  411TIP3    H125428   1.833   2.538   8.212  0.8913  1.0933  0.2022
  411TIP3    H225429   1.768   2.568   8.078  0.8871  0.2695  0.0124
  412TIP3   OH225430   4.679   3.413   0.997 -0.2584  0.4745 -0.6107
  412TIP3    H125431   4.686   3.386   1.089  1.0561 -0.4434 -0.9506
  412TIP3    H225432   4.749   3.366   0.953  1.0277  3.0948 -1.5919
  413TIP3   OH225433   4.553   1.065   0.012 -0.4648 -0.3033 -0.2043
  413TIP3    H125434   4.612   1.136  -0.013  0.4125 -1.4615 -1.5758
  413TIP3    H225435   4.472   1.082  -0.036 -2.0625  2.2460  2.9686
  414TIP3   OH225436   2.330   6.782   8.899  0.5265  0.2965  0.0690
  414TIP3    H125437   2.371   6.698   8.880  2.1338  0.9036  0.6392
  414TIP3    H225438   2.393   6.826   8.957 -0.6823  1.5335  0.4852
  415TIP3   OH225439   2.677   3.352   0.417  0.0736 -0.2701 -0.3307
  415TIP3    H125440   2.597   3.331   0.466 -0.0916 -0.2403 -0.5870
  415TIP3    H225441   2.747   3.310   0.467 -0.2093 -1.0894 -0.6133
  416TIP3   OH225442   5.298   6.106   0.273  0.7132  0.0340  0.3753
  416TIP3    H125443   5.214   6.122   0.317  0.5995 -0.0975  0.2047
  416TIP3    H225444   5.278   6.040   0.207  0.3671  1.8557 -1.4524
  417TIP3   OH225445   7.114   1.630   0.596  0.3271 -0.3060 -0.1037
  417TIP3    H125446   7.177   1.638   0.668  0.1046 -1.0506  0.1840
  417TIP3    H225447   7.124   1.540   0.566  0.2147 -0.0835 -0.8257
  418TIP3   OH225448   1.748   1.253   2.405 -0.3061  0.3643  0.3554
  418TIP3    H125449   1.653   1.262   2.398 -0.3611  0.1358  0.8167
  418TIP3    H225450   1.782   1.321   2.347 -0.7509 -0.7754 -1.3383
  419TIP3   OH225451   3.065   6.640   9.113 -0.0556  0.2325 -0.2344
  419TIP3    H125452   3.117   6.617   9.036  0.4032  2.2606 -0.5632
  419TIP3    H225453   2.979   6.603   9.095  0.3822 -0.3909 -1.1355
  420TIP3   OH225454   1.615   2.748   0.649  0.4163  0.0034 -0.3043
  420TIP3    H125455   1.530   2.781   0.676  0.7850  1.7282 -1.0715
  420TIP3    H225456   1.631   2.672   0.704 -0.6692  0.9173  1.3393
  421TIP3   OH225457   0.896   2.677   7.432 -0.3059  0.1779 -0.8056
  421TIP3    H125458   0.904   2.607   7.368  0.8755 -0.5763  0.1228
  421TIP3    H225459   0.902   2.633   7.517  1.3720  1.4728 -0.2075
  422TIP3   OH225460   1.488   2.840   9.694  0.4941 -0.0624  0.2127
  422TIP3    H125461   1.492   2.869   9.785  0.8882  1.3357 -0.2328
  422TIP3    H225462   1.564   2.782   9.685 -0.1309 -1.0586  1.0260
  423TIP3   OH225463   6.520   0.440   9.566 -0.1281  0.0582  0.6521
  423TIP3    H125464   6.542   0.371   9.629  2.2145  1.0593  1.0538
  423TIP3    H225465   6.461   0.498   9.614  0.8113  0.2563  1.6252
  424TIP3   OH225466   2.256   0.846   7.417  0.6370  0.6052 -0.3868
  424TIP3    H125467   2.246   0.751   7.413  0.4992  0.6451 -2.3352
  424TIP3    H225468   2.217   0.871   7.500  0.2883 -1.0048 -0.0244
  425TIP3   OH225469   2.030   7.137   8.625  0.3434 -0.1556  0.4248
  425TIP3    H125470   2.093   7.079   8.668  0.3876 -0.0072  0.5626
  425TIP3    H225471   2.065   7.148   8.537  0.2626 -0.4465  0.3565
  426TIP3   OH225472   7.393   6.884   8.276 -0.3044  0.1513  0.1979
  426TIP3    H125473   7.347   6.903   8.358 -0.8773  0.5645 -0.2104
  426TIP3    H225474   7.413   6.970   8.240 -0.8584 -0.0187 -0.5315
  427TIP3   OH225475   2.259   7.125   0.448 -0.3313  0.5863  0.3121
  427TIP3    H125476   2.299   7.118   0.535  0.1150  2.4514  0.3049
  427TIP3    H225477   2.314   7.189   0.402 -1.1389  0.3655 -1.0110
  428TIP3   OH225478   2.106   3.981   8.145  0.1887  0.8387  0.4380
  428TIP3    H125479   2.116   3.925   8.223  0.3543  0.5330  0.2002
  428TIP3    H225480   2.170   4.051   8.159 -1.3279  2.0550  1.6545
  429TIP3   OH225481   5.693   0.988   1.278 -0.3901  0.1771 -0.0379
  429TIP3    H125482   5.610   0.975   1.325  0.1945  0.0688  0.9944
  429TIP3    H225483   5.666   1.018   1.191 -1.4851  2.3712  0.9678
  430TIP3   OH225484   2.915   3.222   8.783  0.4954  0.7255 -0.7119
  430TIP3    H125485   3.006   3.237   8.757  0.9057  1.9864  1.2300
  430TIP3    H225486   2.899   3.130   8.762  1.8087  0.7912 -2.1956
  431TIP3   OH225487   3.792   6.134   1.414 -0.1086 -0.0708  0.1185
  431TIP3    H125488   3.706   6.152   1.375 -0.5947  0.1673  1.2804
  431TIP3    H225489   3.775   6.122   1.507  1.3530  1.9131  0.7185
  432TIP3   OH225490   2.718   4.664   8.615  0.2532 -0.2832  0.2957
  432TIP3    H125491   2.766   4.683   8.695  1.3262 -0.6780 -0.2261
  432TIP3    H225492   2.647   4.606   8.642  0.6206 -0.4295  0.9613
  433TIP3   OH225493   1.272   3.074   1.631  0.5353  0.1723  0.0975
  433TIP3    H125494   1.360   3.104   1.606  0.6237 -2.4561 -3.5137
  433TIP3    H225495   1.213   3.124   1.575  0.0902 -1.0799 -0.5605
  434TIP3   OH225496   5.476   3.550   8.061  0.2300  0.2115  0.1232
  434TIP3    H125497   5.538   3.594   8.003  0.7211 -0.5320  0.0788
  434TIP3    H225498   5.441   3.620   8.117  2.0562  0.4563  1.0215
  435TIP3   OH225499   0.511   0.112   8.413 -0.6156 -0.2276  0.1618
  435TIP3    H125500   0.547   0.200   8.421 -3.6693  1.0166  1.8634
  435TIP3    H225501   0.537   0.067   8.493 -0.9201 -0.1064  0.3293
  436TIP3   OH225502   3.774   0.749   2.220 -0.6640 -0.3712 -0.0746
  436TIP3    H125503   3.787   0.670   2.273 -1.0278  0.3962  1.1955
  436TIP3    H225504   3.700   0.794   2.261 -0.0439  0.9636 -0.3772
  437TIP3   OH225505   3.851   6.412   7.886 -0.3364  0.3687 -0.1480
  437TIP3    H125506   3.801   6.366   7.953 -1.1984  0.2834 -0.8363
  437TIP3    H225507   3.785   6.450   7.829  0.3554 -0.7118 -1.7419
  438TIP3   OH225508   5.036   6.672   0.789 -0.1240  0.7196 -0.0700
  438TIP3    H125509   4.984   6.730   0.735  2.0100  2.6206 -0.2527
  438TIP3    H225510   5.126   6.703   0.778  0.9849 -1.8690  0.8218
  439TIP3   OH225511   3.268   7.297   0.933  0.4655 -0.2940  0.3890
  439TIP3    H125512   3.278   7.255   0.847 -0.1170  0.8963 -0.2793
  439TIP3    H225513   3.175   7.285   0.955  0.6868 -0.9156  1.0495
  440TIP3   OH225514   2.558   3.332   0.693 -0.2262  0.2850  0.1640
  440TIP3    H125515   2.626   3.264   0.694  0.5047  1.0030  0.0509
  440TIP3    H225516   2.580   3.388   0.767 -0.8032  0.4282  0.2286
  441TIP3   OH225517   2.527   7.162   7.944  0.5359 -0.0185  0.0968
  441TIP3    H125518   2.482   7.210   8.013  0.2717  0.9999 -0.7529
  441TIP3    H225519   2.603   7.123   7.987  0.5608  0.8747  0.8911
  442TIP3   OH225520   3.170   6.468   8.846  0.3732  0.1596 -0.5327
  442TIP3    H125521   3.208   6.556   8.851  0.7486  0.0020 -0.6113
  442TIP3    H225522   3.200   6.434   8.762 -0.8204  0.4398 -1.1013
  443TIP3   OH225523   6.512   1.983   9.851  0.3537 -0.2704  0.2820
  443TIP3    H125524   6.503   1.959   9.758  0.5105 -0.4387  0.3102
  443TIP3    H225525   6.488   2.076   9.854 -2.2273 -0.8704  0.4824
  444TIP3   OH225526   0.120   0.055   9.576 -0.2368  0.1609 -0.3419
  444TIP3    H125527   0.205   0.012   9.590 -0.4398 -0.5718 -1.2601
  444TIP3    H225528   0.104   0.047   9.482 -0.8555  1.2038 -0.3442
  445TIP3   OH225529   5.129   6.802   1.143  0.3569 -0.0820 -0.2070
  445TIP3    H125530   5.205   6.853   1.172  0.0059 -0.3021  1.1739
  445TIP3    H225531   5.067   6.868   1.110  0.0748  0.3703  1.1692
  446TIP3   OH225532   5.362   3.211   8.939 -0.3405 -0.0486 -0.2147
  446TIP3    H125533   5.352   3.219   9.033 -2.7420  1.8689 -0.5340
  446TIP3    H225534   5.430   3.275   8.917 -1.0530  0.8073  0.0416
  447TIP3   OH225535   7.100   0.723   8.065 -0.1833  0.0458  0.7389
  447TIP3    H125536   7.122   0.692   7.977  1.5880  1.2064  0.7026
  447TIP3    H225537   7.141   0.810   8.070  0.7641 -0.4564  3.0865
  448TIP3   OH225538   4.867   0.532   0.600  0.2656 -0.6794 -0.1191
  448TIP3    H125539   4.858   0.503   0.691 -0.9590  0.3433  0.1169
  448TIP3    H225540   4.949   0.581   0.598  0.5433 -1.1099  0.3061
  449TIP3   OH225541   3.001   0.216   0.416  0.1785  0.2512  0.4966
  449TIP3    H125542   2.948   0.222   0.337 -0.9765  1.6038  1.3458
  449TIP3    H225543   3.068   0.283   0.405  1.1725 -0.8039 -0.1333
  450TIP3   OH225544   1.966   5.628   1.560 -0.1391 -0.0377  0.0943
  450TIP3    H125545   1.927   5.708   1.526 -0.5509 -0.6493 -0.9383
  450TIP3    H225546   2.039   5.657   1.615  0.2844  1.0154 -0.9861
  451TIP3   OH225547   2.578   6.929   8.568 -0.1381 -0.1075 -0.7264
  451TIP3    H125548   2.619   6.878   8.637  1.1882  3.6200  1.5629
  451TIP3    H225549   2.528   6.865   8.517  1.6879 -3.6231  1.4853
  452TIP3   OH225550   5.322   3.007   7.720 -0.1364 -0.8747 -0.1940
  452TIP3    H125551   5.261   3.072   7.754 -0.2044 -0.7086 -0.6241
  452TIP3    H225552   5.405   3.055   7.712  0.2077 -1.2598  0.9590
  453TIP3   OH225553   1.985   6.737   1.861  0.0341  0.8348  0.0163
  453TIP3    H125554   1.941   6.790   1.795  1.2898  1.5015 -0.3350
  453TIP3    H225555   1.937   6.654   1.862 -2.6868  2.2921  1.3721
  454TIP3   OH225556   1.308   0.812   8.354 -0.2722  0.3482 -0.1191
  454TIP3    H125557   1.294   0.849   8.441 -0.3311 -1.0643  0.4982
  454TIP3    H225558   1.395   0.844   8.329  0.4440 -0.4964  1.1601
  455TIP3   OH225559   6.841   1.109   0.286  0.1683 -0.8908 -0.1343
  455TIP3    H125560   6.879   1.035   0.239  0.2108 -1.0641  0.1690
  455TIP3    H225561   6.774   1.143   0.227 -0.0811 -1.3781 -0.1391
  456TIP3   OH225562   1.994   4.005   7.823 -0.0090 -0.5917 -0.3481
  456TIP3    H125563   2.079   4.019   7.864 -0.3553 -2.1854  1.0561
  456TIP3    H225564   1.931   4.032   7.891 -0.6882  1.3464 -1.6566
  457TIP3   OH225565   7.181   7.133   8.214  0.2360  0.0696 -0.4231
  457TIP3    H125566   7.239   7.208   8.226  0.4637 -0.2802  0.7869
  457TIP3    H225567   7.190   7.082   8.295 -1.7023 -0.0281 -0.2165
  458TIP3   OH225568   0.487   4.951   7.929  0.0743  0.3198 -0.2648
  458TIP3    H125569   0.407   4.977   7.975 -0.9551 -1.6679 -0.7910
  458TIP3    H225570   0.482   4.994   7.844  0.0892  1.0091  0.0786
  459TIP3   OH225571   2.041   4.177   0.549  0.4498  0.1408 -0.5057
  459TIP3    H125572   2.122   4.226   0.534 -0.2920  1.6622  0.3199
  459TIP3    H225573   2.063   4.117   0.620  1.3043 -0.6328 -1.3910
  460TIP3   OH225574   5.629   5.787   8.441 -0.7620 -1.0046 -0.4929
  460TIP3    H125575   5.619   5.861   8.381 -0.1610 -1.9329 -1.7758
  460TIP3    H225576   5.558   5.728   8.419 -0.8655 -1.1113  0.0987
  461TIP3   OH225577   6.206   2.601   0.325  0.4282  0.0377  0.1205
  461TIP3    H125578   6.174   2.682   0.367 -1.0495 -1.5994  2.3969
  461TIP3    H225579   6.126   2.555   0.300  1.2474 -0.9063 -0.8012
  462TIP3   OH225580   1.764   6.758   9.713 -0.4882  0.0787  0.1835
  462TIP3    H125581   1.727   6.726   9.795 -0.3746 -1.1558 -0.2246
  462TIP3    H225582   1.691   6.803   9.670 -1.4893 -2.0125 -0.4465
  463TIP3   OH225583   2.503   6.004   0.139  0.3761  0.6237  0.5143
  463TIP3    H125584   2.430   6.054   0.175  0.8082  1.8914 -0.3245
  463TIP3    H225585   2.563   6.069   0.104  0.4685 -0.4761 -1.5713
  464TIP3   OH225586   7.030   3.482   1.613  0.4861 -0.4191 -0.1977
  464TIP3    H125587   7.109   3.537   1.614  0.6404 -0.6396  0.1642
  464TIP3    H225588   7.062   3.395   1.588  0.6304 -0.8781  1.4047
  465TIP3   OH225589   0.345   5.756   0.407  0.3499  0.2723  0.5394
  465TIP3    H125590   0.282   5.798   0.348 -1.2395 -0.7663  1.4219
  465TIP3    H225591   0.299   5.679   0.440  2.6230 -1.3731  0.1110
  466TIP3   OH225592   2.623   0.856   7.984  0.3172  0.1320  0.3612
  466TIP3    H125593   2.584   0.883   7.901  0.9778 -0.2390 -0.0764
  466TIP3    H225594   2.549   0.849   8.045 -0.2047  0.1163 -0.2746
  467TIP3   OH225595   2.259   0.025   0.501 -0.3103  0.2536  0.0203
  467TIP3    H125596   2.316   0.018   0.577 -0.8930 -0.7623  0.3836
  467TIP3    H225597   2.170   0.014   0.536 -0.6837  1.0490 -0.6323
  468TIP3   OH225598   5.906   5.853   9.605 -0.0562  0.0362 -0.2027
  468TIP3    H125599   5.864   5.899   9.533  1.3805 -0.6010 -1.5096
  468TIP3    H225600   5.870   5.893   9.684 -1.7033  0.7310 -1.2509
  469TIP3   OH225601   5.604   2.342   9.588 -0.4409 -0.2022 -0.0551
  469TIP3    H125602   5.560   2.257   9.589  1.3316 -1.2047  1.5226
  469TIP3    H225603   5.691   2.323   9.551  0.0363  0.8764  0.4659
  470TIP3   OH225604   1.979   4.865   2.579 -0.2347 -0.2607  0.5638
  470TIP3    H125605   2.065   4.906   2.580 -0.0855 -0.5791  0.7707
  470TIP3    H225606   1.954   4.858   2.671 -0.7992  0.4865  0.4806
  471TIP3   OH225607   3.199   5.887   7.694  0.1197  0.1602  0.4409
  471TIP3    H125608   3.211   5.831   7.617 -1.7369  1.0478 -0.5592
  471TIP3    H225609   3.244   5.840   7.764 -0.5982 -2.1466 -0.5360
  472TIP3   OH225610   6.724   1.298   8.129  0.1685  0.0852  0.3830
  472TIP3    H125611   6.704   1.385   8.095 -0.7523 -0.5618 -0.7810
  472TIP3    H225612   6.733   1.242   8.051  1.4329 -0.7374  1.0717
  473TIP3   OH225613   2.438   7.071   8.802  0.7373  0.3660  0.4701
  473TIP3    H125614   2.376   7.001   8.821 -0.6868  1.2471 -0.7311
  473TIP3    H225615   2.516   7.025   8.771  0.9203 -0.7830  2.4025
  474TIP3   OH225616   0.495   1.057   2.016  0.1903  0.2007  0.2768
  474TIP3    H125617   0.542   1.079   1.936 -2.0142 -0.8219 -1.4173
  474TIP3    H225618   0.432   1.129   2.027  0.0373  0.0004  0.7262
  475TIP3   OH225619   5.400   4.888   9.363  0.3365  0.2992  0.1246
  475TIP3    H125620   5.436   4.956   9.420 -0.7355 -0.0655  1.2873
  475TIP3    H225621   5.309   4.914   9.348  0.0787 -0.5642  0.1064
  476TIP3   OH225622   5.070   1.629   8.626 -0.3279  0.1486 -0.1521
  476TIP3    H125623   5.029   1.618   8.541  0.4784  0.5386 -0.5982
  476TIP3    H225624   5.115   1.546   8.644 -1.1581 -0.2241  0.2695
  477TIP3   OH225625   5.854   1.110   9.702  0.2736 -0.4908  0.3054
  477TIP3    H125626   5.915   1.114   9.629  0.3745 -0.1932  0.4069
  477TIP3    H225627   5.904   1.139   9.778 -0.8920  3.3489 -0.1829
  478TIP3   OH225628   3.166   6.696   1.919 -0.2590  0.0643 -0.0006
  478TIP3    H125629   3.190   6.752   1.845 -1.7744  0.2547 -0.3792
  478TIP3    H225630   3.109   6.750   1.973 -0.5183 -0.6245  0.4311
  479TIP3   OH225631   5.866   1.581   8.994 -0.1062 -0.7775 -0.2984
  479TIP3    H125632   5.829   1.667   9.012  1.7728  0.3153 -1.3682
  479TIP3    H225633   5.869   1.538   9.080 -4.4169 -1.3301 -0.1838
  480TIP3   OH225634   6.804   7.002   8.823  0.7806 -0.2727  0.2484
  480TIP3    H125635   6.874   7.038   8.768  0.3672 -0.2376 -0.2571
  480TIP3    H225636   6.814   7.047   8.907 -1.1171  2.8094 -1.0181
  481TIP3   OH225637   1.942   2.971   0.789  0.1395  0.7905 -0.1739
  481TIP3    H125638   1.881   3.040   0.817  0.4015  0.5031  1.1985
  481TIP3    H225639   2.026   3.016   0.779  0.1488  0.8168  0.0056
  482TIP3   OH225640   1.692   6.416   2.295 -0.1962  0.3831 -0.1119
  482TIP3    H125641   1.783   6.447   2.295 -0.0431 -0.0095  0.8228
  482TIP3    H225642   1.696   6.333   2.247 -0.2964  0.9784 -1.1552
  483TIP3   OH225643   3.141   7.196   7.948  0.1982 -0.0651 -0.1318
  483TIP3    H125644   3.143   7.104   7.975  1.7588 -0.2529 -0.7386
  483TIP3    H225645   3.232   7.216   7.925 -0.0759  1.6928  0.1580
  484TIP3   OH225646   0.582   3.170   9.858  0.3209 -0.1537  0.2867
  484TIP3    H125647   0.615   3.228   9.927  1.9165 -1.5107  0.7225
  484TIP3    H225648   0.525   3.109   9.903 -0.3817  0.3013  0.0272
  485TIP3   OH225649   2.638   1.995   1.361  0.1626 -0.1817  0.2241
  485TIP3    H125650   2.663   1.983   1.453 -0.7853 -1.4836  0.3473
  485TIP3    H225651   2.569   1.930   1.347 -2.4920  2.5059 -0.3228
  486TIP3   OH225652   7.321   2.100   7.845 -0.3467  0.2441  0.6457
  486TIP3    H125653   7.284   2.187   7.827  0.0620 -0.1549 -2.7720
  486TIP3    H225654   7.246   2.047   7.870 -0.9818  1.0384  0.4748
  487TIP3   OH225655   6.391   7.067   0.948  0.1576 -0.3145  0.0027
  487TIP3    H125656   6.346   7.030   0.871  1.7273 -1.9671 -0.2025
  487TIP3    H225657   6.369   7.007   1.019 -1.0277  1.0328  0.8278
  488TIP3   OH225658   3.874   0.407   1.542  0.7532  0.0631 -0.0528
  488TIP3    H125659   3.857   0.341   1.609  2.2749 -2.5997 -2.0687
  488TIP3    H225660   3.791   0.418   1.496  0.6050 -0.9550 -0.0442
  489TIP3   OH225661   4.633   0.996   7.683 -0.7568  0.4456 -0.3501
  489TIP3    H125662   4.552   1.047   7.681 -1.0988 -0.1033 -1.7905
  489TIP3    H225663   4.604   0.905   7.683 -0.1447  0.2085  1.6520
  490TIP3   OH225664   5.369   1.513   0.373  0.2129  0.0270 -0.5684
  490TIP3    H125665   5.381   1.531   0.280  0.1676 -1.7061 -0.9432
  490TIP3    H225666   5.455   1.532   0.411  0.4823 -0.0920 -1.1045
  491TIP3   OH225667   4.779   1.216   9.924 -0.0832  0.2464 -0.6766
  491TIP3    H125668   4.823   1.143   9.880  0.2330 -0.4788  0.7433
  491TIP3    H225669   4.849   1.258   9.975 -0.2190  1.6902 -1.6236
  492TIP3   OH225670   0.904   7.358   1.738  0.4918  0.4618  0.2223
  492TIP3    H125671   0.921   7.411   1.816 -1.1774 -1.0777  1.7583
  492TIP3    H225672   0.965   7.284   1.745 -0.4281 -0.2781  0.7551
  493TIP3   OH225673   0.596   3.743   8.145 -0.0038 -0.2348  0.2282
  493TIP3    H125674   0.614   3.767   8.054 -0.1558 -1.0383 -0.0180
  493TIP3    H225675   0.655   3.671   8.164  1.0657  0.8563  1.2411
  494TIP3   OH225676   2.003   0.685   6.651  0.0030 -0.3656  0.3786
  494TIP3    H125677   1.977   0.625   6.581 -0.1017 -0.1880  0.2649
  494TIP3    H225678   2.041   0.628   6.718  0.6235 -0.4838 -0.0614
  495TIP3   OH225679   2.321   4.083   7.654  0.0165  0.5152  0.0203
  495TIP3    H125680   2.309   4.069   7.748 -0.5592  0.5458 -0.0423
  495TIP3    H225681   2.279   4.007   7.613 -1.4213  1.4129 -0.2595
  496TIP3   OH225682   2.740   3.193   7.689 -0.2166 -0.3562 -0.2952
  496TIP3    H125683   2.823   3.147   7.688 -0.4706 -1.0295  2.1714
  496TIP3    H225684   2.761   3.284   7.668  0.9640 -0.7247 -0.7307
  497TIP3   OH225685   6.617   5.692   9.452  0.1667  0.0954  0.2068
  497TIP3    H125686   6.616   5.631   9.378  1.0396  0.7407 -0.3475
  497TIP3    H225687   6.531   5.681   9.492 -0.1664 -0.5756 -0.6491
  498TIP3   OH225688   0.251   1.149   1.741  0.2742  0.1948  0.5301
  498TIP3    H125689   0.232   1.145   1.835  2.1080  0.0385  0.9379
  498TIP3    H225690   0.313   1.222   1.732 -0.4998  0.7331 -0.6961
  499TIP3   OH225691   0.699   5.717   1.365  0.2364 -0.0386  0.0946
  499TIP3    H125692   0.633   5.650   1.350 -4.3544  3.2063  3.0065
  499TIP3    H225693   0.730   5.741   1.278 -2.2693 -1.9959 -1.4635
  500TIP3   OH225694   0.543   5.401   7.394 -0.4796 -0.3140 -0.3679
  500TIP3    H125695   0.602   5.470   7.364 -1.1603  0.8712  0.8732
  500TIP3    H225696   0.472   5.401   7.330 -2.3008  2.7072  1.3792
  501TIP3   OH225697   6.746   1.847   7.989 -0.1847 -0.0889 -0.3720
  501TIP3    H125698   6.659   1.881   8.011 -0.1150  0.4501 -0.8885
  501TIP3    H225699   6.806   1.917   8.014  0.0395 -0.1978 -0.5996
  502TIP3   OH225700   0.312   6.269   1.301  0.3490  0.1012 -0.9122
  502TIP3    H125701   0.338   6.205   1.235 -0.2457 -1.9716  0.7579
  502TIP3    H225702   0.281   6.216   1.375 -1.2942  2.3280  0.1161
  503TIP3   OH225703   3.783   4.982   0.713 -0.2542 -0.4420 -1.1947
  503TIP3    H125704   3.732   5.049   0.668 -0.0151  0.1382 -0.6245
  503TIP3    H225705   3.836   4.941   0.645 -1.4999 -1.0825 -1.8017
  504TIP3   OH225706   1.835   2.416   8.881 -0.3988 -0.2780 -0.5804
  504TIP3    H125707   1.795   2.391   8.964  1.4129 -0.8107  0.1639
  504TIP3    H225708   1.780   2.488   8.849 -0.4439  0.7660  1.6725
  505TIP3   OH225709   0.664   4.593   2.448 -0.2838  0.6156  0.0758
  505TIP3    H125710   0.691   4.653   2.378  3.1025  0.4566  1.0534
  505TIP3    H225711   0.626   4.518   2.401  0.5599  1.1260 -1.5140
  506TIP3   OH225712   3.518   6.251   1.964 -0.4556 -0.0042 -0.3857
  506TIP3    H125713   3.532   6.251   1.869  2.1450 -0.8102 -0.1006
  506TIP3    H225714   3.476   6.166   1.982 -1.1029  0.2203 -0.8161
  507TIP3   OH225715   4.140   4.305   0.797 -0.0176 -0.0751 -0.5423
  507TIP3    H125716   4.170   4.274   0.712  0.7108  0.4395 -0.4789
  507TIP3    H225717   4.215   4.295   0.855 -0.6712 -0.9517  0.1963
  508TIP3   OH225718   4.767   6.765   1.573  0.0243 -0.2184 -0.1912
  508TIP3    H125719   4.817   6.846   1.582  0.0919 -0.3915  1.4157
  508TIP3    H225720   4.684   6.783   1.616 -0.4949 -0.5904 -1.0129
  509TIP3   OH225721   5.705   6.283   8.347  0.1380  0.1150  0.2535
  509TIP3    H125722   5.654   6.208   8.316 -1.8732  1.3136  0.4989
  509TIP3    H225723   5.647   6.326   8.410  1.8855  0.9902  1.3342
  510TIP3   OH225724   1.341   2.117   2.287 -0.1702  0.6717 -0.6141
  510TIP3    H125725   1.283   2.192   2.301  0.1503  1.2409 -2.1740
  510TIP3    H225726   1.377   2.130   2.200 -0.6523 -1.6756 -1.2396
  511TIP3   OH225727   0.057   4.525   7.711  0.3037  0.1016  0.2856
  511TIP3    H125728   0.125   4.462   7.733  1.1685 -0.6176 -3.6441
  511TIP3    H225729   0.024   4.495   7.626 -2.2582  2.5887  0.2800
  512TIP3   OH225730   2.585   6.161   9.794 -0.2449 -0.6630 -0.2154
  512TIP3    H125731   2.527   6.235   9.774  0.3528 -0.5692 -1.7355
  512TIP3    H225732   2.641   6.153   9.717  0.4548 -2.0008  0.3995
  513TIP3   OH225733   7.326   2.086   9.221 -0.1556 -0.4777 -0.1947
  513TIP3    H125734   7.251   2.141   9.197  0.4474  0.1006 -0.7865
  513TIP3    H225735   7.303   1.999   9.191 -0.0618 -0.0553 -1.5431
  514TIP3   OH225736   7.148   1.034   8.402  0.6359 -0.1022  0.2119
  514TIP3    H125737   7.112   1.086   8.474  1.0136  0.2372  0.1584
  514TIP3    H225738   7.221   1.086   8.369  0.5717 -0.3391 -0.3074
  515TIP3   OH225739   3.443   0.983   2.718 -0.1765  0.0318  0.1740
  515TIP3    H125740   3.511   1.040   2.752 -0.4465  0.6694 -0.3371
  515TIP3    H225741   3.476   0.894   2.735  0.3316  0.3295  0.7937
  516TIP3   OH225742   3.881   7.241   9.121  0.0439  0.3029  0.2183
  516TIP3    H125743   3.919   7.311   9.174  1.2591 -0.5961  0.5863
  516TIP3    H225744   3.957   7.201   9.078 -0.4437 -1.6289  1.0549
  517TIP3   OH225745   3.691   3.881   1.121  0.1005  0.0075 -0.3255
  517TIP3    H125746   3.655   3.829   1.194 -2.0233  1.5362 -0.1773
  517TIP3    H225747   3.704   3.968   1.158 -1.4674  0.9465 -1.8198
  518TIP3   OH225748   3.399   7.292   7.623 -0.4827 -0.5356  0.4311
  518TIP3    H125749   3.319   7.343   7.616 -0.0587 -0.1032 -2.7337
  518TIP3    H225750   3.466   7.347   7.582  1.6587 -0.6101  3.5286
  519TIP3   OH225751   7.267   1.336   9.148  0.3754 -0.3698  0.2614
  519TIP3    H125752   7.344   1.325   9.204 -0.7963 -3.1406  1.4759
  519TIP3    H225753   7.259   1.431   9.139  2.2462  0.1134  2.4847
  520TIP3   OH225754   0.611   0.049   7.463  0.1799 -0.4068 -0.4887
  520TIP3    H125755   0.669   0.111   7.420  0.9131 -1.1092 -0.5304
  520TIP3    H225756   0.541   0.103   7.500  2.1071  0.7998  1.6857
  521TIP3   OH225757   3.301   2.861   1.536 -0.2172 -0.1682 -0.2997
  521TIP3    H125758   3.309   2.955   1.553 -1.5279  0.0169 -0.6068
  521TIP3    H225759   3.271   2.825   1.619  0.0786 -0.2975 -0.2459
  522TIP3   OH225760   3.000   5.911   8.383 -0.4872  0.1792 -0.3976
  522TIP3    H125761   2.925   5.851   8.380 -0.2134 -0.2311  0.5590
  522TIP3    H225762   3.075   5.855   8.361 -0.3764  0.4417 -0.6899
  523TIP3   OH225763   0.682   6.209   1.162 -0.0371 -0.7986 -0.0011
  523TIP3    H125764   0.607   6.151   1.173 -0.6118 -0.0162  0.2236
  523TIP3    H225765   0.729   6.204   1.245  0.2450 -1.3955 -0.1907
  524TIP3   OH225766   0.730   5.530   9.885 -0.1039  0.4509  0.0385
  524TIP3    H125767   0.730   5.435   9.875 -0.5172  0.4115  0.3902
  524TIP3    H225768   0.656   5.560   9.833  0.9407  0.7420 -1.3729
  525TIP3   OH225769   3.012   0.178   9.022  0.5237 -0.3875  0.1816
  525TIP3    H125770   3.064   0.106   9.055  0.3602  0.1663  1.7172
  525TIP3    H225771   3.075   0.235   8.977  0.8675 -0.8124  0.1275
  526TIP3   OH225772   2.667   6.771   9.304  0.0516  0.1148  0.4753
  526TIP3    H125773   2.616   6.830   9.359  0.1921  0.9324 -0.2557
  526TIP3    H225774   2.725   6.725   9.365 -1.3471 -0.6500  1.2874
  527TIP3   OH225775   1.228   3.178   7.803  0.3820 -0.1771  0.1149
  527TIP3    H125776   1.282   3.112   7.760 -0.5335  0.4991 -2.2554
  527TIP3    H225777   1.220   3.148   7.894  3.5915 -0.9505  0.2607
  528TIP3   OH225778   2.187   1.959   8.013 -0.1283  0.2075 -0.0965
  528TIP3    H125779   2.266   1.908   8.031 -0.7850 -0.3027  1.4869
  528TIP3    H225780   2.212   2.017   7.941  1.4667 -0.4367 -0.1020
  529TIP3   OH225781   2.463   7.242   7.720  0.0220 -0.1216 -0.1768
  529TIP3    H125782   2.501   7.205   7.800 -1.6395 -1.1596  0.1751
  529TIP3    H225783   2.369   7.225   7.728 -0.3897  1.2799 -1.5707
  530TIP3   OH225784   0.047   3.541   8.587 -0.3175  0.2811  0.1324
  530TIP3    H125785   0.026   3.449   8.568  1.6865 -0.6302  1.8631
  530TIP3    H225786   0.012   3.556   8.675 -1.7395  1.6062 -0.6286
  531TIP3   OH225787   7.058   1.327   0.323  0.2291 -0.2890  0.4470
  531TIP3    H125788   7.086   1.322   0.414  2.2283 -1.1186 -0.1593
  531TIP3    H225789   7.000   1.251   0.311 -0.1826 -0.0746  1.0496
  532TIP3   OH225790   0.072   4.079   8.725  0.1522 -0.1921 -0.0355
  532TIP3    H125791   0.028   4.009   8.676  0.9555 -1.6938  1.2642
  532TIP3    H225792   0.003   4.120   8.777 -0.0031 -1.6452  0.9832
  533TIP3   OH225793   0.411   4.710   9.852 -0.3041 -0.1443  0.4641
  533TIP3    H125794   0.469   4.653   9.802 -1.0978  1.1884 -2.1592
  533TIP3    H225795   0.391   4.782   9.793 -3.1636  0.4076  1.9164
  534TIP3   OH225796   6.381   4.302   8.407 -0.5266  0.4161  0.0253
  534TIP3    H125797   6.346   4.346   8.329 -0.7605 -0.1967 -0.2177
  534TIP3    H225798   6.455   4.356   8.433 -0.4276  0.6123 -0.6392
  535TIP3   OH225799   3.643   0.150   2.194 -0.6289 -0.2272  0.0364
  535TIP3    H125800   3.667   0.186   2.280  0.6723 -0.3988 -0.2273
  535TIP3    H225801   3.550   0.127   2.202 -0.4866 -0.4027  1.4629
  536TIP3   OH225802   6.825   1.202   9.396  0.0108 -0.1547  0.2366
  536TIP3    H125803   6.828   1.228   9.488  0.8828 -0.1949  0.2271
  536TIP3    H225804   6.906   1.237   9.358  0.1874 -1.0688 -0.2583
  537TIP3   OH225805   7.119   3.591   9.534  0.1111  0.0729  0.0694
  537TIP3    H125806   7.182   3.592   9.606 -0.5455 -1.6460  0.7266
  537TIP3    H225807   7.171   3.607   9.456  0.8806  1.6891  0.8738
  538TIP3   OH225808   2.669   5.303   2.478 -0.3938  0.5712 -0.6981
  538TIP3    H125809   2.717   5.379   2.510 -0.8328  0.9923 -1.0266
  538TIP3    H225810   2.645   5.255   2.557  0.8434  0.1693 -0.5381
  539TIP3   OH225811   6.908   3.218   2.478  0.1088 -0.0263  0.2548
  539TIP3    H125812   6.932   3.305   2.446 -1.4127 -0.2282 -1.6077
  539TIP3    H225813   6.945   3.214   2.567  0.2508  2.4944  0.3792
  540TIP3   OH225814   7.196   5.563   9.849 -0.8400  0.5049 -0.7444
  540TIP3    H125815   7.146   5.644   9.843  0.8054  1.5252 -1.2093
  540TIP3    H225816   7.147   5.509   9.912 -0.8310  2.7337  1.2913
  541TIP3   OH225817   1.591   4.416   0.205 -0.3847 -0.1076 -0.1282
  541TIP3    H125818   1.606   4.461   0.288 -1.6896  1.2762 -0.5842
  541TIP3    H225819   1.679   4.396   0.173  0.1762  0.3674  1.0497
  542TIP3   OH225820   6.094   4.797   9.465 -0.5008 -0.1388 -0.0289
  542TIP3    H125821   6.178   4.828   9.431 -0.3623  0.4537  0.8017
  542TIP3    H225822   6.088   4.836   9.553 -1.0240 -1.2681  0.4616
  543TIP3   OH225823   7.430   1.790   2.015 -0.3770  0.4725 -0.0539
  543TIP3    H125824   7.503   1.732   1.996 -0.9695 -0.2578 -0.1337
  543TIP3    H225825   7.401   1.766   2.102 -1.5748 -0.3943 -0.6686
  544TIP3   OH225826   3.447   3.421   1.670 -1.1241  0.3891 -0.6512
  544TIP3    H125827   3.473   3.361   1.600 -1.2228 -0.7803  0.2740
  544TIP3    H225828   3.525   3.474   1.686 -0.3585 -0.8631 -0.1310
  545TIP3   OH225829   0.950   5.322   9.495  0.2069 -0.7695  0.4259
  545TIP3    H125830   0.945   5.234   9.457  0.8024 -0.0758 -1.3947
  545TIP3    H225831   0.959   5.307   9.589 -0.1133 -2.6395  0.2030
  546TIP3   OH225832   0.438   3.030   0.094 -0.3538 -0.0344  0.1137
  546TIP3    H125833   0.433   2.958   0.031 -0.6490  1.2864 -1.4135
  546TIP3    H225834   0.347   3.055   0.109 -0.3218 -0.6277  1.4601
  547TIP3   OH225835   1.243   4.896   3.092  0.4204  0.0084 -0.1871
  547TIP3    H125836   1.228   4.859   3.179 -0.1091  0.2025 -0.1927
  547TIP3    H225837   1.166   4.949   3.074  0.2288 -0.5245 -1.0368
  548TIP3   OH225838   2.650   4.409   9.840 -0.1777  0.1816  0.2350
  548TIP3    H125839   2.641   4.390   9.747  0.8450  0.4173  0.0729
  548TIP3    H225840   2.605   4.493   9.852  0.7048  0.7565 -0.3018
  549TIP3   OH225841   7.421   5.922   0.267 -0.3619  0.0222 -0.1886
  549TIP3    H125842   7.380   5.857   0.325 -1.9628  1.0685 -0.0887
  549TIP3    H225843   7.383   6.005   0.294  1.8377  1.0774 -0.1477
  550TIP3   OH225844   0.833   0.928   0.914 -0.4798 -0.5713 -0.4852
  550TIP3    H125845   0.767   0.859   0.902 -1.0755 -0.4286  1.6207
  550TIP3    H225846   0.901   0.887   0.967  0.3202 -0.2179 -1.2279
  551TIP3   OH225847   4.698   5.729   9.282 -0.0103  0.1582  0.2793
  551TIP3    H125848   4.678   5.823   9.285  1.5288  0.5476 -0.5494
  551TIP3    H225849   4.658   5.693   9.361 -0.7223  1.4948  0.5467
  552TIP3   OH225850   2.482   0.119   2.314 -0.0766  0.0317  0.2085
  552TIP3    H125851   2.507   0.027   2.323 -0.2528  0.0664  1.1731
  552TIP3    H225852   2.532   0.164   2.382 -1.0066  0.4480  0.6269
  553TIP3   OH225853   1.644   4.108   7.728  0.8357 -0.2154 -0.0714
  553TIP3    H125854   1.661   4.028   7.778 -0.2061 -0.5873 -0.2785
  553TIP3    H225855   1.604   4.077   7.647 -0.1391  0.5492  0.1018
  554TIP3   OH225856   1.997   4.739   0.610 -0.2295 -0.0516  0.2484
  554TIP3    H125857   2.052   4.743   0.688 -0.4621  1.3092  0.3763
  554TIP3    H225858   1.928   4.804   0.626 -0.5988 -0.1428 -0.8534
  555TIP3   OH225859   6.231   2.533   0.830 -0.2790  0.3583  0.3579
  555TIP3    H125860   6.168   2.485   0.883 -0.6639  1.0319  0.5161
  555TIP3    H225861   6.216   2.502   0.741 -0.4663  0.1298  0.4668
  556TIP3   OH225862   5.888   1.702   2.055 -0.1435 -0.1340 -0.4092
  556TIP3    H125863   5.855   1.678   1.969 -0.0887 -0.8033 -0.2480
  556TIP3    H225864   5.827   1.767   2.087  0.4611  0.9771 -1.4249
  557TIP3   OH225865   0.122   4.692   0.116  0.4994 -0.2067 -0.0696
  557TIP3    H125866   0.169   4.609   0.105  0.3212 -0.1402 -1.4984
  557TIP3    H225867   0.099   4.719   0.027 -2.2079 -0.2120  0.5219
  558TIP3   OH225868   5.484   2.465   8.674 -0.3525  0.3402  0.2613
  558TIP3    H125869   5.393   2.456   8.701 -0.5958  1.5519 -0.0746
  558TIP3    H225870   5.506   2.556   8.693  0.8885 -0.0104  0.6081
  559TIP3   OH225871   2.100   4.774   1.397 -0.3374 -0.0124 -0.0350
  559TIP3    H125872   2.177   4.827   1.378  1.2940 -1.8000  1.1927
  559TIP3    H225873   2.114   4.743   1.487 -2.8494  0.1359  0.5038
  560TIP3   OH225874   4.825   5.730   8.672  0.0870  0.0779 -0.2473
  560TIP3    H125875   4.866   5.785   8.605 -2.0249 -0.1829 -1.8654
  560TIP3    H225876   4.882   5.653   8.677  1.8743  1.3724  0.4531
  561TIP3   OH225877   4.603   7.146   8.169  0.3354 -0.3739 -0.6123
  561TIP3    H125878   4.517   7.174   8.201  1.6011  0.8440  2.0419
  561TIP3    H225879   4.656   7.226   8.171  1.7058 -1.2141 -1.6670
  562TIP3   OH225880   7.212   1.292   0.080 -0.2607 -0.2495  0.6258
  562TIP3    H125881   7.305   1.286   0.103 -0.2454  0.1536  0.6777
  562TIP3    H225882   7.170   1.321   0.161 -0.5409 -1.1843  0.8274
  563TIP3   OH225883   0.447   0.927   2.467 -0.0221  0.3444 -0.2229
  563TIP3    H125884   0.428   0.956   2.557 -0.8316 -0.9969  0.0594
  563TIP3    H225885   0.365   0.939   2.420  0.2383  0.5029 -0.6381
  564TIP3   OH225886   6.590   6.266   1.359 -0.2215  0.1822 -0.1170
  564TIP3    H125887   6.640   6.308   1.289  1.7335 -1.1185  0.4101
  564TIP3    H225888   6.504   6.250   1.321  0.0181  1.6947 -1.3775
  565TIP3   OH225889   0.908   1.774   9.999 -0.0330 -0.1945  0.2781
  565TIP3    H125890   0.988   1.727  10.022  0.3771  0.2609 -0.1814
  565TIP3    H225891   0.837   1.717  10.029  0.4590 -0.1653  1.5745
  566TIP3   OH225892   3.102   0.621   1.516  0.0960 -0.1362 -0.3762
  566TIP3    H125893   3.132   0.610   1.606 -0.3936 -1.1030 -0.3156
  566TIP3    H225894   3.051   0.541   1.498 -1.4852  0.9241 -0.8406
  567TIP3   OH225895   1.526   5.583   7.865 -0.5389  0.3091 -0.1779
  567TIP3    H125896   1.589   5.624   7.806  0.5995 -1.8778 -0.5823
  567TIP3    H225897   1.525   5.640   7.942  2.4669  0.1334  0.1087
  568TIP3   OH225898   1.586   4.414   9.266  0.0185 -0.3835 -0.0053
  568TIP3    H125899   1.492   4.420   9.254  0.0205 -0.8152 -0.2296
  568TIP3    H225900   1.608   4.492   9.318 -0.0467  1.3064 -2.3683
  569TIP3   OH225901   1.602   3.715   7.124 -0.6428 -0.3569  0.1968
  569TIP3    H125902   1.569   3.635   7.082 -0.3065 -0.5500  0.3001
  569TIP3    H225903   1.687   3.730   7.083 -0.8469  0.1377 -0.0589
  570TIP3   OH225904   3.929   2.068   0.593 -0.0543 -0.3149 -0.7756
  570TIP3    H125905   3.914   1.982   0.554 -0.5082 -1.6864  2.1834
  570TIP3    H225906   4.012   2.097   0.555  0.3700 -2.2603 -1.4587
  571TIP3   OH225907   2.613   0.130   9.268  0.3227 -0.3552 -0.0072
  571TIP3    H125908   2.525   0.144   9.234  0.9762  1.2324 -1.2276
  571TIP3    H225909   2.650   0.062   9.211  0.4315  0.2165 -0.6435
  572TIP3   OH225910   1.318   2.431   0.017  0.0203  0.0183 -0.0037
  572TIP3    H125911   1.224   2.450   0.014  0.2208  0.9691 -1.0379
  572TIP3    H225912   1.357   2.512   0.051  0.3131 -1.1346  2.6554
  573TIP3   OH225913   7.065   5.512   8.374  0.0917 -0.0638  0.1417
  573TIP3    H125914   7.067   5.604   8.348  0.3972  0.7077  2.6093
  573TIP3    H225915   7.150   5.497   8.416  0.0718 -1.5210 -0.2547
  574TIP3   OH225916   1.217   3.947   8.814  0.5347 -0.4812  0.1799
  574TIP3    H125917   1.186   3.959   8.724  1.6986 -1.1497 -0.3294
  574TIP3    H225918   1.183   3.861   8.840 -1.8810  0.6960  1.3171
  575TIP3   OH225919   2.641   0.835   3.164 -0.7221 -0.4882  0.6640
  575TIP3    H125920   2.552   0.802   3.154 -0.6090 -1.5021  2.5349
  575TIP3    H225921   2.695   0.775   3.113 -1.1585  0.6783 -1.2553
  576TIP3   OH225922   2.347   5.197   1.039  0.3977  0.2813  0.0435
  576TIP3    H125923   2.339   5.131   1.108 -0.9823  0.5821  0.1873
  576TIP3    H225924   2.344   5.147   0.958 -1.1623  0.1760  0.1374
  577TIP3   OH225925   2.367   5.788   8.121 -0.6071 -0.0102 -0.2108
  577TIP3    H125926   2.458   5.780   8.150 -0.4050  4.3039  1.0056
  577TIP3    H225927   2.374   5.822   8.031 -1.1523 -1.9889 -1.0631
  578TIP3   OH225928   6.547   4.263   8.048  0.8916 -0.0120 -0.6429
  578TIP3    H125929   6.545   4.300   7.960  1.5131 -1.6411 -1.3835
  578TIP3    H225930   6.636   4.279   8.080  0.7092  0.4531 -0.3576
  579TIP3   OH225931   0.720   4.128   7.703  0.6661  0.8356  0.6119
  579TIP3    H125932   0.722   4.090   7.615  1.9184  0.1444  0.9195
  579TIP3    H225933   0.628   4.125   7.729  0.4332  0.1082 -0.2694
  580TIP3   OH225934   4.728   0.787   8.220  0.3784  0.3869 -0.5798
  580TIP3    H125935   4.676   0.808   8.142 -0.3540 -0.2623 -0.2834
  580TIP3    H225936   4.755   0.873   8.253  0.3467  0.6910 -1.3109
  581TIP3   OH225937   1.385   3.683   8.640 -0.6133  0.4730  0.2278
  581TIP3    H125938   1.401   3.755   8.578  0.4703  0.2673  0.2450
  581TIP3    H225939   1.294   3.695   8.667 -0.3958  1.9837  0.3987
  582TIP3   OH225940   0.557   0.542   1.197  0.1564  0.3709  0.2937
  582TIP3    H125941   0.475   0.501   1.168 -0.7973  1.9455  0.6313
  582TIP3    H225942   0.558   0.528   1.292  0.2341  0.4290  0.3007
  583TIP3   OH225943   0.375   6.621   9.251  0.3506  0.4360 -0.2360
  583TIP3    H125944   0.414   6.563   9.186 -1.3087 -1.6713  0.5524
  583TIP3    H225945   0.431   6.612   9.328  0.7595  0.8069 -0.4877
  584TIP3   OH225946   3.297   1.898   0.507  0.1396  0.5968 -0.1882
  584TIP3    H125947   3.382   1.928   0.475  0.8480 -0.8507  0.2337
  584TIP3    H225948   3.234   1.935   0.445  1.1702  0.7449 -1.1872
  585TIP3   OH225949   5.786   2.093   8.884  0.2680 -0.1747  0.2492
  585TIP3    H125950   5.730   2.016   8.894 -0.8189  0.7728  2.0445
  585TIP3    H225951   5.738   2.152   8.826 -0.1322  0.1918  0.9349
  586TIP3   OH225952   0.558   3.011   7.375 -0.2790 -0.1997  0.1127
  586TIP3    H125953   0.614   3.066   7.321  0.8772 -2.0030 -0.6120
  586TIP3    H225954   0.478   3.000   7.324  0.0172 -0.2527 -0.3461
  587TIP3   OH225955   1.419   7.316   0.928 -0.2764 -0.4880 -0.3458
  587TIP3    H125956   1.458   7.242   0.882  1.3065  0.5390 -0.7356
  587TIP3    H225957   1.493   7.361   0.969 -1.2591  0.5801  0.3363
  588TIP3   OH225958   0.468   6.910   8.232 -0.2461 -0.4097 -0.3695
  588TIP3    H125959   0.533   6.852   8.272  0.7928  0.5979 -0.5284
  588TIP3    H225960   0.493   6.912   8.139  0.4110  1.1127 -0.1844
  589TIP3   OH225961   4.895   2.206   7.489 -0.2888 -0.2164  0.0970
  589TIP3    H125962   4.830   2.175   7.552 -1.6505 -0.5843 -1.4087
  589TIP3    H225963   4.953   2.131   7.475 -0.6824 -0.5124  0.0439
  590TIP3   OH225964   5.533   1.180   0.972  0.5592  0.5424  0.2535
  590TIP3    H125965   5.566   1.172   0.882  0.4943 -1.9321  0.3773
  590TIP3    H225966   5.438   1.173   0.963  0.5253  0.7049  0.4832
  591TIP3   OH225967   3.681   4.109   8.808  0.5454  0.0009  0.1255
  591TIP3    H125968   3.716   4.152   8.886 -1.9232  1.5088  0.5150
  591TIP3    H225969   3.618   4.045   8.843 -1.2144  1.2780 -0.5422
  592TIP3   OH225970   1.216   1.551   8.035 -0.4372 -0.1332 -0.1660
  592TIP3    H125971   1.280   1.622   8.029 -0.0014 -0.6163 -1.7871
  592TIP3    H225972   1.160   1.576   8.108  2.6534 -0.5953  2.6116
  593TIP3   OH225973   4.083   5.283   8.041  0.6854 -0.0873  0.6345
  593TIP3    H125974   4.162   5.243   8.078  1.5710  2.1092  1.3017
  593TIP3    H225975   4.116   5.347   7.978 -0.6647 -0.5077 -0.5397
  594TIP3   OH225976   4.306   0.307   2.597  1.2234  0.2220 -0.3094
  594TIP3    H125977   4.245   0.370   2.633  1.3312 -1.2564  2.8351
  594TIP3    H225978   4.389   0.354   2.591  1.0502  0.7131  0.9116
  595TIP3   OH225979   0.903   1.332   9.685 -0.3037 -0.0709 -0.1807
  595TIP3    H125980   0.813   1.346   9.657 -0.4309 -0.0801  0.2139
  595TIP3    H225981   0.956   1.381   9.622 -0.7371  2.1391  1.0613
  596TIP3   OH225982   3.037   0.078   7.386  0.5850 -0.6412  0.5513
  596TIP3    H125983   2.975   0.148   7.370  0.9541 -0.1722  1.1074
  596TIP3    H225984   3.069   0.052   7.299  0.8254  0.2325  0.3731
  597TIP3   OH225985   3.686   4.548   8.299 -0.5788  0.2953  0.3780
  597TIP3    H125986   3.781   4.551   8.313 -0.3012  2.2466 -1.4304
  597TIP3    H225987   3.659   4.640   8.296 -2.3034 -0.1922 -0.4622
  598TIP3   OH225988   4.220   3.282   1.040 -0.3670  0.1848 -0.1740
  598TIP3    H125989   4.178   3.284   0.954  0.0676 -0.9891 -0.4389
  598TIP3    H225990   4.244   3.190   1.053 -0.2620  0.3683  1.1268
  599TIP3   OH225991   2.472   4.147   1.292 -0.0426  0.9957 -0.0605
  599TIP3    H125992   2.416   4.216   1.325  0.0762  0.7994  0.5831
  599TIP3    H225993   2.560   4.171   1.322 -0.1365  0.0744  1.0573
  600TIP3   OH225994   5.117   4.176   0.277  0.2031  0.0855  0.1455
  600TIP3    H125995   5.098   4.213   0.363  1.0535  0.2722  0.2670
  600TIP3    H225996   5.067   4.231   0.216 -0.0379  0.2452  0.4809
  601TIP3   OH225997   4.313   0.174   1.938  0.3365 -0.0040  0.8571
  601TIP3    H125998   4.234   0.134   1.976 -0.0476  1.0519  1.2062
  601TIP3    H225999   4.381   0.108   1.950 -0.8868 -1.7731 -1.2481
  602TIP3   OH226000   3.744   1.492   1.194 -0.5639  0.5987 -0.1573
  602TIP3    H126001   3.762   1.539   1.113  2.0582 -0.5167 -0.3274
  602TIP3    H226002   3.829   1.458   1.222 -2.0813 -3.3311  0.3788
  603TIP3   OH226003   5.404   4.765   1.359 -0.1267  0.5437  0.6906
  603TIP3    H126004   5.353   4.704   1.305  1.4975 -1.1325  0.9265
  603TIP3    H226005   5.422   4.716   1.439  0.8245  1.5211  1.1042
  604TIP3   OH226006   4.315   1.586   8.147  0.1531  0.0738 -0.4097
  604TIP3    H126007   4.267   1.522   8.198  1.2617 -2.5990 -2.4480
  604TIP3    H226008   4.248   1.640   8.106 -0.7872  1.0274  2.1840
  605TIP3   OH226009   6.138   0.838   8.072  0.6910  0.4321  0.5585
  605TIP3    H126010   6.057   0.833   8.021  1.0004 -0.4375  0.1248
  605TIP3    H226011   6.207   0.815   8.010  1.2324  0.7758  1.0204
  606TIP3   OH226012   1.803   2.937   7.595  0.1248  0.1349 -0.1500
  606TIP3    H126013   1.765   3.008   7.647  0.4872  0.3250 -0.1395
  606TIP3    H226014   1.896   2.957   7.592  0.1930 -0.2069 -0.3610
  607TIP3   OH226015   7.151   0.435   0.599 -0.0926  0.1476  0.6423
  607TIP3    H126016   7.217   0.493   0.635  2.8457 -2.5798  0.1283
  607TIP3    H226017   7.122   0.381   0.673  0.4439 -0.5698  0.3419
  608TIP3   OH226018   4.540   6.701   2.939 -0.1563 -0.5016  0.2626
  608TIP3    H126019   4.596   6.698   2.862  2.2603 -1.2823  1.9029
  608TIP3    H226020   4.552   6.790   2.974 -3.0670  0.6726 -1.3786
  609TIP3   OH226021   0.356   2.678   0.376  0.0350 -0.0406 -0.6832
  609TIP3    H126022   0.326   2.769   0.378  1.3670  0.4089  0.0333
  609TIP3    H226023   0.314   2.637   0.452 -0.2772  0.0709 -0.7961
  610TIP3   OH226024   6.508   5.921   0.065 -0.0088  0.2173 -0.6828
  610TIP3    H126025   6.548   6.003   0.094 -1.8658  0.8495  0.2627
  610TIP3    H226026   6.582   5.868   0.035  1.4499  1.5387  0.3765
  611TIP3   OH226027   0.410   0.462   7.842  0.0063 -0.2903 -0.3163
  611TIP3    H126028   0.465   0.505   7.907 -1.0778  0.9859 -0.2104
  611TIP3    H226029   0.406   0.523   7.769 -2.3082  0.2921  0.2092
  612TIP3   OH226030   6.616   1.121   9.697 -0.0126  0.1248  0.2760
  612TIP3    H126031   6.637   1.049   9.638  0.3021  0.0962  0.4215
  612TIP3    H226032   6.698   1.140   9.742 -0.2011  0.2799  0.5588
  613TIP3   OH226033   3.243   3.322   9.661  0.6663  0.1724  0.4531
  613TIP3    H126034   3.311   3.258   9.684 -0.4631 -0.8603  1.0516
  613TIP3    H226035   3.164   3.269   9.649  0.4966  1.0076 -2.9430
  614TIP3   OH226036   0.340   3.781   1.273 -0.2340  0.2543 -0.2593
  614TIP3    H126037   0.314   3.820   1.357  1.0079  0.8276 -0.1315
  614TIP3    H226038   0.355   3.855   1.215 -0.5039 -0.1274 -0.8292
  615TIP3   OH226039   1.169   6.113   9.889  0.2334 -0.4107 -0.0664
  615TIP3    H126040   1.227   6.136   9.962  1.3571  0.8992 -1.3214
  615TIP3    H226041   1.157   6.018   9.897  1.9322 -0.5978  0.6865
  616TIP3   OH226042   3.722   1.210   7.014 -0.3170  0.9240 -0.3263
  616TIP3    H126043   3.633   1.182   6.993 -0.1488 -0.8022  1.0754
  616TIP3    H226044   3.711   1.280   7.077 -0.6817  1.0327 -0.5060
  617TIP3   OH226045   5.236   4.023   9.479 -0.3540  0.4315  0.1016
  617TIP3    H126046   5.262   4.102   9.527  2.1274  0.7465 -1.5901
  617TIP3    H226047   5.153   4.046   9.438 -0.9062  1.2564  1.5931
  618TIP3   OH226048   7.315   5.805   2.407 -0.1910  0.5351 -0.0679
  618TIP3    H126049   7.228   5.819   2.370 -0.4827 -1.2319 -0.1531
  618TIP3    H226050   7.372   5.866   2.359 -0.7858 -0.7270 -2.5888
  619TIP3   OH226051   3.362   3.602   1.461  0.1032  0.1957 -0.6396
  619TIP3    H126052   3.395   3.669   1.401  2.7256  0.2459  0.7173
  619TIP3    H226053   3.386   3.519   1.420 -1.3548  0.0878 -1.3455
  620TIP3   OH226054   1.687   4.187   9.410  0.5402 -0.4523 -0.0753
  620TIP3    H126055   1.613   4.142   9.450  0.2840 -0.3594 -0.4481
  620TIP3    H226056   1.649   4.264   9.369  0.8955 -0.2093  0.0445
  621TIP3   OH226057   0.517   4.986   8.454 -0.0816  0.5853 -0.3124
  621TIP3    H126058   0.524   4.895   8.425 -2.3748 -0.0718  0.9554
  621TIP3    H226059   0.538   5.037   8.375  1.1667 -0.9942 -1.0764
  622TIP3   OH226060   5.957   6.089   8.256  0.0212  0.3517 -0.0651
  622TIP3    H126061   5.923   6.067   8.169  0.4832 -1.8658  0.2640
  622TIP3    H226062   6.015   6.016   8.278  1.6991  1.9780  1.1795
  623TIP3   OH226063   7.135   7.327   7.716  0.0800  0.0830 -0.4269
  623TIP3    H126064   7.091   7.247   7.745  1.9452 -0.5481  0.8596
  623TIP3    H226065   7.066   7.394   7.716 -0.8665 -0.8191  1.5906
  624TIP3   OH226066   3.692   5.310   2.437 -0.4829 -0.4446  0.1341
  624TIP3    H126067   3.679   5.382   2.499  0.6187 -0.1430  0.0428
  624TIP3    H226068   3.783   5.284   2.451  0.0974  0.2665 -1.9992
  625TIP3   OH226069   2.418   3.351   7.495 -0.4426  0.0798 -0.1971
  625TIP3    H126070   2.433   3.263   7.531 -0.0657  0.1937 -0.0758
  625TIP3    H226071   2.460   3.409   7.558 -0.1661  0.3112 -0.5979
  626TIP3   OH226072   1.939   2.700   0.778  0.0215 -0.4186  0.0260
  626TIP3    H126073   1.943   2.656   0.864  0.3390  0.7804  0.6447
  626TIP3    H226074   1.921   2.791   0.799 -4.1895 -0.7092 -1.3815
  627TIP3   OH226075   4.662   4.355   9.836 -0.2052 -0.3066 -0.3800
  627TIP3    H126076   4.672   4.311   9.751  0.2534 -0.7890 -0.0845
  627TIP3    H226077   4.596   4.423   9.821 -0.7141 -0.9087 -0.9286
  628TIP3   OH226078   0.620   5.947   7.669 -0.1713 -0.0789 -0.1641
  628TIP3    H126079   0.568   6.003   7.726  1.0808  1.1924 -0.2104
  628TIP3    H226080   0.644   5.872   7.725 -1.9468 -0.6578 -0.1346
  629TIP3   OH226081   6.537   0.712   8.751 -0.2359 -0.3339  0.3529
  629TIP3    H126082   6.481   0.641   8.782 -0.4120 -0.6509 -0.6588
  629TIP3    H226083   6.622   0.696   8.792  0.4317 -2.5275 -1.6740
  630TIP3   OH226084   4.872   6.956   9.417 -0.2088 -0.3677 -0.0051
  630TIP3    H126085   4.822   6.875   9.430 -2.2300  1.0242  1.4857
  630TIP3    H226086   4.820   7.006   9.355  0.7293  0.0415 -0.4731
  631TIP3   OH226087   5.049   6.981   0.107  0.0277  0.5277  0.5103
  631TIP3    H126088   5.080   7.036   0.035 -0.2215  0.1783  0.1353
  631TIP3    H226089   5.124   6.924   0.126  0.3712  1.1453  1.0599
  632TIP3   OH226090   3.825   7.233   1.380 -0.1867 -0.5891 -0.1074
  632TIP3    H126091   3.752   7.224   1.441 -0.2651 -0.8584 -0.2363
  632TIP3    H226092   3.888   7.167   1.408 -0.1079 -0.5344 -0.1562
  633TIP3   OH226093   2.698   1.977   8.633 -0.2179 -0.0283 -0.6245
  633TIP3    H126094   2.721   2.059   8.678 -1.0388 -0.8382  1.4013
  633TIP3    H226095   2.759   1.972   8.560  1.6060  1.1381  0.7233
  634TIP3   OH226096   3.922   3.935   0.934 -0.5827  0.3532  0.1060
  634TIP3    H126097   3.844   3.894   0.970 -1.2332  0.0231 -1.5989
  634TIP3    H226098   3.983   3.938   1.008 -0.7251 -3.0684  0.5441
  635TIP3   OH226099   1.597   6.418   9.474  0.0939  0.0670  0.1584
  635TIP3    H126100   1.560   6.397   9.388  0.1342 -1.9843  0.5903
  635TIP3    H226101   1.527   6.398   9.536  1.1870 -1.9973  0.8327
  636TIP3   OH226102   1.142   1.734   2.687  0.3145  0.2695  0.2164
  636TIP3    H126103   1.060   1.779   2.707  0.2859  0.1732  0.3168
  636TIP3    H226104   1.200   1.756   2.760  0.7074  1.1508 -0.3486
  637TIP3   OH226105   3.297   6.435   1.343 -0.4370  0.0000  0.2055
  637TIP3    H126106   3.290   6.437   1.248 -0.0858 -0.5638  0.1594
  637TIP3    H226107   3.369   6.495   1.363 -2.0536  2.0248  0.3206
  638TIP3   OH226108   3.232   0.483   0.098 -0.0067  0.1036  0.5997
  638TIP3    H126109   3.153   0.436   0.126 -1.3543  2.5991  1.2853
  638TIP3    H226110   3.254   0.540   0.172  1.5505  0.5790 -0.1834
  639TIP3   OH226111   3.140   4.466   8.747  0.5855 -0.5707 -0.1309
  639TIP3    H126112   3.100   4.428   8.669  1.5379  0.7999 -1.3544
  639TIP3    H226113   3.233   4.470   8.726  0.5849  1.9679  0.0889
  640TIP3   OH226114   4.041   1.123   8.650 -0.0781  0.1766 -0.2782
  640TIP3    H126115   3.979   1.123   8.723  0.1304  1.1383 -0.0983
  640TIP3    H226116   4.086   1.038   8.657 -0.8314 -0.2069  0.0419
  641TIP3   OH226117   2.700   2.393   9.777 -0.2730  0.3447 -0.2943
  641TIP3    H126118   2.795   2.401   9.769 -0.3117  2.0593  0.4784
  641TIP3    H226119   2.665   2.435   9.698 -0.4011 -0.1943 -0.5285
  642TIP3   OH226120   2.870   2.553   8.695 -0.1916  0.5694 -0.0559
  642TIP3    H126121   2.821   2.581   8.772  1.4172  1.1865  0.8110
  642TIP3    H226122   2.942   2.500   8.730 -0.5815 -0.8694 -1.3201
  643TIP3   OH226123   3.480   5.759   8.894  0.2389  0.5074  0.0780
  643TIP3    H126124   3.447   5.836   8.846  0.4497  0.4946 -0.0870
  643TIP3    H226125   3.563   5.739   8.852  0.5296  0.6295  0.5923
  644TIP3   OH226126   1.419   6.080   0.013  0.1587  0.7965 -0.4684
  644TIP3    H126127   1.492   6.117  -0.037  0.7636 -0.0039 -0.2165
  644TIP3    H226128   1.399   5.998  -0.032  2.3587 -1.2205  1.8889
  645TIP3   OH226129   1.400   0.705   9.054 -0.8444  0.1495 -0.1869
  645TIP3    H126130   1.424   0.746   8.970 -0.8846  2.1855  0.7470
  645TIP3    H226131   1.484   0.681   9.093 -0.8027 -0.3972 -0.6020
  646TIP3   OH226132   1.536   0.936   8.213  0.7424  0.2705  0.0217
  646TIP3    H126133   1.582   1.002   8.160 -0.4628  0.2544 -1.0852
  646TIP3    H226134   1.584   0.855   8.198  1.1306  0.5158 -0.0763
  647TIP3   OH226135   3.323   6.409   0.996  0.3423  0.6098  0.4681
  647TIP3    H126136   3.282   6.488   1.032 -2.0060 -1.5356  3.0457
  647TIP3    H226137   3.417   6.425   1.001 -0.0544  3.3730  0.4176
  648TIP3   OH226138   4.216   2.762   9.485 -0.3014 -0.1956  0.0784
  648TIP3    H126139   4.190   2.671   9.468  0.3709 -0.2722 -0.5990
  648TIP3    H226140   4.258   2.790   9.404  0.8982  0.2101  0.8113
  649TIP3   OH226141   2.456   6.749   0.551  0.4075 -0.1724 -0.3760
  649TIP3    H126142   2.372   6.795   0.543 -0.1705 -1.3985 -1.7258
  649TIP3    H226143   2.481   6.761   0.643 -0.4544  1.5303 -0.3175
  650TIP3   OH226144   4.192   6.842   2.788 -0.3438  0.4567 -0.3619
  650TIP3    H126145   4.114   6.796   2.757 -0.4557  0.3363  0.0917
  650TIP3    H226146   4.222   6.892   2.712 -0.9896  0.6756 -0.4792
  651TIP3   OH226147   1.134   7.326   6.943  0.0016  0.2188  0.2025
  651TIP3    H126148   1.056   7.272   6.926  1.2693 -1.0546 -1.9962
  651TIP3    H226149   1.117   7.408   6.895  0.4812 -0.5377 -1.3257
  652TIP3   OH226150   7.103   4.573   0.183 -0.3300  0.7231  0.2613
  652TIP3    H126151   7.089   4.483   0.153 -1.6435  1.2947 -0.9248
  652TIP3    H226152   7.116   4.624   0.103  2.1200  1.3646  0.9728
  653TIP3   OH226153   0.320   1.557   8.532  0.7140  0.2985 -0.1932
  653TIP3    H126154   0.254   1.558   8.463 -0.2641  0.0708  0.7086
  653TIP3    H226155   0.285   1.616   8.599  1.4563  0.2276  0.2638
  654TIP3   OH226156   5.898   3.297   8.557 -0.4450  0.2002 -0.1543
  654TIP3    H126157   5.919   3.215   8.602 -0.3812  0.1691 -0.2401
  654TIP3    H226158   5.819   3.329   8.602  0.8462  1.2887  1.4320
  655TIP3   OH226159   1.322   3.578   2.040  0.2641 -0.1113  0.0073
  655TIP3    H126160   1.256   3.526   2.085  0.4028 -0.1313  0.1864
  655TIP3    H226161   1.396   3.583   2.101 -0.5150  2.0239  0.8516
  656TIP3   OH226162   5.127   3.964   8.052  0.0193 -0.7210 -0.6433
  656TIP3    H126163   5.130   3.947   7.958 -2.2907 -1.1104 -0.6983
  656TIP3    H226164   5.051   4.020   8.064 -0.6174 -1.8704  1.1229
  657TIP3   OH226165   0.831   5.611   2.777  0.0450 -0.3517  0.3587
  657TIP3    H126166   0.743   5.611   2.739  0.1762 -0.5160  0.0549
  657TIP3    H226167   0.888   5.586   2.705  0.6849  2.5359 -0.2694
  658TIP3   OH226168   3.260   4.708   1.689  0.1161 -0.1496  0.9012
  658TIP3    H126169   3.276   4.801   1.674  0.9749 -0.2838  0.9754
  658TIP3    H226170   3.210   4.680   1.613  0.5129  0.2060  0.5061
  659TIP3   OH226171   0.999   3.927   1.405 -0.5135 -0.1748 -0.3555
  659TIP3    H126172   0.925   3.946   1.348 -1.5785 -1.9911  0.3394
  659TIP3    H226173   1.022   3.836   1.385  1.1140  0.1551 -0.0938
  660TIP3   OH226174   2.225   6.458   0.918  0.2451  0.1377  0.7187
  660TIP3    H126175   2.160   6.524   0.942  0.2906 -0.1284  1.5845
  660TIP3    H226176   2.232   6.466   0.822 -0.0665  1.0867  0.7604
  661TIP3   OH226177   0.797   0.427   1.248 -0.4119 -0.5405  0.1160
  661TIP3    H126178   0.702   0.438   1.234 -0.7074 -2.7143  0.1629
  661TIP3    H226179   0.811   0.333   1.243  1.9610 -0.1931 -1.1222
  662TIP3   OH226180   0.084   2.079   9.398  0.0913 -0.2185  0.0688
  662TIP3    H126181   0.013   2.035   9.351  0.6803 -1.1379  0.0210
  662TIP3    H226182   0.082   2.169   9.365 -0.0908 -0.6134 -1.0344
  663TIP3   OH226183   0.175   5.324   8.650  0.3098 -0.1491  0.0973
  663TIP3    H126184   0.102   5.281   8.695  0.8392 -0.4369  0.6901
  663TIP3    H226185   0.214   5.255   8.596 -0.1732  0.1349 -0.6358
  664TIP3   OH226186   5.637   1.348   9.927  0.2199 -0.3399 -0.1067
  664TIP3    H126187   5.621   1.253   9.931  0.2613 -0.3136  0.8487
  664TIP3    H226188   5.711   1.362   9.985 -0.1120  0.3503  0.1519
  665TIP3   OH226189   2.408   7.268   9.440 -0.4208 -0.1087 -0.0552
  665TIP3    H126190   2.436   7.274   9.349  1.2439 -0.2959  0.4031
  665TIP3    H226191   2.329   7.215   9.438  1.1464 -2.5899 -1.1462
  666TIP3   OH226192   3.276   6.631   9.529 -0.1519 -0.4111  0.3695
  666TIP3    H126193   3.261   6.618   9.623  1.2950 -0.6338  0.5848
  666TIP3    H226194   3.367   6.658   9.523 -0.6365  1.0730 -0.8554
  667TIP3   OH226195   1.638   6.324   1.700 -0.0889  0.0985 -0.8809
  667TIP3    H126196   1.732   6.343   1.707  0.1291 -1.1066 -0.2992
  667TIP3    H226197   1.625   6.308   1.606  0.2109  0.6140 -1.0169
  668TIP3   OH226198   3.645   6.645   8.014 -0.5812  0.1368  0.0067
  668TIP3    H126199   3.585   6.592   8.067  0.8356 -1.3805  0.1936
  668TIP3    H226200   3.723   6.655   8.068  0.5427 -0.6333 -1.3881
  669TIP3   OH226201   0.609   5.202   0.773  0.0369  0.3079 -0.4012
  669TIP3    H126202   0.698   5.171   0.787 -0.5673 -1.3937 -0.1379
  669TIP3    H226203   0.579   5.227   0.861  0.0605  0.3539 -0.4060
  670TIP3   OH226204   7.334   4.659   2.793 -0.1884  0.1222  0.3034
  670TIP3    H126205   7.409   4.689   2.741  0.3053 -0.8000  0.4536
  670TIP3    H226206   7.302   4.737   2.837  0.6518  0.5427  0.1870
  671TIP3   OH226207   0.146   7.404   8.880  0.2255  0.3784  0.1901
  671TIP3    H126208   0.051   7.405   8.866  0.0819 -1.4918  0.6934
  671TIP3    H226209   0.174   7.320   8.843  1.0878 -0.8337  3.2272
  672TIP3   OH226210   6.228   6.257   0.419 -0.4490  0.3914  0.4186
  672TIP3    H126211   6.231   6.268   0.324  0.2242  2.8229  0.6495
  672TIP3    H226212   6.136   6.270   0.441 -0.7456 -0.9593  0.0575
  673TIP3   OH226213   2.871   7.239   2.847  0.2739  0.1783 -0.0783
  673TIP3    H126214   2.840   7.170   2.906  1.2736 -1.3057 -1.1980
  673TIP3    H226215   2.812   7.313   2.863 -0.3208 -0.6342  1.7644
  674TIP3   OH226216   4.315   1.802   0.369 -0.1892  0.4249  0.4612
  674TIP3    H126217   4.306   1.708   0.357 -0.8652  0.3159  1.6658
  674TIP3    H226218   4.241   1.840   0.321  2.1274  0.6677 -3.2543
  675TIP3   OH226219   5.719   3.967   1.723  0.3255  0.2484 -0.0626
  675TIP3    H126220   5.636   3.950   1.677 -1.5286  3.9141  1.5379
  675TIP3    H226221   5.713   3.916   1.804 -0.8552  1.1486  0.4461
  676TIP3   OH226222   7.393   3.908   2.611  0.5092  0.1358  0.3063
  676TIP3    H126223   7.411   3.997   2.641  1.5097  0.5309 -1.3633
  676TIP3    H226224   7.415   3.853   2.686 -1.2770  1.3102  1.7935
  677TIP3   OH226225   4.455   1.288   8.145  0.0651  0.4350  0.4383
  677TIP3    H126226   4.445   1.324   8.233  1.4310  2.9569 -0.3614
  677TIP3    H226227   4.367   1.255   8.123 -0.4662  0.3822  2.4434
  678TIP3   OH226228   5.031   2.989   0.406 -0.2037  0.0506  1.1562
  678TIP3    H126229   5.092   3.063   0.402 -0.9620  0.6754  0.8349
  678TIP3    H226230   5.074   2.919   0.357  0.2518  0.4921  0.9226
  679TIP3   OH226231   1.609   0.769   3.029 -0.2791 -0.7042 -0.0221
  679TIP3    H126232   1.518   0.760   3.055  0.0240 -0.8156  1.0779
  679TIP3    H226233   1.632   0.684   2.990  0.2280 -1.9072  2.6687
  680TIP3   OH226234   4.035   4.007   7.429 -0.3987  0.6865 -0.3817
  680TIP3    H126235   3.997   4.027   7.343 -0.5694 -0.9586 -0.7291
  680TIP3    H226236   4.129   4.001   7.413 -0.3555  1.0788 -0.2936
  681TIP3   OH226237   0.239   3.165   9.272 -0.4274 -0.5187  0.6912
  681TIP3    H126238   0.155   3.121   9.287  0.8279 -2.7011  1.7045
  681TIP3    H226239   0.305   3.104   9.305  1.7855  0.0069 -2.3306
  682TIP3   OH226240   2.509   3.682   6.839  0.5384  0.1253  0.1715
  682TIP3    H126241   2.428   3.713   6.800  0.1428 -0.3943  0.5783
  682TIP3    H226242   2.510   3.588   6.822  1.0401  0.1222  0.1946
  683TIP3   OH226243   1.289   0.831   1.496  0.0246  0.5051  0.0042
  683TIP3    H126244   1.328   0.776   1.428  0.3972 -1.4144  1.6720
  683TIP3    H226245   1.257   0.908   1.449  0.1080 -0.7986 -2.3584
  684TIP3   OH226246   7.324   4.034   9.591 -0.0433 -0.3115 -0.2000
  684TIP3    H126247   7.389   4.101   9.571 -0.8243  0.0066 -1.8558
  684TIP3    H226248   7.356   3.955   9.547 -1.2947  0.1402 -2.0344
  685TIP3   OH226249   4.479   3.613   9.798 -0.1842  0.3970 -0.0519
  685TIP3    H126250   4.479   3.549   9.868  1.0446  0.7618  0.3149
  685TIP3    H226251   4.392   3.608   9.760 -0.2194 -1.2347  0.1838
  686TIP3   OH226252   3.461   0.476   9.727 -0.0138 -0.3035 -0.0315
  686TIP3    H126253   3.465   0.381   9.724 -0.5134 -0.4183  1.8584
  686TIP3    H226254   3.553   0.504   9.723  0.3401 -1.0189  2.0166
  687TIP3   OH226255   2.587   0.157   9.534  0.6475  0.4635 -0.2686
  687TIP3    H126256   2.594   0.155   9.439 -1.6231 -0.1608 -0.4708
  687TIP3    H226257   2.607   0.068   9.562  2.5073  0.9267 -0.0158
  688TIP3   OH226258   1.183   5.776   7.313  0.1200  0.8297  0.2783
  688TIP3    H126259   1.246   5.847   7.308 -0.9522  1.8017  0.0960
  688TIP3    H226260   1.116   5.807   7.374 -0.4591  0.0594  0.0598
  689TIP3   OH226261   2.528   5.659   9.092  0.4691  0.2367 -0.7867
  689TIP3    H126262   2.477   5.583   9.119 -0.9217  1.7790  1.2029
  689TIP3    H226263   2.463   5.719   9.055  1.0448  1.6434  0.4257
  690TIP3   OH226264   5.163   5.648   8.501  0.5501  0.1527 -0.2532
  690TIP3    H126265   5.181   5.640   8.407 -1.2772  1.8100 -0.8292
  690TIP3    H226266   5.199   5.569   8.540  4.1067  0.7863 -1.8910
  691TIP3   OH226267   4.510   6.978   1.003 -0.0294 -0.1514 -0.1581
  691TIP3    H126268   4.521   6.887   0.973 -1.4296 -0.4838  0.2758
  691TIP3    H226269   4.473   6.970   1.091  1.2945  0.8452  0.5249
  692TIP3   OH226270   1.959   6.943   9.266  0.4506 -0.0183 -0.1136
  692TIP3    H126271   1.869   6.916   9.249  0.0932 -0.4011  2.1232
  692TIP3    H226272   1.960   7.037   9.250  0.2054 -0.3120 -2.1290
  693TIP3   OH226273   5.304   3.914   9.219  0.0797  0.1360  0.2601
  693TIP3    H126274   5.335   3.961   9.296  1.6782 -1.2276  0.5059
  693TIP3    H226275   5.261   3.836   9.254  0.9088 -0.5449 -0.1991
  694TIP3   OH226276   4.871   2.347   9.765  0.4298 -0.5068 -0.1702
  694TIP3    H126277   4.908   2.378   9.848  1.8885 -1.2570 -0.4988
  694TIP3    H226278   4.799   2.291   9.790 -1.1206  1.6415  0.4808
  695TIP3   OH226279   4.777   2.712   8.328  0.6018  0.2407 -0.8985
  695TIP3    H126280   4.702   2.657   8.353  0.4407  1.1677  0.8737
  695TIP3    H226281   4.853   2.666   8.364  0.2726  2.1374  2.7359
  696TIP3   OH226282   3.657   5.321   8.240 -0.3947 -0.2453 -0.3110
  696TIP3    H126283   3.691   5.408   8.222  1.4319 -1.0472 -0.9303
  696TIP3    H226284   3.625   5.326   8.330  1.4712  0.5551  0.3498
  697TIP3   OH226285   0.440   4.210   7.511 -0.4719 -0.7669  0.0150
  697TIP3    H126286   0.498   4.135   7.496  1.4615  0.3175  1.6508
  697TIP3    H226287   0.352   4.172   7.509  0.2361 -2.5408 -2.1046
  698TIP3   OH226288   5.502   6.626   8.837  0.4754 -0.4357  0.1671
  698TIP3    H126289   5.474   6.654   8.750 -0.6258 -0.7650  0.4009
  698TIP3    H226290   5.582   6.675   8.853 -1.3402  2.6720  0.5512
  699TIP3   OH226291   3.857   2.135   8.580  0.9495 -0.1608  0.5526
  699TIP3    H126292   3.910   2.165   8.506  0.8347 -0.2236  0.4445
  699TIP3    H226293   3.768   2.131   8.545  0.9636 -0.6264  0.5682
  700TIP3   OH226294   2.033   4.694   6.671  0.2570 -0.2346  0.0249
  700TIP3    H126295   2.021   4.743   6.753 -0.0483  1.6337 -1.0732
  700TIP3    H226296   1.973   4.620   6.679 -0.7407  0.6316  0.9776
  701TIP3   OH226297   1.412   4.258   1.807  0.2951 -0.2505 -0.2273
  701TIP3    H126298   1.399   4.183   1.750  0.5481  0.3386 -1.0785
  701TIP3    H226299   1.375   4.332   1.759 -1.0974  0.0047  1.1219
  702TIP3   OH226300   3.127   4.657   2.465  0.5061 -0.0116  0.1238
  702TIP3    H126301   3.031   4.647   2.467  0.2355  1.7496 -1.2653
  702TIP3    H226302   3.160   4.568   2.474 -1.3835 -1.4297 -4.3434
  703TIP3   OH226303   3.032   7.327   8.651 -0.0919  0.1683  0.0102
  703TIP3    H126304   3.011   7.420   8.651  0.5848  0.3314 -0.1586
  703TIP3    H226305   3.001   7.295   8.736 -2.0733  0.1154 -0.7037
  704TIP3   OH226306   2.878   5.354   6.516 -0.0709  0.3631 -0.0705
  704TIP3    H126307   2.937   5.426   6.493 -0.3314  0.2096 -1.2840
  704TIP3    H226308   2.792   5.381   6.483 -0.1740 -0.4822 -0.5348
  705TIP3   OH226309   2.002   3.439   0.320  0.1905 -0.5079 -0.8906
  705TIP3    H126310   1.995   3.525   0.278  1.0791  0.1915  0.3347
  705TIP3    H226311   2.095   3.417   0.314  0.1601 -0.8560 -0.1673
  706TIP3   OH226312   1.295   3.155   9.983 -0.2579 -0.4606 -0.0411
  706TIP3    H126313   1.286   3.174  10.076  0.3491 -0.5633  0.0440
  706TIP3    H226314   1.212   3.115   9.958  0.0751 -1.7260  0.7789
  707TIP3   OH226315   4.909   2.247   7.941 -0.6555  0.5022  0.2212
  707TIP3    H126316   4.937   2.168   7.894 -2.0819 -1.3096  2.2123
  707TIP3    H226317   4.873   2.214   8.023 -1.1311  3.2869  1.2215
  708TIP3   OH226318   1.250   3.931   7.736  0.0508 -0.4299 -0.1364
  708TIP3    H126319   1.191   3.935   7.811  1.8052 -2.2523  1.4617
  708TIP3    H226320   1.283   3.841   7.736  4.0492  0.8301  0.1443
  709TIP3   OH226321   6.925   7.457   8.245 -0.0064 -0.5180  0.5264
  709TIP3    H126322   6.968   7.463   8.331  3.8686 -1.0791 -1.1355
  709TIP3    H226323   6.937   7.366   8.219 -2.0329 -0.5964 -0.2504
  710TIP3   OH226324   1.043   3.764   7.049  0.1389 -0.4684 -0.0580
  710TIP3    H126325   1.138   3.767   7.054  0.1140 -1.1133  1.4294
  710TIP3    H226326   1.020   3.824   6.979  1.5234  1.4141  1.0148
  711TIP3   OH226327   5.516   5.353   8.814 -0.4510 -0.1801  0.3473
  711TIP3    H126328   5.576   5.396   8.874  0.6347  0.6509 -1.2553
  711TIP3    H226329   5.458   5.301   8.870  0.7740  0.2161  2.0425
  712TIP3   OH226330   1.994   2.351   1.022 -0.2821 -0.2421 -0.2894
  712TIP3    H126331   1.952   2.380   0.941  1.7224 -0.6555 -1.5521
  712TIP3    H226332   1.939   2.279   1.053 -1.9237  0.9076 -0.4215
  713TIP3   OH226333   4.225   2.757   0.800  0.1165 -0.1168 -0.3542
  713TIP3    H126334   4.197   2.703   0.726 -1.1268  0.2811 -0.1866
  713TIP3    H226335   4.318   2.775   0.782  0.9495 -3.2786  0.2198
  714TIP3   OH226336   6.085   1.811   0.910  0.1972 -0.2107  0.2005
  714TIP3    H126337   6.037   1.798   0.992 -0.8380  1.7119 -0.0613
  714TIP3    H226338   6.032   1.873   0.860 -0.0479 -2.5318 -2.6820
  715TIP3   OH226339   0.577   6.697   9.444 -0.0394 -0.1652 -0.8035
  715TIP3    H126340   0.556   6.773   9.499 -1.7746  1.6441 -3.7115
  715TIP3    H226341   0.648   6.728   9.387  0.6552 -1.4812 -0.6944
  716TIP3   OH226342   0.691   5.658   2.007 -0.1024  0.0662  0.5870
  716TIP3    H126343   0.699   5.609   1.925 -2.3437  0.6727 -0.0579
  716TIP3    H226344   0.692   5.591   2.075 -0.1004 -0.6052 -0.0597
  717TIP3   OH226345   1.830   5.551   2.686 -0.0310  0.3147  0.4290
  717TIP3    H126346   1.921   5.537   2.712  0.5185  0.1901 -1.4033
  717TIP3    H226347   1.827   5.526   2.593 -2.4137 -1.7431  0.9286
  718TIP3   OH226348   2.128   4.758   9.201  0.5687  0.0266  0.7265
  718TIP3    H126349   2.082   4.765   9.285 -0.4376 -2.1322  0.4231
  718TIP3    H226350   2.187   4.683   9.212  2.1646  1.1409  0.2206
  719TIP3   OH226351   3.603   0.821   1.005 -0.0320 -0.4340 -0.2481
  719TIP3    H126352   3.625   0.851   1.093  0.0690 -2.2086  0.3883
  719TIP3    H226353   3.511   0.797   1.009 -0.2236  0.1692 -0.8501
  720TIP3   OH226354   0.043   2.081   2.057 -0.2906 -0.1604  0.1999
  720TIP3    H126355   0.106   2.077   1.985 -0.2285  0.9493  0.1756
  720TIP3    H226356  -0.022   2.015   2.035  0.7348 -1.1734  0.1117
  721TIP3   OH226357   5.622   2.181   1.372  0.1341  0.2793 -0.9274
  721TIP3    H126358   5.599   2.186   1.279 -0.6086 -1.0266 -0.8380
  721TIP3    H226359   5.543   2.146   1.414 -0.9548  4.2169  0.8096
  722TIP3   OH226360   3.811   7.097   2.263 -0.1234 -0.5832 -0.1155
  722TIP3    H126361   3.738   7.053   2.304 -1.4816  0.7104 -1.0272
  722TIP3    H226362   3.776   7.183   2.237  1.3365 -0.4121 -1.7207
  723TIP3   OH226363   7.429   3.983   2.100 -0.3246  0.0591 -0.2023
  723TIP3    H126364   7.392   4.001   2.187 -0.0903  0.9115 -0.2663
  723TIP3    H226365   7.523   3.972   2.117 -0.3040  0.0508 -0.3237
  724TIP3   OH226366   0.718   2.375   8.452 -0.3029 -0.4816  0.2316
  724TIP3    H126367   0.632   2.418   8.453 -0.2019 -0.2796  0.2978
  724TIP3    H226368   0.708   2.303   8.389 -0.0268  0.5613 -1.0543
  725TIP3   OH226369   2.734   1.646   1.953 -0.1120 -0.0970  0.1683
  725TIP3    H126370   2.800   1.694   1.903 -0.6710 -0.5340 -1.0349
  725TIP3    H226371   2.767   1.556   1.956 -0.5482 -0.2736 -0.2645
  726TIP3   OH226372   1.131   6.421   1.818 -0.1014  0.0112  0.3949
  726TIP3    H126373   1.220   6.454   1.807 -0.4235  0.5221 -0.8179
  726TIP3    H226374   1.125   6.400   1.911  0.5788  2.0302  0.9383
  727TIP3   OH226375   6.416   4.972   1.868  0.0354 -0.2577 -0.7349
  727TIP3    H126376   6.416   5.067   1.881  2.4116 -0.1818 -0.9602
  727TIP3    H226377   6.451   4.936   1.949 -0.4945 -0.9317 -0.7974
  728TIP3   OH226378   4.824   5.194   8.232  0.1797  0.2143  0.1948
  728TIP3    H126379   4.844   5.175   8.140 -1.4948 -1.4474  0.1036
  728TIP3    H226380   4.906   5.174   8.279  0.5276 -0.6856 -0.7434
  729TIP3   OH226381   5.538   4.748   8.181 -0.0581  0.4231 -0.1293
  729TIP3    H126382   5.502   4.821   8.233 -0.3911  0.4061 -0.3342
  729TIP3    H226383   5.461   4.695   8.159  0.2556 -0.3029  0.5089
  730TIP3   OH226384   1.333   7.019   7.552 -0.0768  0.5112 -0.3339
  730TIP3    H126385   1.255   7.029   7.605 -0.3365  0.2326 -0.6559
  730TIP3    H226386   1.366   7.108   7.539  0.6115  0.5068  1.2041
  731TIP3   OH226387   2.988   3.946   1.108 -0.0971  0.1762  0.1449
  731TIP3    H126388   3.027   3.887   1.044 -1.2084 -0.7139  0.2511
  731TIP3    H226389   3.061   3.977   1.160  0.8733  1.0577 -1.6372
  732TIP3   OH226390   1.727   5.427   0.887 -0.1491  0.1208 -0.0339
  732TIP3    H126391   1.791   5.483   0.843 -0.7945  0.2468 -0.8372
  732TIP3    H226392   1.707   5.359   0.823 -1.9556  0.9450 -0.4208
  733TIP3   OH226393   3.373   4.110   9.098  0.2433  0.3429  0.4229
  733TIP3    H126394   3.387   4.204   9.086  2.2288 -0.1389 -1.6522
  733TIP3    H226395   3.308   4.087   9.031  0.5084  0.0637  0.2625
  734TIP3   OH226396   1.342   1.838   7.493 -0.1656  0.3667 -0.1448
  734TIP3    H126397   1.343   1.759   7.548 -0.4326 -1.7854 -3.0008
  734TIP3    H226398   1.250   1.853   7.474  0.0372 -0.3233 -1.8027
  735TIP3   OH226399   2.882   6.999   9.328  0.5652  0.4524  0.1711
  735TIP3    H126400   2.878   6.903   9.330  0.0268  0.3774 -1.8997
  735TIP3    H226401   2.842   7.026   9.410 -1.9107 -1.1094 -0.4096
  736TIP3   OH226402   0.880   1.666   2.394  0.0852  1.2216 -0.3220
  736TIP3    H126403   0.882   1.588   2.339  0.9330  0.4915  0.7075
  736TIP3    H226404   0.970   1.698   2.394 -0.0618  1.6517  0.0242
  737TIP3   OH226405   2.502   4.224   0.201  0.6064 -0.0214 -0.4879
  737TIP3    H126406   2.589   4.209   0.163  0.9953  0.6979  0.0966
  737TIP3    H226407   2.516   4.291   0.268 -0.7751  1.8238 -1.9349
  738TIP3   OH226408   6.942   0.511   9.593 -0.6428  0.5920 -0.1529
  738TIP3    H126409   6.869   0.514   9.655  0.0507  0.2157  0.7124
  738TIP3    H226410   7.011   0.463   9.640  1.4790  3.9409  0.5403
  739TIP3   OH226411   4.110   4.240   7.654  0.4745 -0.1586 -0.5419
  739TIP3    H126412   4.201   4.213   7.642  0.3080 -0.2565 -1.6160
  739TIP3    H226413   4.079   4.263   7.567 -0.1543  1.1211 -0.0116
  740TIP3   OH226414   0.530   1.435   8.825 -0.0870  0.3439 -0.0827
  740TIP3    H126415   0.562   1.483   8.749  0.7518 -0.1211 -0.0307
  740TIP3    H226416   0.482   1.500   8.876  2.0697  1.4770  0.6237
  741TIP3   OH226417   2.602   1.130   8.806 -0.1626  0.2557  0.0218
  741TIP3    H126418   2.617   1.056   8.748  0.7124  1.3414 -1.2021
  741TIP3    H226419   2.543   1.096   8.873  0.4748 -1.6333 -0.2961
  742TIP3   OH226420   4.423   3.839   2.661 -0.8248  0.0322 -0.5045
  742TIP3    H126421   4.491   3.771   2.657 -0.4580  0.3086  0.5946
  742TIP3    H226422   4.462   3.914   2.616 -0.8572 -0.1738 -0.8809
  743TIP3   OH226423   5.503   1.176   0.546 -0.1698 -0.2696  0.5141
  743TIP3    H126424   5.592   1.177   0.580  0.4243  0.7669 -0.9647
  743TIP3    H226425   5.456   1.240   0.600  0.8604  1.6636 -0.7676
  744TIP3   OH226426   3.383   0.918   9.696 -0.1842 -0.6548 -0.1747
  744TIP3    H126427   3.302   0.963   9.671 -1.0348 -1.1260  1.5888
  744TIP3    H226428   3.354   0.831   9.725  1.0165 -1.0032  0.0429
  745TIP3   OH226429   5.742   3.589   8.837 -0.2321 -0.3810  0.0726
  745TIP3    H126430   5.687   3.665   8.857 -1.3024 -1.1486  0.1493
  745TIP3    H226431   5.830   3.625   8.826 -0.9458  1.0715 -1.3041
  746TIP3   OH226432   2.516   1.440   1.789  0.0683  0.0539 -0.3475
  746TIP3    H126433   2.514   1.373   1.858 -0.7518  0.2516 -0.1766
  746TIP3    H226434   2.605   1.433   1.753  0.3040 -0.4805  0.3014
  747TIP3   OH226435   1.912   5.410   9.350  0.5094  0.6539 -0.0348
  747TIP3    H126436   1.870   5.493   9.373  1.2091  0.9388  0.2483
  747TIP3    H226437   1.889   5.395   9.258  1.6129  1.9376 -0.5512
  748TIP3   OH226438   5.782   2.796   1.543  0.1600 -0.4569 -0.1555
  748TIP3    H126439   5.839   2.734   1.496  0.6670 -1.1063  1.2664
  748TIP3    H226440   5.825   2.880   1.534  0.2524 -0.5738 -0.8449
  749TIP3   OH226441   0.207   0.227   9.806  0.8507  0.2892  0.3377
  749TIP3    H126442   0.235   0.136   9.817 -1.6187 -0.3195  2.8223
  749TIP3    H226443   0.148   0.225   9.730  0.3457 -0.3095  0.7423
  750TIP3   OH226444   1.207   6.135   2.061  0.4180  0.5075 -0.3419
  750TIP3    H126445   1.182   6.114   2.151  1.5528  1.2873  0.1795
  750TIP3    H226446   1.219   6.230   2.061  1.7006  0.3731 -0.9652
  751TIP3   OH226447   1.075   1.388   0.488  0.1489  0.2554  0.0778
  751TIP3    H126448   1.083   1.353   0.399  0.7735  0.7852 -0.0837
  751TIP3    H226449   1.023   1.323   0.535 -0.9354  0.3884 -0.9032
  752TIP3   OH226450   2.868   1.398   0.498 -0.6974  0.4426  0.0466
  752TIP3    H126451   2.934   1.462   0.528 -0.3194 -0.0442  0.2739
  752TIP3    H226452   2.884   1.391   0.404 -0.4012  0.3065  0.1041
  753TIP3   OH226453   3.344   7.096   9.523 -0.2379  0.0092 -0.0197
  753TIP3    H126454   3.295   7.047   9.457 -1.4728 -0.1501  0.9672
  753TIP3    H226455   3.286   7.169   9.546  0.5094  0.5017  0.3274
  754TIP3   OH226456   2.898   3.923   6.961 -0.6785 -0.2359  0.2201
  754TIP3    H126457   2.804   3.917   6.977 -0.7247  3.3840  2.2968
  754TIP3    H226458   2.915   4.016   6.950  2.6952 -0.7628 -0.0652
  755TIP3   OH226459   3.664   2.177   1.230  0.1440 -0.3086  0.2708
  755TIP3    H126460   3.573   2.180   1.261 -0.7697  0.0485 -2.2644
  755TIP3    H226461   3.692   2.268   1.229 -0.1384 -0.2309 -0.7837
  756TIP3   OH226462   4.856   1.436   9.390  0.8175  0.0636  0.1193
  756TIP3    H126463   4.911   1.358   9.392  2.3244  1.0769  2.5008
  756TIP3    H226464   4.848   1.457   9.297  1.9688 -1.8149 -0.4640
  757TIP3   OH226465   4.930   7.333   2.171 -0.2633 -0.0223 -0.1475
  757TIP3    H126466   4.938   7.355   2.079  0.8999 -2.2677 -0.6591
  757TIP3    H226467   5.017   7.302   2.196 -1.0398 -1.2949  1.1506
  758TIP3   OH226468   4.166   4.633   9.671 -0.1046  0.5421  0.1947
  758TIP3    H126469   4.165   4.632   9.576  1.4200 -0.1140  0.1678
  758TIP3    H226470   4.094   4.575   9.697 -0.0212  0.0950 -0.5635
  759TIP3   OH226471   1.751   3.430   0.896  0.4612  0.0306 -0.2194
  759TIP3    H126472   1.735   3.514   0.853  2.3335  0.5032 -0.0991
  759TIP3    H226473   1.756   3.367   0.823 -0.9539 -0.0015 -0.3077
  760TIP3   OH226474   6.579   2.844   2.081  0.0338 -0.0810 -0.1910
  760TIP3    H126475   6.536   2.882   2.158 -0.5989  1.1961 -1.1405
  760TIP3    H226476   6.588   2.751   2.103  1.5890  0.5412  2.1908
  761TIP3   OH226477   0.616   2.282   7.620  0.6470 -0.3266  0.3542
  761TIP3    H126478   0.571   2.280   7.535  0.9186  2.7924  0.0116
  761TIP3    H226479   0.709   2.269   7.598  0.6887  0.2236  0.1994
  762TIP3   OH226480   1.370   3.906   7.320 -0.0114 -0.5978  0.3091
  762TIP3    H126481   1.442   3.965   7.339  1.3591 -2.0511 -0.1579
  762TIP3    H226482   1.409   3.836   7.268 -2.0247 -0.7841 -1.0752
  763TIP3   OH226483   7.032   7.258   8.590 -0.0064 -0.1090  0.0734
  763TIP3    H126484   7.031   7.216   8.676  0.7206  1.0265  0.6465
  763TIP3    H226485   7.110   7.313   8.590 -1.5821  2.2681 -0.1380
  764TIP3   OH226486   1.257   3.383   6.731  0.3787 -0.3714 -0.2281
  764TIP3    H126487   1.250   3.478   6.718 -3.5554  0.0435  2.9334
  764TIP3    H226488   1.227   3.346   6.647  2.1729  1.0602 -1.5931
  765TIP3   OH226489   3.428   3.135   7.953 -0.6585 -0.4116  0.4231
  765TIP3    H126490   3.503   3.184   7.918 -1.1175 -0.4988 -0.7492
  765TIP3    H226491   3.364   3.136   7.881 -1.4290 -1.0922  1.0860
  766TIP3   OH226492   0.936   5.888   1.576 -0.3333 -0.1465  0.2320
  766TIP3    H126493   0.946   5.921   1.487  0.1329 -0.7834  0.0452
  766TIP3    H226494   1.025   5.867   1.605 -0.3796  0.8273  1.1589
  767TIP3   OH226495   5.195   0.466   9.926 -0.2083 -0.0797  0.6251
  767TIP3    H126496   5.133   0.435   9.993  0.7990 -0.4711  1.3943
  767TIP3    H226497   5.274   0.415   9.941  0.1962  0.1562 -0.5853
  768TIP3   OH226498   6.615   4.985   1.535  0.0398  0.3377  0.5034
  768TIP3    H126499   6.706   4.981   1.505  0.0659  0.9511  0.4788
  768TIP3    H226500   6.580   4.897   1.520  0.0339  0.6288 -1.3272
  769TIP3   OH226501   2.202   2.400   7.434 -0.1958 -0.1267  0.2120
  769TIP3    H126502   2.255   2.332   7.477  0.1190  0.1811  0.3138
  769TIP3    H226503   2.265   2.468   7.412 -0.5225  0.1546  0.1503
  770TIP3   OH226504   1.225   6.604   9.959 -0.3900  0.4284 -0.5242
  770TIP3    H126505   1.175   6.523   9.951 -0.7748  0.6011  0.0368
  770TIP3    H226506   1.221   6.643   9.871 -1.4961  0.5772 -0.4273
  771TIP3   OH226507   0.341   5.624   9.507  0.1066 -0.2047  0.4983
  771TIP3    H126508   0.435   5.638   9.499 -0.0305  0.2605 -0.5031
  771TIP3    H226509   0.328   5.534   9.476  0.1096  0.1101 -0.4770
  772TIP3   OH226510   4.587   0.879   8.015  0.0709 -0.2832 -0.0548
  772TIP3    H126511   4.507   0.926   7.991  1.9449  2.0255 -2.4458
  772TIP3    H226512   4.590   0.804   7.956 -0.4080 -0.4919  0.1836
  773TIP3   OH226513   3.203   1.679   1.404  0.3291  0.3142 -0.4506
  773TIP3    H126514   3.181   1.770   1.384 -0.4510  0.1255 -0.4852
  773TIP3    H226515   3.222   1.640   1.319 -0.1350  0.2438 -0.5245
  774TIP3   OH226516   1.175   3.396   8.699  0.0871  0.5774  0.1762
  774TIP3    H126517   1.198   3.384   8.791 -2.7662 -1.5015  0.7431
  774TIP3    H226518   1.225   3.330   8.652  0.6638  0.8632  0.3863
  775TIP3   OH226519   2.287   4.035   7.920  0.2276  0.0437 -0.2513
  775TIP3    H126520   2.259   4.083   7.998 -1.5731  0.9330 -1.3718
  775TIP3    H226521   2.276   3.943   7.943 -1.5271  0.3214  0.1619
  776TIP3   OH226522   2.264   0.351   1.370 -0.4703 -0.7007 -0.2106
  776TIP3    H126523   2.281   0.385   1.282 -0.4865  0.3441  0.1760
  776TIP3    H226524   2.248   0.429   1.423 -0.7647 -1.3357  0.6586
  777TIP3   OH226525   4.648   4.434   1.241  0.3205 -0.1633 -0.0920
  777TIP3    H126526   4.603   4.369   1.294 -0.5316 -0.3964 -1.0693
  777TIP3    H226527   4.661   4.391   1.156  0.8802  0.4983 -0.3503
  778TIP3   OH226528   5.134   4.735   9.433  0.5740  0.8104 -0.4831
  778TIP3    H126529   5.072   4.778   9.492  1.4466  1.6403 -0.1392
  778TIP3    H226530   5.099   4.752   9.345  0.7232  1.9970 -0.3379
  779TIP3   OH226531   7.237   1.469   9.836  0.3852 -0.2617 -0.6477
  779TIP3    H126532   7.327   1.449   9.861  0.4004 -0.2305 -0.6782
  779TIP3    H226533   7.184   1.418   9.897  0.4242 -0.3572 -0.6925
  780TIP3   OH226534   2.164   5.135   2.730 -0.2211  0.1863 -0.2482
  780TIP3    H126535   2.204   5.165   2.812  1.6612  2.5455 -1.8597
  780TIP3    H226536   2.233   5.084   2.688 -1.1804 -1.0249 -0.3723
  781TIP3   OH226537   1.076   5.202   8.926 -0.1289  0.1893  0.4146
  781TIP3    H126538   1.008   5.155   8.974 -0.1427 -0.9407 -0.6641
  781TIP3    H226539   1.037   5.221   8.841  1.1657 -1.2934 -0.5744
  782TIP3   OH226540   5.767   3.558   7.829 -0.5441 -0.4666 -0.4508
  782TIP3    H126541   5.690   3.581   7.779 -0.7101 -0.3846 -0.1578
  782TIP3    H226542   5.808   3.641   7.851 -1.1321 -0.4346  0.5861
  783TIP3   OH226543   1.219   0.327   7.967  0.0136 -0.3243  0.1044
  783TIP3    H126544   1.207   0.250   7.912  1.5438  0.4117 -1.3687
  783TIP3    H226545   1.191   0.400   7.912  0.4771  0.3357  0.7155
  784TIP3   OH226546   2.667   2.057   9.041 -0.1701  0.1548 -0.3261
  784TIP3    H126547   2.657   2.109   9.120  1.8931  0.7308 -0.3793
  784TIP3    H226548   2.687   1.969   9.072 -0.1453  0.2001 -0.2134
  785TIP3   OH226549   3.037   6.677   2.325  0.4654 -0.1251  0.2480
  785TIP3    H126550   2.989   6.594   2.325 -0.1766  0.1914 -1.8753
  785TIP3    H226551   3.001   6.726   2.399 -0.4117 -1.0331  0.4384
  786TIP3   OH226552   5.699   1.624   7.778  0.5939  0.4155  0.1696
  786TIP3    H126553   5.616   1.654   7.816  0.8343  0.2999  0.7888
  786TIP3    H226554   5.716   1.685   7.706  0.0649  0.5495  0.1564
  787TIP3   OH226555   6.427   1.892   1.198  0.5648 -0.0175  0.0669
  787TIP3    H126556   6.336   1.918   1.213  0.5749  0.9731 -1.3938
  787TIP3    H226557   6.422   1.799   1.176  0.1136 -0.4057  1.7297
  788TIP3   OH226558   2.280   4.535   9.685 -0.0830  0.0570  0.1474
  788TIP3    H126559   2.193   4.571   9.668 -0.0013  0.6803  0.9793
  788TIP3    H226560   2.328   4.549   9.604 -0.1286  1.6503  0.3600
  789TIP3   OH226561   1.076   1.246   7.345  0.0160  0.0541 -0.2629
  789TIP3    H126562   1.129   1.219   7.270  0.7985  1.2784 -0.1806
  789TIP3    H226563   1.066   1.341   7.335 -0.9794  0.0438  0.4846
  790TIP3   OH226564   6.629   0.224   9.678 -0.0500  0.4860 -0.4132
  790TIP3    H126565   6.568   0.151   9.689  1.5608 -0.6050  1.9969
  790TIP3    H226566   6.715   0.183   9.673  0.7448  2.1345 -1.0943
  791TIP3   OH226567   6.041   2.679   9.030 -0.0114 -0.2329  0.2232
  791TIP3    H126568   6.091   2.601   9.055 -1.0086 -0.6291  1.1089
  791TIP3    H226569   6.025   2.669   8.936  0.1372 -0.9492  0.2714
  792TIP3   OH226570   2.441   1.390   0.529  0.1143  0.2742 -0.1956
  792TIP3    H126571   2.521   1.406   0.579 -0.2215 -1.6893  1.0683
  792TIP3    H226572   2.381   1.460   0.556 -0.3122 -1.0901  2.8582
  793TIP3   OH226573   1.788   7.094   0.670 -0.2698  0.2251  0.0210
  793TIP3    H126574   1.877   7.127   0.656 -0.5128  0.8258 -0.1460
  793TIP3    H226575   1.753   7.082   0.581 -0.0797 -0.7909  0.0727
  794TIP3   OH226576   7.318   5.919   7.483 -0.0486 -0.1815 -0.3446
  794TIP3    H126577   7.348   5.865   7.556 -0.3786 -0.2846 -0.2852
  794TIP3    H226578   7.251   5.866   7.439 -0.3775  0.1752 -0.2864
  795TIP3   OH226579   2.013   6.361   1.846 -0.0008  0.9775 -0.0411
  795TIP3    H126580   2.092   6.372   1.794 -0.1524 -0.5123 -0.6340
  795TIP3    H226581   2.023   6.275   1.886 -1.9916  0.0859 -1.3362
  796TIP3   OH226582   6.321   7.134   1.470  0.5155  0.1251 -0.6142
  796TIP3    H126583   6.315   7.229   1.460 -0.6897  0.2330  0.7795
  796TIP3    H226584   6.257   7.099   1.409  1.1687  0.1844 -1.3408
  797TIP3   OH226585   0.787   6.392   8.398 -0.5780  0.3991 -0.6914
  797TIP3    H126586   0.815   6.312   8.441  0.7642  0.3344 -1.6368
  797TIP3    H226587   0.756   6.448   8.469 -0.7157 -0.6058  0.0703
  798TIP3   OH226588   7.352   1.812   0.071  0.0875 -0.0763  0.1684
  798TIP3    H126589   7.326   1.730   0.112 -0.5175  0.9992  2.0657
  798TIP3    H226590   7.447   1.817   0.084 -0.0408  0.0533  1.1234
  799TIP3   OH226591   2.026   4.300   8.876 -0.0661  0.5247 -0.9682
  799TIP3    H126592   2.027   4.366   8.807 -0.2206  2.1393  0.5042
  799TIP3    H226593   2.040   4.349   8.957  0.6110 -1.3580  0.1273
  800TIP3   OH226594   5.158   1.292   1.660 -0.6139  0.1805  0.0486
  800TIP3    H126595   5.078   1.260   1.621 -0.5595  0.6366 -0.4508
  800TIP3    H226596   5.205   1.335   1.588 -0.2753  0.5798  0.4978
  801TIP3   OH226597   2.264   7.348   1.523  0.2527  0.0687  0.1328
  801TIP3    H126598   2.201   7.379   1.588  0.2776  0.1395  0.1233
  801TIP3    H226599   2.211   7.306   1.456  0.3811 -2.8944  1.7087
  802TIP3   OH226600   0.670   5.431   1.841 -0.4629 -0.0863 -0.7310
  802TIP3    H126601   0.671   5.486   1.763 -0.2499  1.5768  0.3895
  802TIP3    H226602   0.740   5.368   1.825 -0.6338  0.0085 -2.0160
  803TIP3   OH226603   5.855   1.458   2.230 -0.4429  0.1255 -0.1189
  803TIP3    H126604   5.894   1.540   2.198 -0.7151  0.5527  0.6237
  803TIP3    H226605   5.930   1.400   2.242 -0.3685 -0.2240 -1.9696
  804TIP3   OH226606   3.658   3.632   8.517 -0.5847  0.5247 -0.0051
  804TIP3    H126607   3.617   3.701   8.569  0.5813  1.4421 -0.2582
  804TIP3    H226608   3.744   3.620   8.556 -0.6582 -0.6001 -0.1501
  805TIP3   OH226609   3.829   6.767   0.470 -0.6201  0.2236 -0.6141
  805TIP3    H126610   3.736   6.780   0.488 -0.2381  1.1208  0.8261
  805TIP3    H226611   3.867   6.855   0.474  0.7512 -0.3948  1.7320
  806TIP3   OH226612   2.009   4.922   0.971  0.1996 -0.7540 -0.2334
  806TIP3    H126613   2.000   5.001   0.918 -0.5288 -1.4874 -1.2620
  806TIP3    H226614   1.935   4.925   1.031  0.8488 -0.0755  0.5526
  807TIP3   OH226615   3.343   2.568   7.110 -0.4820 -0.5987  0.0720
  807TIP3    H126616   3.405   2.630   7.149 -0.1886  0.4580 -1.9241
  807TIP3    H226617   3.395   2.522   7.044 -1.3849 -0.9869 -0.3745
  808TIP3   OH226618   3.474   1.672   9.341 -0.3506  0.2242  0.2392
  808TIP3    H126619   3.429   1.721   9.272 -0.4393 -1.0642 -0.6673
  808TIP3    H226620   3.543   1.624   9.295  0.3570  0.2489  1.2396
  809TIP3   OH226621   3.336   7.216   0.644  0.6061 -0.3940  0.0266
  809TIP3    H126622   3.321   7.310   0.632  2.3109 -0.1733 -0.7222
  809TIP3    H226623   3.291   7.175   0.571  0.1920 -0.1335  0.1316
  810TIP3   OH226624   6.180   0.681   8.783 -0.2486 -0.9963 -0.0159
  810TIP3    H126625   6.248   0.684   8.851  0.4882  1.3598 -0.7525
  810TIP3    H226626   6.101   0.653   8.830  0.3569  0.0378  1.7381
  811TIP3   OH226627   1.040   7.086   6.619 -0.2508  0.2779  0.6108
  811TIP3    H126628   0.954   7.098   6.659 -0.6855  0.6837 -0.4269
  811TIP3    H226629   1.025   7.023   6.549  0.0887  1.1296 -0.2369
  812TIP3   OH226630   4.441   5.930   8.973 -0.4496 -0.2364  0.3792
  812TIP3    H126631   4.472   5.864   8.911 -1.4007  1.0032 -1.4771
  812TIP3    H226632   4.517   5.985   8.989 -0.1672 -0.6360  0.4426
  813TIP3   OH226633   1.491   7.191   2.354  0.1110 -0.6925 -0.4387
  813TIP3    H126634   1.482   7.142   2.435  0.7629  0.9099  0.6353
  813TIP3    H226635   1.544   7.135   2.297  0.9769 -1.1698  0.8111
  814TIP3   OH226636   2.811   1.590   6.945  0.3144  1.0960 -0.6526
  814TIP3    H126637   2.777   1.518   6.893 -0.5484  0.8517  0.2206
  814TIP3    H226638   2.762   1.667   6.916 -0.4458  0.8880  0.0571
  815TIP3   OH226639   5.669   5.908   2.274 -0.5271 -0.4002  0.2975
  815TIP3    H126640   5.754   5.942   2.300 -0.3314 -0.8954  0.3254
  815TIP3    H226641   5.669   5.818   2.306 -1.5832 -0.0151  1.4635
  816TIP3   OH226642   4.310   4.298   1.173  0.0889  0.1861 -0.1050
  816TIP3    H126643   4.222   4.261   1.183  0.2996 -0.5264 -0.8170
  816TIP3    H226644   4.346   4.254   1.096  0.8845  0.8415 -0.1219
  817TIP3   OH226645   5.142   1.028   1.423 -0.1958 -0.0545 -0.3394
  817TIP3    H126646   5.122   1.019   1.516  1.6951  0.0651  0.1212
  817TIP3    H226647   5.100   0.953   1.381  0.4204 -1.1086  0.8781
  818TIP3   OH226648   6.776   1.019   8.639 -0.1482 -0.3305  0.4630
  818TIP3    H126649   6.682   1.025   8.655  0.0940  1.2335  1.6886
  818TIP3    H226650   6.813   0.995   8.724  0.5190 -1.7468 -0.2014
  819TIP3   OH226651   1.808   1.237   0.954 -0.3164  0.1976  0.4654
  819TIP3    H126652   1.759   1.226   1.036 -2.0643  0.0536 -0.5699
  819TIP3    H226653   1.757   1.190   0.889  0.3554  1.4321 -0.9953
  820TIP3   OH226654   6.388   3.150   0.536 -0.0049  0.3648  0.0265
  820TIP3    H126655   6.417   3.175   0.624 -0.2137  0.7332 -0.0103
  820TIP3    H226656   6.295   3.170   0.535 -0.0179  0.2885 -0.2582
  821TIP3   OH226657   3.846   1.491   7.552  0.3267  0.8620 -0.1984
  821TIP3    H126658   3.892   1.537   7.481 -1.5645  2.1942 -0.6512
  821TIP3    H226659   3.824   1.406   7.515  0.5077  1.0468 -0.7399
  822TIP3   OH226660   3.403   2.115   1.133  0.1476 -0.1029  0.3699
  822TIP3    H126661   3.478   2.144   1.080  0.1479 -0.1050  0.3692
  822TIP3    H226662   3.345   2.072   1.071  1.0791 -1.9194  0.7101
  823TIP3   OH226663   1.088   2.033   7.604 -0.5385  0.0860 -0.0297
  823TIP3    H126664   1.057   1.943   7.592  0.0705  0.0632 -1.5590
  823TIP3    H226665   1.134   2.054   7.523 -0.7567  1.8213  0.2640
  824TIP3   OH226666   3.917   4.904   8.119 -0.3244 -0.6011  0.1111
  824TIP3    H126667   3.883   4.821   8.086 -0.0977 -0.5028 -0.3915
  824TIP3    H226668   3.888   4.969   8.055  0.0248 -0.3863  0.1658
  825TIP3   OH226669   1.721   1.156   2.098  0.0580 -0.3973  0.1133
  825TIP3    H126670   1.714   1.102   2.019 -0.6897 -0.3353  0.1330
  825TIP3    H226671   1.816   1.166   2.112  0.1994 -1.1618 -0.2567
  826TIP3   OH226672   5.702   0.938   2.077  0.0924 -0.1113  0.4942
  826TIP3    H126673   5.723   0.997   2.004 -0.9039  0.1204  0.3768
  826TIP3    H226674   5.623   0.975   2.116  0.0281 -0.8079  1.0494
  827TIP3   OH226675   0.368   4.229   0.614 -0.5728 -0.2754  0.4632
  827TIP3    H126676   0.413   4.145   0.608 -0.4901 -0.1389 -1.6912
  827TIP3    H226677   0.439   4.293   0.615 -0.6598 -0.1407 -0.8340
  828TIP3   OH226678   2.035   4.887   9.475 -0.2180  0.1355 -0.2659
  828TIP3    H126679   1.969   4.931   9.421 -0.3074 -0.0650 -0.3212
  828TIP3    H226680   2.029   4.930   9.561 -0.0996  0.4301 -0.4065
  829TIP3   OH226681   5.323   4.387   9.937  0.3676  0.3942  0.1065
  829TIP3    H126682   5.297   4.297   9.951  1.0286  0.2607  0.5230
  829TIP3    H226683   5.268   4.438   9.996  0.5169  0.1868  0.4292
  830TIP3   OH226684   5.640   5.035   1.122 -0.2067 -0.4657  0.4333
  830TIP3    H126685   5.640   4.940   1.132 -1.0729 -0.5529 -0.2326
  830TIP3    H226686   5.695   5.051   1.046  0.7957 -0.3461  1.1771
  831TIP3   OH226687   5.061   1.053   0.425 -0.5059  0.5848  0.0913
  831TIP3    H126688   5.031   1.033   0.336 -1.4505 -2.6416  1.0086
  831TIP3    H226689   5.148   1.013   0.430  0.0258  1.7101  0.3584
  832TIP3   OH226690   0.830   0.703   8.648 -0.3694 -0.2026  0.4513
  832TIP3    H126691   0.862   0.742   8.566 -0.3675 -0.7279  0.1995
  832TIP3    H226692   0.902   0.648   8.678  0.2746  1.2354  1.6782
  833TIP3   OH226693   1.368   0.152   2.738 -0.1006  0.0678  0.2875
  833TIP3    H126694   1.412   0.236   2.747 -0.9523  0.3879  1.6701
  833TIP3    H226695   1.436   0.093   2.706  0.6254  1.1505 -0.2376
  834TIP3   OH226696   5.505   3.003   9.615 -0.0482 -0.0363  0.1338
  834TIP3    H126697   5.531   2.918   9.651  0.5186  0.2756  0.4750
  834TIP3    H226698   5.588   3.044   9.588 -0.3215  0.3950 -0.0600
  835TIP3   OH226699   1.745   3.076   0.227 -0.2650 -0.5089  0.1812
  835TIP3    H126700   1.680   3.006   0.222 -0.2113 -0.6180  0.8553
  835TIP3    H226701   1.828   3.031   0.244  0.7452 -0.7209 -4.2201
  836TIP3   OH226702   6.313   1.494   0.884 -0.3118 -0.0305  0.2049
  836TIP3    H126703   6.305   1.540   0.967 -0.0788 -0.1716  0.3043
  836TIP3    H226704   6.222   1.480   0.855 -0.3841  0.5257  0.1540
  837TIP3   OH226705   4.605   7.449   0.212  0.4782 -0.5531 -0.3201
  837TIP3    H126706   4.620   7.409   0.126  0.8214 -1.1262  0.0068
  837TIP3    H226707   4.585   7.376   0.270 -1.3563 -0.0433 -0.2294
  838TIP3   OH226708   4.483   4.173   8.005  0.0229 -0.3115  0.1504
  838TIP3    H126709   4.561   4.133   8.042 -0.6381  0.4707  2.5682
  838TIP3    H226710   4.429   4.099   7.976  1.1778 -0.8841 -0.5948
  839TIP3   OH226711   0.720   5.810   2.343  0.5772 -0.7155 -0.5627
  839TIP3    H126712   0.640   5.775   2.383 -0.6668  2.0104 -0.4522
  839TIP3    H226713   0.690   5.883   2.289  2.9958  0.3581 -0.5666
  840TIP3   OH226714   1.178   6.694   9.457 -0.3674  0.2131 -0.2135
  840TIP3    H126715   1.210   6.739   9.379 -1.4612 -0.6295 -1.1850
  840TIP3    H226716   1.215   6.606   9.452  1.4384  0.7951  1.4698
  841TIP3   OH226717   2.139   2.380   9.717  0.6867  0.1502 -0.1154
  841TIP3    H126718   2.209   2.444   9.709 -0.6646  1.8387  0.8728
  841TIP3    H226719   2.108   2.390   9.807 -0.7776 -0.5718 -0.5116
  842TIP3   OH226720   2.791   4.689   8.883 -0.5424  0.0186  0.2032
  842TIP3    H126721   2.788   4.768   8.938  0.3979  0.7661 -0.7783
  842TIP3    H226722   2.884   4.672   8.872 -0.7385 -1.5375  0.8039
  843TIP3   OH226723   0.304   3.581   8.900 -0.9107 -0.4372  0.0452
  843TIP3    H126724   0.361   3.656   8.917  0.7475 -1.6917  0.1922
  843TIP3    H226725   0.282   3.547   8.986  0.6136 -1.7424 -0.0399
  844TIP3   OH226726   3.514   6.607   1.383  0.5147  0.9910  0.2833
  844TIP3    H126727   3.606   6.598   1.410  0.9914  1.7980 -1.0012
  844TIP3    H226728   3.492   6.698   1.404 -0.2998  0.5621  1.4124
  845TIP3   OH226729   2.374   7.397   0.757 -0.1686 -0.1170 -0.2436
  845TIP3    H126730   2.353   7.437   0.842  0.2205 -1.2979  0.4339
  845TIP3    H226731   2.453   7.443   0.728 -0.7755  0.8685 -0.3777
  846TIP3   OH226732   2.328   5.419   0.022 -0.2508 -0.0058 -0.1095
  846TIP3    H126733   2.382   5.397   0.097 -0.8195  0.1298  0.3514
  846TIP3    H226734   2.295   5.335  -0.010 -0.3736 -0.0279  0.0741
  847TIP3   OH226735   0.374   4.172   8.891 -0.7342 -0.1655  0.0377
  847TIP3    H126736   0.421   4.169   8.974 -0.2139 -2.6423 -0.2654
  847TIP3    H226737   0.285   4.147   8.912 -0.8057  0.0293 -0.0312
  848TIP3   OH226738   1.124   4.826   8.953 -0.5593  0.7183 -0.4177
  848TIP3    H126739   1.035   4.836   8.986 -0.0581  1.3115  0.8317
  848TIP3    H226740   1.137   4.732   8.947 -0.5703  0.5623  1.4633
  849TIP3   OH226741   5.441   7.007   1.228 -0.1477 -0.1433 -0.3998
  849TIP3    H126742   5.420   6.915   1.242 -2.0771  0.0717 -1.4951
  849TIP3    H226743   5.509   7.006   1.161  0.3763 -0.7644  0.1209
  850TIP3   OH226744   3.225   6.661   0.829 -0.0528  0.0566 -0.6031
  850TIP3    H126745   3.268   6.665   0.914  0.0889  0.1989 -0.6802
  850TIP3    H226746   3.249   6.576   0.793  0.3093  0.2033 -0.7199
  851TIP3   OH226747   4.607   6.028   9.595  0.0075 -0.0425  0.3643
  851TIP3    H126748   4.628   6.033   9.688  1.1848 -0.3147  0.1315
  851TIP3    H226749   4.531   5.970   9.590 -0.6254  0.6964  1.2240
  852TIP3   OH226750   4.993   1.766   1.994 -0.0564  0.2642  0.4896
  852TIP3    H126751   5.001   1.846   2.046  0.1609  0.2684  0.4525
  852TIP3    H226752   5.017   1.696   2.054 -0.8135  0.1720  0.6850
  853TIP3   OH226753   6.283   1.856   8.472 -0.3079  0.3571  0.4415
  853TIP3    H126754   6.267   1.865   8.378 -0.2502 -0.0801  0.3855
  853TIP3    H226755   6.304   1.944   8.501  1.1417  0.2605 -0.2284
  854TIP3   OH226756   4.768   3.945   9.178  0.0086  0.5739  0.4563
  854TIP3    H126757   4.714   4.001   9.122 -0.8477 -0.0623  0.6199
  854TIP3    H226758   4.807   3.881   9.119 -1.9825 -0.9545  0.7058
  855TIP3   OH226759   1.599   7.010   9.999  0.4905 -0.3649  0.5488
  855TIP3    H126760   1.633   6.935  10.048 -1.0994 -0.9782  0.7971
  855TIP3    H226761   1.589   7.079  10.065 -0.7911 -0.9013  0.9533
  856TIP3   OH226762   6.169   5.857   9.766  0.1935  0.3162 -0.0299
  856TIP3    H126763   6.158   5.835   9.859 -1.6920 -0.3461 -0.3610
  856TIP3    H226764   6.095   5.912   9.745 -0.1523 -0.6205 -1.4433
  857TIP3   OH226765   0.118   6.602   1.004  0.1777  0.0023  0.1281
  857TIP3    H126766   0.096   6.594   1.097  1.1847  1.0907  0.4838
  857TIP3    H226767   0.039   6.573   0.958 -0.7036  0.4070  1.3303
  858TIP3   OH226768   3.411   7.121   7.833  0.2673 -0.4091  0.2834
  858TIP3    H126769   3.414   7.164   7.747 -0.7010 -0.4560  0.2192
  858TIP3    H226770   3.348   7.050   7.821  0.5726 -0.7821  0.8753
  859TIP3   OH226771   5.338   3.720   7.624  0.7453  0.1988  0.3399
  859TIP3    H126772   5.396   3.756   7.691  1.0158  0.6401 -0.1233
  859TIP3    H226773   5.333   3.788   7.557 -0.4212  0.2288  0.4346
  860TIP3   OH226774   3.879   6.452   7.130 -0.1064 -0.2920  0.4329
  860TIP3    H126775   3.842   6.510   7.197 -0.5214  0.8004 -0.7037
  860TIP3    H226776   3.820   6.460   7.056  0.0746 -1.8683  0.0908
  861TIP3   OH226777   0.829   5.682   1.700 -0.2606 -0.4761 -0.1731
  861TIP3    H126778   0.862   5.763   1.662 -0.1204  0.1546  1.2377
  861TIP3    H226779   0.904   5.622   1.698 -0.2680 -0.4719 -0.8980
  862TIP3   OH226780   1.810   1.502   0.873  0.0712 -0.0199  0.4060
  862TIP3    H126781   1.875   1.543   0.931  0.5819  0.6458 -0.6169
  862TIP3    H226782   1.811   1.410   0.898 -0.4075  0.4024  2.0952
  863TIP3   OH226783   4.706   5.152   2.816  0.3656  0.5561 -0.5368
  863TIP3    H126784   4.747   5.219   2.762 -2.7861  2.1146 -1.2571
  863TIP3    H226785   4.700   5.075   2.760  1.8623  0.4004 -0.5202
  864TIP3   OH226786   7.155   1.048   9.187  0.2338  0.3497 -0.4112
  864TIP3    H126787   7.206   1.116   9.143 -0.2485  0.9874  0.0025
  864TIP3    H226788   7.156   1.073   9.279  1.6220 -1.2122  0.0611
  865TIP3   OH226789   0.452   6.106   8.664 -0.0579  0.7499  0.8081
  865TIP3    H126790   0.458   6.167   8.591 -0.8913  0.2680  0.3199
  865TIP3    H226791   0.360   6.107   8.689 -0.2001 -0.6728  0.4583
  866TIP3   OH226792   5.338   7.043   8.705  0.1409 -0.1758 -0.1608
  866TIP3    H126793   5.407   7.108   8.720  0.6239 -0.9423  1.1414
  866TIP3    H226794   5.317   7.010   8.792 -2.4823  0.5877 -0.4094
  867TIP3   OH226795   6.178   5.546   1.516  0.0669 -0.1958 -0.2362
  867TIP3    H126796   6.087   5.551   1.489  0.4516  1.6509 -1.3638
  867TIP3    H226797   6.184   5.604   1.592 -0.0384 -1.7624  1.0240
  868TIP3   OH226798   4.655   5.837   8.077  0.3863  0.1935 -0.0239
  868TIP3    H126799   4.721   5.819   8.144 -0.3812  0.2885  0.7707
  868TIP3    H226800   4.684   5.786   8.001  2.3976  1.7096 -0.3409
  869TIP3   OH226801   1.799   2.780   8.881  0.1658  0.3817  0.4524
  869TIP3    H126802   1.758   2.865   8.865 -1.4742 -0.1784  1.5339
  869TIP3    H226803   1.736   2.716   8.849  0.7373 -0.4747  0.9938
  870TIP3   OH226804   5.964   3.545   0.615  0.2089  0.0351  0.3137
  870TIP3    H126805   6.004   3.515   0.697  0.4337 -0.6865 -0.0503
  870TIP3    H226806   5.881   3.584   0.642  0.2285 -0.2961  0.8798
  871TIP3   OH226807   5.258   4.755   8.468  0.1912 -0.0739  0.1347
  871TIP3    H126808   5.287   4.844   8.447  1.4367 -0.5465 -0.2933
  871TIP3    H226809   5.165   4.755   8.449  0.3880  0.8254 -0.9995
  872TIP3   OH226810   0.439   0.767   8.876  0.9062  0.0351  0.6618
  872TIP3    H126811   0.444   0.682   8.920  1.3125 -0.2696  0.0511
  872TIP3    H226812   0.370   0.755   8.810  1.0545  0.1338  0.4883
  873TIP3   OH226813   1.260   5.572   8.512  0.5306 -0.2430  0.7364
  873TIP3    H126814   1.252   5.508   8.583 -0.1500  0.8176  1.6573
  873TIP3    H226815   1.239   5.656   8.554  1.8912  0.6553 -0.3165
  874TIP3   OH226816   0.819   0.910   8.797 -0.1145 -0.0399  0.1023
  874TIP3    H126817   0.798   0.869   8.881 -0.1415 -1.1580 -0.4382
  874TIP3    H226818   0.845   0.838   8.740  1.4343  0.8782 -0.4038
  875TIP3   OH226819   2.770   5.832   0.363  0.0930  0.0420  0.3233
  875TIP3    H126820   2.803   5.917   0.335  1.1353 -0.7290 -0.8975
  875TIP3    H226821   2.803   5.821   0.452  1.1194  0.3339 -0.0058
  876TIP3   OH226822   2.567   2.862   8.688 -0.1511 -0.2935  0.0962
  876TIP3    H126823   2.532   2.785   8.644  0.0047  0.4680 -1.4143
  876TIP3    H226824   2.551   2.934   8.627  0.6910  0.6826  0.9926
  877TIP3   OH226825   4.259   5.277   3.028  0.2790  0.3031 -0.2405
  877TIP3    H126826   4.214   5.340   2.971 -0.2328  1.3240  1.2358
  877TIP3    H226827   4.352   5.298   3.019  0.2285  0.2885 -0.8692
  878TIP3   OH226828   4.371   1.624   8.464 -0.1502  0.3736 -0.5154
  878TIP3    H126829   4.415   1.542   8.487 -0.4533  0.4218  0.2736
  878TIP3    H226830   4.354   1.617   8.371 -1.4635 -1.1023 -0.2029
  879TIP3   OH226831   6.854   0.245   0.488  0.2646  0.0293  0.1183
  879TIP3    H126832   6.878   0.172   0.545 -1.0735 -0.8348 -0.4020
  879TIP3    H226833   6.938   0.278   0.455  0.8859 -1.3006  0.3097
  880TIP3   OH226834   6.162   1.077   8.200 -0.1780  0.2446  0.2406
  880TIP3    H126835   6.236   1.069   8.260  1.2825  1.5108 -1.2733
  880TIP3    H226836   6.160   0.993   8.154  1.0185  0.5458 -0.4125
  881TIP3   OH226837   7.444   6.527   6.972 -0.1870  0.4288 -0.0402
  881TIP3    H126838   7.432   6.463   6.902 -3.2927  1.1571 -0.3530
  881TIP3    H226839   7.510   6.489   7.030 -0.3542 -2.0020 -1.3291
  882TIP3   OH226840   5.037   2.135   0.946 -0.3973  0.0955  0.0396
  882TIP3    H126841   5.080   2.065   0.898  0.0857  1.0027 -0.8608
  882TIP3    H226842   4.943   2.113   0.940 -0.3053 -0.0749 -0.8583
  883TIP3   OH226843   1.968   6.023   8.288  0.2967 -0.4080 -0.3254
  883TIP3    H126844   2.007   5.993   8.206 -2.5039  0.0130 -1.9489
  883TIP3    H226845   1.948   6.116   8.272 -0.3229 -0.3249  0.8330
  884TIP3   OH226846   3.879   0.048   2.514  0.2181  0.3783 -0.0075
  884TIP3    H126847   3.926   0.119   2.557 -0.6060 -0.5825  2.6292
  884TIP3    H226848   3.928  -0.031   2.537  1.2463 -0.0278 -3.0561
  885TIP3   OH226849   6.213   0.535   0.757  0.5135  0.2341  0.0702
  885TIP3    H126850   6.307   0.551   0.757  0.5378  0.1230  1.1321
  885TIP3    H226851   6.196   0.497   0.671  1.4631  0.1000 -0.0720
  886TIP3   OH226852   7.214   5.402   8.127 -0.4381 -0.2347 -0.2737
  886TIP3    H126853   7.125   5.370   8.142  0.0895 -0.5173  2.9190
  886TIP3    H226854   7.213   5.492   8.161  0.4130 -0.0802 -0.6355
  887TIP3   OH226855   1.702   4.618   7.992 -0.1556  0.3608 -0.5219
  887TIP3    H126856   1.634   4.635   8.057  0.7152  0.1507  0.4708
  887TIP3    H226857   1.673   4.539   7.947  0.1872 -0.6876  0.9995
  888TIP3   OH226858   0.659   2.745   0.116 -0.1149 -0.6612  0.2053
  888TIP3    H126859   0.660   2.743   0.211 -0.8028 -0.1247  0.2298
  888TIP3    H226860   0.685   2.656   0.090 -2.6931 -1.7086  0.9227
  889TIP3   OH226861   6.604   5.874   8.589  0.3529 -0.7281 -0.3603
  889TIP3    H126862   6.558   5.820   8.653 -1.0634 -1.2903 -1.7867
  889TIP3    H226863   6.535   5.908   8.532  1.5467 -0.2503 -1.5831
  890TIP3   OH226864   5.794   2.072   1.025 -0.0766 -0.3351  0.4593
  890TIP3    H126865   5.838   2.015   1.089  0.3923  1.6761  2.0179
  890TIP3    H226866   5.720   2.109   1.074  1.1735  2.4401  0.3960
  891TIP3   OH226867   3.835   4.210   7.689  0.0620 -0.6083 -0.2571
  891TIP3    H126868   3.788   4.207   7.605 -0.0643 -0.6206 -0.1871
  891TIP3    H226869   3.927   4.216   7.665 -0.0619  1.2297 -0.4145
  892TIP3   OH226870   2.545   3.772   0.167 -0.0924  0.4353 -0.6188
  892TIP3    H126871   2.587   3.738   0.246 -2.6206  0.1115  0.7105
  892TIP3    H226872   2.536   3.696   0.110 -1.6744 -0.2239  0.4469
  893TIP3   OH226873   4.997   0.230   9.696  0.3352  0.3134  0.2386
  893TIP3    H126874   5.007   0.156   9.637  0.6323  1.8305 -1.7508
  893TIP3    H226875   5.077   0.281   9.684 -1.3381  2.8087 -1.2985
  894TIP3   OH226876   2.478   6.507   7.585  0.3899 -0.0801 -0.3773
  894TIP3    H126877   2.488   6.424   7.539  0.7924 -0.1157 -0.2275
  894TIP3    H226878   2.439   6.567   7.520  0.4955 -0.2646 -0.6099
  895TIP3   OH226879   1.388   4.980   8.306 -0.1171 -0.8493 -0.3731
  895TIP3    H126880   1.318   5.027   8.260  0.0283  0.6473  0.8724
  895TIP3    H226881   1.380   5.008   8.397  3.2517  0.8956 -0.4709
  896TIP3   OH226882   2.474   6.289   8.406 -0.7676  0.0276 -0.0406
  896TIP3    H126883   2.401   6.350   8.416 -1.0327 -0.4319  0.9405
  896TIP3    H226884   2.494   6.292   8.312 -1.8155  0.4184 -0.2759
  897TIP3   OH226885   6.234   4.568   8.820 -0.3065 -0.3414  0.4948
  897TIP3    H126886   6.184   4.526   8.890 -2.7524  2.3802  0.5833
  897TIP3    H226887   6.168   4.592   8.755  1.3999  0.4921 -1.0015
  898TIP3   OH226888   0.639   5.053   9.745 -0.2454 -0.0614 -0.5030
  898TIP3    H126889   0.653   5.055   9.840 -0.3625  1.0035 -0.4917
  898TIP3    H226890   0.610   5.142   9.724 -0.9606 -0.5010 -1.4299
  899TIP3   OH226891   2.382   0.906   9.860  0.6383 -0.4790 -0.2668
  899TIP3    H126892   2.311   0.958   9.822 -0.2538 -0.9785  0.6524
  899TIP3    H226893   2.369   0.818   9.824  0.7193 -0.5912 -0.0263
  900TIP3   OH226894   3.562   5.063   1.332  0.1357 -0.0288  0.5782
  900TIP3    H126895   3.603   5.134   1.380 -0.6286  0.8744 -0.0611
  900TIP3    H226896   3.635   5.013   1.296  0.6881  0.7144  0.6418
  901TIP3   OH226897   2.678   4.517   1.406  0.6683  0.0778  0.4480
  901TIP3    H126898   2.667   4.489   1.315  1.5796  0.5511  0.1806
  901TIP3    H226899   2.753   4.467   1.438  0.8923  0.5432  0.6656
  902TIP3   OH226900   4.903   2.960   7.985 -0.7281  0.7512  0.0289
  902TIP3    H126901   4.913   2.989   7.894 -1.8265  0.3640 -0.2394
  902TIP3    H226902   4.958   2.882   7.991 -0.8152  0.6556 -0.3726
  903TIP3   OH226903   2.956   2.108   9.942  0.2241 -0.1904 -0.3512
  903TIP3    H126904   3.037   2.076   9.981  0.0872  1.2703  1.2468
  903TIP3    H226905   2.982   2.141   9.856  1.4354  0.6440  0.3085
  904TIP3   OH226906   4.187   3.890   8.771  0.2602  0.3387 -0.2622
  904TIP3    H126907   4.134   3.969   8.784 -1.2597 -0.6061 -0.4058
  904TIP3    H226908   4.232   3.877   8.854  0.8624  1.5861 -0.3818
  905TIP3   OH226909   5.347   6.790   0.556 -0.7679  0.2517 -0.4241
  905TIP3    H126910   5.329   6.878   0.522  0.1572  0.4707 -0.3591
  905TIP3    H226911   5.318   6.793   0.647 -1.1527  0.3473 -0.5461
  906TIP3   OH226912   4.518   7.436   2.072 -0.3160 -0.4009 -0.5310
  906TIP3    H126913   4.479   7.386   2.144 -1.6942  0.6860 -0.4838
  906TIP3    H226914   4.575   7.500   2.115 -0.4824 -0.3053 -0.4526
  907TIP3   OH226915   0.983   4.851   1.299  0.3203  0.1216 -0.6673
  907TIP3    H126916   1.051   4.911   1.329  0.3495 -0.3557  0.2476
  907TIP3    H226917   0.951   4.891   1.218 -0.4316  2.0045  0.4660
  908TIP3   OH226918   2.739   5.092   8.704 -0.5706  0.5234  0.0117
  908TIP3    H126919   2.733   5.042   8.786 -0.1512  0.4486  0.0006
  908TIP3    H226920   2.832   5.117   8.699  0.4595 -2.9465 -2.4490
  909TIP3   OH226921   5.363   0.123   2.017 -0.3375  0.1457  0.2420
  909TIP3    H126922   5.360   0.050   2.079 -0.9806  2.5688  3.3208
  909TIP3    H226923   5.411   0.192   2.063 -0.7495  2.0780 -2.0362
  910TIP3   OH226924   2.914   5.252   6.802  0.0927 -0.0572 -0.4934
  910TIP3    H126925   2.951   5.215   6.722 -0.2093 -0.0908 -0.6200
  910TIP3    H226926   2.850   5.316   6.771  2.5071  2.6065 -0.3155
  911TIP3   OH226927   5.815   3.962   0.357  0.5075  0.0119 -0.5780
  911TIP3    H126928   5.723   3.973   0.382  0.6485  0.5180 -0.2622
  911TIP3    H226929   5.832   3.868   0.366 -0.0581 -0.1305 -0.9304
  912TIP3   OH226930   2.212   5.187   9.028  0.1532 -0.2230 -0.7861
  912TIP3    H126931   2.126   5.200   8.988  0.5027 -0.7507 -1.7234
  912TIP3    H226932   2.237   5.098   9.005  1.2710  0.1608 -1.1412
  913TIP3   OH226933   1.327   5.688   2.445 -0.5279  1.0259 -0.0875
  913TIP3    H126934   1.360   5.768   2.404 -2.4567  1.8912 -0.1030
  913TIP3    H226935   1.290   5.717   2.528 -3.0371  0.5863 -0.9459
  914TIP3   OH226936   4.052   2.554   0.936  0.4301  0.3597 -0.5858
  914TIP3    H126937   4.110   2.505   0.877  0.9261 -0.8470  0.8286
  914TIP3    H226938   4.091   2.641   0.940  0.3521  0.4981 -2.0559
  915TIP3   OH226939   5.611   4.232   9.145  0.3449 -0.1614 -0.2729
  915TIP3    H126940   5.668   4.258   9.217 -1.2156 -1.8042  1.6842
  915TIP3    H226941   5.538   4.294   9.149  0.3926 -0.0836 -0.6115
  916TIP3   OH226942   3.471   2.994   0.098 -0.3521 -0.2972 -0.0838
  916TIP3    H126943   3.539   2.943   0.142 -0.4466 -1.4908 -1.2476
  916TIP3    H226944   3.494   3.085   0.115 -1.4289 -0.5959  4.0241
  917TIP3   OH226945   1.796   1.976   7.355  0.6060  0.0891  0.3189
  917TIP3    H126946   1.712   2.004   7.318  1.1438  1.1109 -0.1511
  917TIP3    H226947   1.774   1.899   7.407 -0.7753  0.8885  0.9688
  918TIP3   OH226948   1.852   4.084   0.920 -0.1512 -0.2981  0.2881
  918TIP3    H126949   1.831   4.023   0.849  1.6460  0.2748 -0.8166
  918TIP3    H226950   1.779   4.146   0.921 -0.8091 -1.0433 -0.2172
  919TIP3   OH226951   0.834   5.501   6.934  0.0805 -0.2311  0.4660
  919TIP3    H126952   0.882   5.516   7.015 -0.0276 -1.1391  0.7094
  919TIP3    H226953   0.901   5.479   6.870  0.1487  0.2964  0.3545
  920TIP3   OH226954   1.210   0.776   8.077 -0.0091 -0.2115  0.1878
  920TIP3    H126955   1.228   0.845   8.013 -0.2219 -0.4023 -0.0816
  920TIP3    H226956   1.254   0.805   8.157 -1.6196  1.1480  0.6326
  921TIP3   OH226957   0.845   5.721   8.094 -0.1914  0.2321  0.3474
  921TIP3    H126958   0.893   5.803   8.107 -0.2129  0.1139  1.2396
  921TIP3    H226959   0.863   5.670   8.173  1.7080 -1.6233 -1.1941
  922TIP3   OH226960   1.776   3.287   6.988  0.3105 -0.1269 -0.3680
  922TIP3    H126961   1.732   3.202   6.996 -0.1683 -0.0090 -1.4807
  922TIP3    H226962   1.806   3.289   6.897  0.6534  0.7478 -0.2412
  923TIP3   OH226963   2.726   4.202   0.580  0.2411  0.5889  0.0947
  923TIP3    H126964   2.820   4.211   0.592  0.2711 -0.2882  0.5564
  923TIP3    H226965   2.690   4.194   0.668 -0.3411  1.5588 -0.0442
  924TIP3   OH226966   5.662   3.107   9.205  0.4516  0.1781  0.4088
  924TIP3    H126967   5.694   3.144   9.123  0.1968  0.6465  0.5212
  924TIP3    H226968   5.637   3.183   9.258  1.5141 -0.0567  1.2984
  925TIP3   OH226969   3.127   3.201   7.303 -0.3466  0.4004 -0.3094
  925TIP3    H126970   3.171   3.265   7.360  1.0315 -1.9215  1.3994
  925TIP3    H226971   3.195   3.174   7.242 -0.4772 -0.4621 -0.0795
  926TIP3   OH226972   6.965   2.254   0.380 -0.0230 -0.0405 -0.3075
  926TIP3    H126973   6.945   2.223   0.292  1.5430 -2.9134  0.2168
  926TIP3    H226974   6.887   2.232   0.432 -0.1815 -0.1365 -0.5872
  927TIP3   OH226975   6.208   4.202   7.807 -0.0124 -0.4269 -0.3712
  927TIP3    H126976   6.159   4.122   7.790 -1.6729  0.4122  0.2816
  927TIP3    H226977   6.160   4.271   7.761 -0.0013  0.5680  1.0216
  928TIP3   OH226978   2.225   1.850   2.533 -0.6407 -0.2649  0.8684
  928TIP3    H126979   2.166   1.908   2.582 -1.5444  0.8975 -1.4736
  928TIP3    H226980   2.247   1.899   2.454  2.6655 -1.1173  1.1291
  929TIP3   OH226981   7.080   5.785   9.740  0.1695  0.0229 -0.0437
  929TIP3    H126982   7.004   5.820   9.787 -0.3179 -0.2219 -0.6346
  929TIP3    H226983   7.046   5.761   9.654  0.8153 -0.5561 -0.1460
  930TIP3   OH226984   0.464   7.201   2.624 -0.4585 -0.1127  0.1444
  930TIP3    H126985   0.480   7.253   2.702 -0.7555 -0.9832  0.8013
  930TIP3    H226986   0.376   7.227   2.596  0.0295  0.9184 -0.4890
  931TIP3   OH226987   1.085   1.737   1.196 -0.4010  0.1908  0.4180
  931TIP3    H126988   1.131   1.654   1.184  0.6163  0.8322 -0.2094
  931TIP3    H226989   1.097   1.757   1.289 -1.4730 -0.8191  0.7982
  932TIP3   OH226990   2.224   2.809   2.069  0.2526 -0.1039  0.4990
  932TIP3    H126991   2.241   2.764   2.152 -0.9553 -1.8486 -0.1378
  932TIP3    H226992   2.194   2.740   2.010 -2.0405  1.5751 -0.4597
  933TIP3   OH226993   1.075   6.938   2.378  0.2464  0.2076 -0.3078
  933TIP3    H126994   1.107   6.858   2.335 -3.0468 -1.7309  0.4272
  933TIP3    H226995   1.137   6.954   2.449  1.4791 -1.1742 -1.0111
  934TIP3   OH226996   6.996   5.857   1.114 -0.1383  0.0714  0.5347
  934TIP3    H126997   7.073   5.846   1.171  0.1861 -0.4156  0.0133
  934TIP3    H226998   7.023   5.819   1.031 -1.0632 -0.3922  0.4396
  935TIP3   OH226999   1.722   5.665   0.083  0.1740 -0.2557  0.3628
  935TIP3    H127000   1.768   5.715   0.016 -0.3812 -0.3254 -0.0788
  935TIP3    H227001   1.652   5.724   0.114 -2.0698 -1.5402 -1.8964
  936TIP3   OH227002   3.687   6.506   6.768  0.0009  0.5766  0.8922
  936TIP3    H127003   3.635   6.586   6.771 -0.6459  0.2990 -1.2312
  936TIP3    H227004   3.675   6.466   6.854 -1.5746  1.5878  1.1757
  937TIP3   OH227005   0.121   1.619   7.871  0.3304  0.6248  0.1512
  937TIP3    H127006   0.066   1.676   7.816 -1.3804  1.4694  2.5619
  937TIP3    H227007   0.066   1.542   7.887  2.1740 -1.3226 -2.1003
  938TIP3   OH227008   1.037   6.544   2.514 -0.4974 -0.1200 -0.7113
  938TIP3    H127009   0.968   6.569   2.452 -0.9741  0.0152 -0.1415
  938TIP3    H227010   1.037   6.615   2.579 -0.1551 -0.3647 -0.4422
  939TIP3   OH227011   1.120   6.621   7.151 -0.2924 -0.0094  0.1292
  939TIP3    H127012   1.123   6.642   7.244 -1.4160 -1.6690  0.5920
  939TIP3    H227013   1.208   6.640   7.119  0.1390  0.5114  1.5414
  940TIP3   OH227014   3.664   5.820   9.764  0.5520  0.4544 -0.0860
  940TIP3    H127015   3.615   5.903   9.761  1.3867  0.9491 -2.6276
  940TIP3    H227016   3.600   5.754   9.737  0.2464  0.4627  0.5971
  941TIP3   OH227017   5.766   1.389   0.769  0.8317 -0.0999  0.3705
  941TIP3    H127018   5.807   1.443   0.702 -0.0137  0.3477  0.2019
  941TIP3    H227019   5.721   1.451   0.826  1.6173 -0.4636  1.4226
  942TIP3   OH227020   2.975   0.814   1.368 -0.3973 -0.1677 -0.2155
  942TIP3    H127021   3.045   0.849   1.313  0.3407 -0.2009  0.6913
  942TIP3    H227022   3.009   0.731   1.401 -0.6329  0.0908  0.6913
  943TIP3   OH227023   5.497   1.943   0.843 -0.0169  0.3710 -0.4563
  943TIP3    H127024   5.543   1.904   0.769 -0.8508 -1.6346  0.0094
  943TIP3    H227025   5.544   1.910   0.920 -1.4918 -0.8143 -0.0144
  944TIP3   OH227026   2.891   6.581   9.921 -0.3592 -0.3451  0.4716
  944TIP3    H127027   2.806   6.574   9.964  0.1594  0.8580  1.7984
  944TIP3    H227028   2.949   6.526   9.973  0.2257  0.9378  1.2346
  945TIP3   OH227029   4.575   2.856   7.801  0.2137 -0.1909  0.7486
  945TIP3    H127030   4.547   2.822   7.716  0.0647 -0.2598  0.8251
  945TIP3    H227031   4.646   2.917   7.780  1.4100 -1.5354  0.6854
  946TIP3   OH227032   2.849   0.884   8.697 -0.6773 -0.1335 -0.1708
  946TIP3    H127033   2.794   0.944   8.647 -0.3067  0.1529 -0.2387
  946TIP3    H227034   2.808   0.882   8.784  0.2478  1.5426  0.3560
  947TIP3   OH227035   7.047   3.847   8.418  0.0764 -0.3584 -0.2416
  947TIP3    H127036   7.104   3.880   8.349  0.1618  0.6356  0.2865
  947TIP3    H227037   7.096   3.774   8.457  0.8711  0.3037  0.0193
  948TIP3   OH227038   0.711   2.714   8.508 -0.2980 -0.5160  0.9600
  948TIP3    H127039   0.749   2.760   8.433  1.3777 -1.5624  1.1169
  948TIP3    H227040   0.637   2.666   8.471 -0.3610  0.1019  0.2658
  949TIP3   OH227041   2.481   2.638   8.520 -0.1189  0.3894 -0.4268
  949TIP3    H127042   2.450   2.575   8.585 -1.7782 -0.0706 -1.5791
  949TIP3    H227043   2.516   2.583   8.449  1.5755  0.8749 -0.0105
  950TIP3   OH227044   2.609   4.956   0.451  0.1458  0.3297  0.2863
  950TIP3    H127045   2.647   5.044   0.456  4.1223 -1.0164 -1.7060
  950TIP3    H227046   2.555   4.958   0.372 -0.0957  1.0466  0.4575
  951TIP3   OH227047   1.589   4.597   1.532  0.1536 -0.7379 -0.8302
  951TIP3    H127048   1.570   4.681   1.489  0.5679  0.6000  1.4553
  951TIP3    H227049   1.682   4.581   1.511  0.8144  0.7191  0.7539
  952TIP3   OH227050   6.594   1.867   0.784 -0.3163  0.6295  0.0417
  952TIP3    H127051   6.580   1.962   0.789 -0.5521  0.5769  0.4384
  952TIP3    H227052   6.511   1.829   0.813  0.6384  0.3173  2.6369
  953TIP3   OH227053   1.948   1.480   7.248  0.1524 -0.3472  0.1810
  953TIP3    H127054   1.927   1.512   7.160 -0.8143 -0.5257  0.3303
  953TIP3    H227055   1.986   1.556   7.292 -0.1556 -0.0060 -0.1269
  954TIP3   OH227056   2.741   1.688   7.565  0.2315 -0.3320 -0.0266
  954TIP3    H127057   2.745   1.731   7.650 -0.7655 -2.6811  1.3326
  954TIP3    H227058   2.808   1.619   7.570  0.1243 -0.5376 -1.1188
  955TIP3   OH227059   3.302   6.709   8.907 -0.0689 -0.0538  0.5283
  955TIP3    H127060   3.392   6.712   8.940  0.1736 -0.6973 -0.0455
  955TIP3    H227061   3.280   6.801   8.888  1.3275 -0.0578 -1.5308
  956TIP3   OH227062   3.008   4.479   7.133  0.3536  0.4185 -0.6997
  956TIP3    H127063   3.078   4.498   7.070 -0.0279  0.1627 -1.2042
  956TIP3    H227064   3.033   4.527   7.212  1.8067 -0.7196 -0.4196
  957TIP3   OH227065   6.254   6.007   0.354  1.1140 -0.3857  0.2958
  957TIP3    H127066   6.348   5.993   0.363  0.6634 -2.5637  2.9872
  957TIP3    H227067   6.228   6.051   0.435 -0.4052 -1.5336  0.4789
  958TIP3   OH227068   2.943   1.121   8.119  0.1485  0.5524 -0.0443
  958TIP3    H127069   2.886   1.112   8.043  1.4553  1.6388 -1.1966
  958TIP3    H227070   2.966   1.214   8.121  3.6599 -0.1377 -1.0145
  959TIP3   OH227071   1.671   5.281   8.828 -0.0998  0.1554 -0.2219
  959TIP3    H127072   1.739   5.255   8.767  0.4401  0.9569  0.0231
  959TIP3    H227073   1.669   5.377   8.822 -1.8963  0.1112 -0.9832
  960TIP3   OH227074   7.078   4.711   0.438 -0.0631  0.3850  0.3837
  960TIP3    H127075   6.995   4.690   0.479  0.2804  0.6070  1.1987
  960TIP3    H227076   7.072   4.671   0.351  0.1873 -2.3552  1.5267
  961TIP3   OH227077   4.722   1.246   8.132  0.1696  0.0875  0.1651
  961TIP3    H127078   4.742   1.157   8.105 -0.8088 -2.1806  5.6105
  961TIP3    H227079   4.629   1.245   8.154 -0.5768  3.4056 -1.9811
  962TIP3   OH227080   2.464   4.397   1.804  0.0546 -0.0798 -0.4970
  962TIP3    H127081   2.473   4.316   1.754 -0.0014 -1.1279  1.1081
  962TIP3    H227082   2.549   4.407   1.849 -0.9390 -1.0046  1.7539
  963TIP3   OH227083   4.175   5.465   7.865 -0.3250 -0.1864 -0.0648
  963TIP3    H127084   4.153   5.488   7.775 -1.6055 -3.2261 -0.6430
  963TIP3    H227085   4.269   5.483   7.872 -0.6387  2.2542 -1.2205
  964TIP3   OH227086   6.596   4.470   8.525  0.1721  0.6428  0.2408
  964TIP3    H127087   6.653   4.395   8.542  0.2245  0.7175  0.3994
  964TIP3    H227088   6.567   4.497   8.612 -2.0005 -0.8560  0.0561
  965TIP3   OH227089   1.044   5.892   6.480 -0.1344 -0.0432 -0.1128
  965TIP3    H127090   1.072   5.840   6.405  0.8718 -0.9476  0.8480
  965TIP3    H227091   1.125   5.930   6.514 -0.7467  1.5201 -0.2891
  966TIP3   OH227092   1.236   7.378   0.117 -0.5837 -0.4186  0.1294
  966TIP3    H127093   1.308   7.441   0.109  1.0291 -2.1013  0.5496
  966TIP3    H227094   1.165   7.415   0.065  0.4062  1.5567  0.0962
  967TIP3   OH227095   0.309   0.797   7.877 -0.7429 -0.1241 -0.0835
  967TIP3    H127096   0.255   0.726   7.842 -0.0823 -1.3052  1.1819
  967TIP3    H227097   0.365   0.755   7.942  0.0847  1.4703  0.2993
  968TIP3   OH227098   1.690   3.967   8.622 -0.6747  0.4966 -0.1605
  968TIP3    H127099   1.782   3.951   8.640 -0.6358  0.8654 -0.0317
  968TIP3    H227100   1.673   3.919   8.541 -0.6612 -0.5281  0.4281
  969TIP3   OH227101   0.653   3.314   2.875  0.2193 -0.3009  0.0324
  969TIP3    H127102   0.693   3.313   2.962  0.3878 -0.5677 -0.0449
  969TIP3    H227103   0.646   3.407   2.852 -0.0315 -0.2231  0.4220
  970TIP3   OH227104   2.739   2.913   7.493 -0.1073  0.0931 -0.1464
  970TIP3    H127105   2.814   2.955   7.450  0.0165 -1.0837 -1.1389
  970TIP3    H227106   2.663   2.942   7.442  0.0587 -1.4525 -1.3376
  971TIP3   OH227107   4.274   0.850   1.348  0.1593 -0.4492  0.4226
  971TIP3    H127108   4.303   0.840   1.439 -0.6774  0.6770  0.8308
  971TIP3    H227109   4.297   0.940   1.325 -0.5372 -0.4147 -0.1549
  972TIP3   OH227110   5.959   5.120   1.048 -0.2334 -0.0879  0.3096
  972TIP3    H127111   5.930   5.036   1.012  1.3673 -1.0297  1.0953
  972TIP3    H227112   5.941   5.113   1.142 -1.3245  1.0061  0.2000
  973TIP3   OH227113   7.448   2.122   9.887  0.4316  0.0037 -0.3286
  973TIP3    H127114   7.399   2.057   9.936  1.6723 -0.8267 -0.1258
  973TIP3    H227115   7.433   2.099   9.795  0.4389 -0.2488 -0.2673
  974TIP3   OH227116   4.047   6.063   1.344  0.0643  0.3490 -0.0110
  974TIP3    H127117   3.966   6.101   1.379  0.0178 -0.8762  1.3171
  974TIP3    H227118   4.019   6.013   1.268 -0.6209 -0.8517  0.9856
  975TIP3   OH227119   3.773   1.245   8.271  0.2314  0.1523  0.1162
  975TIP3    H127120   3.831   1.272   8.343  1.9522  0.7237 -1.4123
  975TIP3    H227121   3.813   1.164   8.239 -2.1142 -1.6981  1.5116
  976TIP3   OH227122   4.082   5.229   1.625  0.0390  0.2679  0.7592
  976TIP3    H127123   4.029   5.162   1.581 -0.2054  0.1164  1.2763
  976TIP3    H227124   4.066   5.309   1.575  1.2744 -0.2927 -0.6065
  977TIP3   OH227125   5.549   3.804   8.834  0.2943 -0.1614 -0.0576
  977TIP3    H127126   5.472   3.818   8.779  0.1819 -0.5167  0.0041
  977TIP3    H227127   5.540   3.867   8.905  1.0201  1.0850 -1.0402
  978TIP3   OH227128   6.549   2.459   1.775  0.5314  0.4140  0.6496
  978TIP3    H127129   6.511   2.447   1.862 -1.5904 -0.8996 -0.3451
  978TIP3    H227130   6.643   2.465   1.789  0.2483  0.0709  3.0034
  979TIP3   OH227131   1.341   4.968   1.147 -0.5279  0.2080  0.1951
  979TIP3    H127132   1.318   4.920   1.226 -0.3452  0.4539  0.4003
  979TIP3    H227133   1.392   4.906   1.095  0.7167  0.5278  0.9783
  980TIP3   OH227134   0.393   4.615   0.385 -0.1239 -0.0116 -0.4499
  980TIP3    H127135   0.427   4.669   0.456  1.4820 -2.1909  0.5427
  980TIP3    H227136   0.299   4.636   0.383 -0.3028 -0.0246  2.5181
  981TIP3   OH227137   2.829   3.347   1.057  0.2778  0.5267  0.0974
  981TIP3    H127138   2.916   3.382   1.034  0.2051  1.2260  0.8358
  981TIP3    H227139   2.829   3.346   1.152 -0.8730  1.4224  0.1208
  982TIP3   OH227140   1.575   2.366   9.900  0.3334  0.2360 -0.0554
  982TIP3    H127141   1.648   2.424   9.923  1.2080 -1.1757  0.8789
  982TIP3    H227142   1.497   2.412   9.932  1.1380  0.2826  2.0278
  983TIP3   OH227143   4.541   1.097   1.537 -0.4091 -0.0791  0.2348
  983TIP3    H127144   4.612   1.058   1.486  0.8465  1.5913  0.6222
  983TIP3    H227145   4.583   1.128   1.617 -1.4491  1.4518  0.2262
  984TIP3   OH227146   0.890   7.256   0.005 -0.0638  0.4587  0.1224
  984TIP3    H127147   0.924   7.316  -0.061 -1.1375 -0.4175 -1.3049
  984TIP3    H227148   0.953   7.184   0.007  0.0491  0.5582  0.1790
  985TIP3   OH227149   5.580   5.044   0.775 -0.2865  0.3156  0.0050
  985TIP3    H127150   5.554   4.974   0.834 -0.7993 -0.7796 -1.4751
  985TIP3    H227151   5.673   5.058   0.794 -0.8330  1.3084  2.3331
  986TIP3   OH227152   0.512   3.998   9.065 -0.2142 -0.1258  0.4590
  986TIP3    H127153   0.498   3.903   9.066  0.9140 -0.3088  0.4770
  986TIP3    H227154   0.606   4.008   9.048 -0.4500  1.0065 -0.2658
  987TIP3   OH227155   1.057   3.655   1.331 -0.6827 -0.5743  0.3127
  987TIP3    H127156   1.078   3.567   1.299 -1.2351 -0.1830 -1.2305
  987TIP3    H227157   0.962   3.661   1.323 -0.5539  0.5540 -0.7396
  988TIP3   OH227158   1.250   3.624   9.143  0.1459  0.2902 -0.3444
  988TIP3    H127159   1.323   3.649   9.200 -0.1891 -1.1069  0.7713
  988TIP3    H227160   1.263   3.674   9.063  1.6825  0.9206  0.2644
  989TIP3   OH227161   2.367   5.153   1.490 -0.0609  0.1775 -0.0261
  989TIP3    H127162   2.284   5.175   1.532  0.0089  0.2433  0.0795
  989TIP3    H227163   2.343   5.127   1.401 -0.3744 -1.4377  0.4897
  990TIP3   OH227164   6.970   4.513   1.483  0.2218  0.6069 -0.3044
  990TIP3    H127165   6.889   4.562   1.469 -0.8922 -1.2541 -0.7284
  990TIP3    H227166   6.986   4.519   1.577  0.4087  2.1316 -0.3923
  991TIP3   OH227167   2.493   3.845   0.512 -0.0289 -0.1892 -0.7392
  991TIP3    H127168   2.522   3.795   0.588  0.9646  1.1727 -0.1832
  991TIP3    H227169   2.573   3.876   0.471 -0.6010  1.0031 -1.0058
  992TIP3   OH227170   4.897   6.815   7.696  0.3324  0.3489 -0.5197
  992TIP3    H127171   4.930   6.821   7.786  1.6377  1.0219 -1.0228
  992TIP3    H227172   4.814   6.862   7.698 -0.0430 -0.3142  0.4979
  993TIP3   OH227173   2.019   1.786   0.800 -0.2813 -0.3903  0.0739
  993TIP3    H127174   2.044   1.874   0.772  0.1399 -0.5308  0.0014
  993TIP3    H227175   1.931   1.796   0.836 -0.6026 -0.0985 -0.7648
  994TIP3   OH227176   2.189   1.901   7.123 -0.0487 -0.2686  0.2491
  994TIP3    H127177   2.254   1.971   7.122  0.4225 -0.7025 -0.8635
  994TIP3    H227178   2.196   1.864   7.211 -0.0380  0.8181  0.7241
  995TIP3   OH227179   6.229   2.118   8.324  0.2408  0.3002 -0.6497
  995TIP3    H127180   6.140   2.093   8.299  0.6087 -0.8839 -0.8055
  995TIP3    H227181   6.283   2.097   8.248  0.2194  4.2772 -1.9836
  996TIP3   OH227182   1.297   2.797   7.933 -0.2031  0.5953  0.1847
  996TIP3    H127183   1.299   2.885   7.971 -1.6851  0.6009  0.3084
  996TIP3    H227184   1.206   2.785   7.905  0.2638 -0.4227 -0.9898
  997TIP3   OH227185   4.253   1.403   1.452 -0.0331  0.2235  0.3966
  997TIP3    H127186   4.344   1.433   1.459 -0.1608  1.2416 -1.5365
  997TIP3    H227187   4.259   1.308   1.458  1.5168  0.0667 -2.0240
  998TIP3   OH227188   1.600   0.993   8.990 -0.2158 -0.1927  0.3339
  998TIP3    H127189   1.609   1.002   8.895  1.1221 -3.8514 -0.0416
  998TIP3    H227190   1.689   0.975   9.021 -1.0127 -2.0166  1.7719
  999TIP3   OH227191   1.531   2.889   1.105  0.2786 -0.5926 -0.5392
  999TIP3    H127192   1.457   2.865   1.048 -1.1768  0.5437  0.7601
  999TIP3    H227193   1.597   2.822   1.089  0.0271 -0.2330 -3.6720
 1000TIP3   OH227194   2.741   0.099   0.455  0.4299 -0.4768  0.2668
 1000TIP3    H127195   2.807   0.165   0.434 -0.0447 -0.0080  0.1992
 1000TIP3    H227196   2.700   0.078   0.371 -0.6704  0.5239  0.5233
 1001TIP3   OH227197   2.929   4.442   6.618 -0.5285  0.1453  0.5305
 1001TIP3    H127198   2.946   4.425   6.525 -3.3523  0.1174 -0.0662
 1001TIP3    H227199   2.884   4.364   6.649  1.2568 -0.2837  2.2797
 1002TIP3   OH227200   0.191   4.426   2.433  0.0610  0.5692 -0.3324
 1002TIP3    H127201   0.102   4.438   2.465  0.7158 -0.0226  1.8553
 1002TIP3    H227202   0.205   4.500   2.373 -2.3833 -0.1827 -1.9889
 1003TIP3   OH227203   2.754   2.838   0.398 -0.3706  0.0795  0.1440
 1003TIP3    H127204   2.769   2.753   0.357  3.4614  0.7468 -0.1742
 1003TIP3    H227205   2.751   2.900   0.325  1.3464  0.6657  0.5251
 1004TIP3   OH227206   5.414   6.714   1.304  0.2083 -0.1683  0.1478
 1004TIP3    H127207   5.426   6.718   1.399 -2.2468  0.0976  0.5052
 1004TIP3    H227208   5.447   6.628   1.280  0.0544 -0.6049  1.4006
 1005TIP3   OH227209   2.788   4.685   7.442 -0.1979 -0.6300 -0.1383
 1005TIP3    H127210   2.711   4.646   7.484 -1.4337 -0.2583 -1.9194
 1005TIP3    H227211   2.755   4.716   7.358  1.6032  0.8851 -0.3337
 1006TIP3   OH227212   7.106   1.401   9.605 -0.0489 -0.2615 -0.2614
 1006TIP3    H127213   7.124   1.465   9.536  0.5740 -2.3167 -2.1758
 1006TIP3    H227214   7.160   1.429   9.679 -0.8117  2.0938 -0.5156
 1007TIP3   OH227215   5.405   0.944   9.094 -0.0530 -0.3851  0.2063
 1007TIP3    H127216   5.351   0.900   9.160 -0.8854 -0.1153 -0.2816
 1007TIP3    H227217   5.424   1.030   9.132  0.8932 -0.8445  0.8100
 1008TIP3   OH227218   1.173   0.713   2.393  0.0456 -0.4965  0.2492
 1008TIP3    H127219   1.078   0.724   2.390  0.2069  1.6102  0.9936
 1008TIP3    H227220   1.203   0.780   2.455  2.0769 -0.6058 -0.5404
 1009TIP3   OH227221   4.604   3.746   1.521 -0.2143  0.2643  0.2561
 1009TIP3    H127222   4.617   3.837   1.498 -0.8514  0.3704  0.2942
 1009TIP3    H227223   4.623   3.697   1.441  1.9079  0.2639  0.7019
 1010TIP3   OH227224   3.966   2.679   2.049 -0.0123 -0.1152  0.4985
 1010TIP3    H127225   3.953   2.603   2.106 -1.2043  0.4322  0.9777
 1010TIP3    H227226   4.047   2.719   2.080  0.8749 -1.4145 -0.0409
 1011TIP3   OH227227   4.889   2.096   1.595 -0.3079  0.4427  0.6212
 1011TIP3    H127228   4.899   2.091   1.500 -1.3871  1.5747  0.4287
 1011TIP3    H227229   4.912   2.186   1.617 -0.4733  0.3075  1.3863
 1012TIP3   OH227230   3.672   2.220   9.393  0.2744  0.0241  0.2285
 1012TIP3    H127231   3.631   2.285   9.336  1.1900  0.1339 -0.3324
 1012TIP3    H227232   3.713   2.158   9.332 -0.7393 -1.1950  0.7485
 1013TIP3   OH227233   5.380   2.206   0.656 -0.6358 -1.1822  0.0727
 1013TIP3    H127234   5.383   2.112   0.674 -1.8071 -1.2469  0.0024
 1013TIP3    H227235   5.289   2.231   0.672 -0.7311 -0.3906 -1.5333
 1014TIP3   OH227236   2.242   0.143   9.533  0.2539  0.1957  0.0695
 1014TIP3    H127237   2.284   0.139   9.447 -1.4680 -1.3275 -0.7794
 1014TIP3    H227238   2.202   0.057   9.544  0.9203  0.1312  2.6964
 1015TIP3   OH227239   6.513   6.876   7.765 -0.0267 -0.6970  0.2304
 1015TIP3    H127240   6.568   6.900   7.691 -0.8019 -0.5658 -0.3152
 1015TIP3    H227241   6.486   6.786   7.748 -0.4152 -0.5814  0.2167
 1016TIP3   OH227242   1.563   5.260   8.195 -0.5315  0.2748  0.2383
 1016TIP3    H127243   1.538   5.268   8.103  1.4308  2.1090 -0.2251
 1016TIP3    H227244   1.499   5.314   8.242  0.2510  1.8863 -0.4680
 1017TIP3   OH227245   7.001   2.405   1.129 -0.4489 -0.4794  0.0687
 1017TIP3    H127246   7.019   2.371   1.217 -1.7123  0.1295  0.5894
 1017TIP3    H227247   7.023   2.498   1.134  0.7268 -0.7079 -0.6556
 1018TIP3   OH227248   4.446   3.395   8.173 -0.0971 -0.6229  0.0651
 1018TIP3    H127249   4.356   3.404   8.143 -0.0179  0.7578  0.2126
 1018TIP3    H227250   4.499   3.400   8.093 -0.0180  0.9962  0.1879
 1019TIP3   OH227251   4.472   0.121   1.592  0.3748  0.1445 -0.6201
 1019TIP3    H127252   4.486   0.119   1.497 -0.4237  1.4677 -0.7838
 1019TIP3    H227253   4.400   0.183   1.605  0.7815  0.3421  0.8883
 1020TIP3   OH227254   0.233   1.006   0.018 -0.3745 -0.4863 -0.0295
 1020TIP3    H127255   0.242   0.941   0.088 -0.9699  1.2744  1.7476
 1020TIP3    H227256   0.251   0.956  -0.062 -0.4663 -2.7584  1.2671
 1021TIP3   OH227257   0.963   2.620   8.221 -0.6799 -0.2732 -0.1986
 1021TIP3    H127258   0.974   2.707   8.258  2.2471 -0.2548 -0.8369
 1021TIP3    H227259   0.964   2.561   8.296 -2.6652  0.1638  0.2332
 1022TIP3   OH227260   5.779   5.911   1.907  0.0032  0.1675  0.2218
 1022TIP3    H127261   5.835   5.960   1.968  0.5276 -1.9411  1.5134
 1022TIP3    H227262   5.840   5.863   1.852 -0.5044 -0.2149 -0.0149
 1023TIP3   OH227263   4.935   5.907   2.029  0.3722 -0.5195 -0.4555
 1023TIP3    H127264   4.954   5.962   2.105 -1.1066 -0.7928  0.1434
 1023TIP3    H227265   4.902   5.825   2.066  0.6771 -1.0716 -1.3795
 1024TIP3   OH227266   4.181   0.257   8.484  0.0950 -0.6918 -0.1293
 1024TIP3    H127267   4.178   0.279   8.391 -1.1047  0.0025  0.0427
 1024TIP3    H227268   4.266   0.289   8.514 -1.1851  3.2227 -0.0901
 1025TIP3   OH227269   3.853   5.824   0.378  0.0695 -0.6084 -0.1108
 1025TIP3    H127270   3.821   5.743   0.417 -0.5827 -0.5002 -0.4180
 1025TIP3    H227271   3.809   5.893   0.427 -0.2335 -0.4598 -0.5927
 1026TIP3   OH227272   7.239   4.937   0.284 -0.2258 -0.5541 -0.2509
 1026TIP3    H127273   7.185   4.862   0.310 -2.4549  0.4151 -1.7438
 1026TIP3    H227274   7.212   4.955   0.194  0.7074  1.6329 -0.1513
 1027TIP3   OH227275   5.459   0.433   1.737 -0.4407  0.1496  0.3350
 1027TIP3    H127276   5.466   0.431   1.641  1.8858 -1.1522  0.4501
 1027TIP3    H227277   5.412   0.353   1.759  0.5600 -0.4527  0.3316
 1028TIP3   OH227278   0.591   0.129   0.640 -0.0106  0.3330  0.7559
 1028TIP3    H127279   0.576   0.059   0.577  2.4183  0.3162  0.0929
 1028TIP3    H227280   0.682   0.118   0.667 -0.0286  2.2917  1.8134
 1029TIP3   OH227281   5.200   5.443   7.260  0.4326 -0.1033 -0.7944
 1029TIP3    H127282   5.241   5.515   7.212  1.3997 -0.4145 -0.4629
 1029TIP3    H227283   5.108   5.445   7.233  0.1622  1.9768  0.0762
 1030TIP3   OH227284   1.295   4.089   0.336  0.3499 -0.6997  0.3707
 1030TIP3    H127285   1.347   4.050   0.266  2.2411 -0.4992  1.5961
 1030TIP3    H227286   1.327   4.047   0.416  0.8525  1.6360  1.4909
 1031TIP3   OH227287   6.727   0.048   0.171  0.2031 -0.0804  0.0851
 1031TIP3    H127288   6.678  -0.000   0.105 -0.7900  0.6929  0.2336
 1031TIP3    H227289   6.760   0.125   0.124  1.9221 -0.9392 -0.1946
 1032TIP3   OH227290   2.854   6.066   0.285  0.0394  0.2882  0.2722
 1032TIP3    H127291   2.814   6.073   0.199 -1.3697  0.5867  0.9171
 1032TIP3    H227292   2.945   6.089   0.271  0.1708 -1.0513 -1.3762
 1033TIP3   OH227293   5.520   4.541   7.766  0.1168 -0.3472  0.3389
 1033TIP3    H127294   5.448   4.590   7.806  0.8081 -0.5693  1.9173
 1033TIP3    H227295   5.477   4.482   7.703 -0.8568  1.1186 -0.4405
 1034TIP3   OH227296   5.426   3.063   0.342  0.2186  0.5720 -0.4009
 1034TIP3    H127297   5.389   2.996   0.284  0.7087  0.7912 -0.9718
 1034TIP3    H227298   5.455   3.132   0.283 -0.1872  1.2449  0.1815
 1035TIP3   OH227299   3.625   6.876   1.331 -0.0514  0.0639  0.2341
 1035TIP3    H127300   3.563   6.900   1.262  0.2257  1.3975  0.4153
 1035TIP3    H227301   3.581   6.900   1.413 -0.2013 -1.0986  0.5090
 1036TIP3   OH227302   2.926   5.928   1.061  0.0294  0.0634 -0.0210
 1036TIP3    H127303   2.973   5.974   0.991 -1.0134 -0.7082 -1.2770
 1036TIP3    H227304   2.834   5.938   1.038 -0.2536 -2.1582 -0.0220
 1037TIP3   OH227305   2.579   5.225   9.327 -0.8579  0.0578 -0.0460
 1037TIP3    H127306   2.580   5.162   9.399  0.6304  0.6627  0.4977
 1037TIP3    H227307   2.536   5.302   9.363 -0.7899  0.0913 -0.0356
 1038TIP3   OH227308   3.450   5.174   0.347 -0.5571  0.0201 -0.0676
 1038TIP3    H127309   3.471   5.102   0.289 -0.7577  1.9415 -2.7206
 1038TIP3    H227310   3.375   5.218   0.306 -0.2074  1.9548  1.1958
 1039TIP3   OH227311   1.845   2.854   2.083 -0.0270 -0.8332  0.3383
 1039TIP3    H127312   1.865   2.778   2.138 -0.3724  0.0061  1.6656
 1039TIP3    H227313   1.831   2.818   1.996  0.0536 -2.2588  0.8956
 1040TIP3   OH227314   2.513   1.088   0.010  0.5632  0.2984  0.0335
 1040TIP3    H127315   2.436   1.132   0.047  0.5076  0.2397 -0.0122
 1040TIP3    H227316   2.477   1.032  -0.060  0.6234  0.1189  0.1457
 1041TIP3   OH227317   5.767   4.287   1.405  0.7139  0.1855  0.1691
 1041TIP3    H127318   5.738   4.206   1.362 -0.3216 -0.0020  1.1517
 1041TIP3    H227319   5.742   4.274   1.497  0.9941  1.4235  0.4285
 1042TIP3   OH227320   3.441   7.270   1.172 -0.2403 -0.2233  0.3039
 1042TIP3    H127321   3.374   7.236   1.232  0.8144 -0.6912  1.2493
 1042TIP3    H227322   3.403   7.259   1.085 -1.8235  0.5003  0.8627
 1043TIP3   OH227323   4.928   0.464   8.784  0.5347  0.2144  0.4012
 1043TIP3    H127324   5.008   0.471   8.835  0.6520  1.1373  0.1025
 1043TIP3    H227325   4.865   0.425   8.844  1.3863 -1.1979  0.4253
 1044TIP3   OH227326   4.721   4.085   8.267 -0.0654 -0.3467  0.1382
 1044TIP3    H127327   4.658   4.014   8.281 -0.8539  0.5909  1.6560
 1044TIP3    H227328   4.775   4.085   8.346 -0.2738  0.9036  0.3090
 1045TIP3   OH227329   7.187   4.468   7.329  0.0139 -0.2410  0.1997
 1045TIP3    H127330   7.204   4.559   7.305  1.1686 -0.1858  1.1037
 1045TIP3    H227331   7.236   4.416   7.265  3.1936 -0.0945  2.2750
 1046TIP3   OH227332   6.296   1.233   0.458 -0.4052 -0.1347 -0.4163
 1046TIP3    H127333   6.366   1.244   0.394 -1.9478  0.5237 -2.0769
 1046TIP3    H227334   6.264   1.143   0.445 -0.9686  0.1229 -0.8595
 1047TIP3   OH227335   5.781   2.387   2.260 -0.2423  0.0081  0.4465
 1047TIP3    H127336   5.749   2.447   2.327 -0.6973  0.3686 -0.0778
 1047TIP3    H227337   5.705   2.373   2.203  0.1218 -0.3348  0.0374
 1048TIP3   OH227338   2.223   5.000   6.359  0.2392  0.1326 -0.4639
 1048TIP3    H127339   2.289   5.015   6.291  0.2247  0.3577 -0.4275
 1048TIP3    H227340   2.222   5.080   6.411  0.0801  0.0535 -0.3415
 1049TIP3   OH227341   2.262   3.671   0.752 -0.1701 -0.1930 -0.1047
 1049TIP3    H127342   2.320   3.741   0.780  2.0120 -2.0162  0.2304
 1049TIP3    H227343   2.180   3.687   0.799 -0.1661  2.6631 -0.8790
 1050TIP3   OH227344   3.295   5.710   9.916  0.1851  0.0390  0.2980
 1050TIP3    H127345   3.335   5.795   9.936  1.9050  0.1346 -2.8647
 1050TIP3    H227346   3.328   5.651   9.984  2.4035  1.0442  0.1888
 1051TIP3   OH227347   4.028   5.546   7.205  0.7699 -0.6241  0.3244
 1051TIP3    H127348   4.041   5.543   7.110 -1.0704  2.2372 -0.1503
 1051TIP3    H227349   4.065   5.630   7.232 -1.9171  0.3144  1.4402
 1052TIP3   OH227350   7.269   6.378   8.203 -0.0677 -0.0414  0.0547
 1052TIP3    H127351   7.267   6.474   8.200  0.3947 -0.0564 -1.0549
 1052TIP3    H227352   7.261   6.351   8.112  2.6140 -0.9663  0.0084
 1053TIP3   OH227353   5.443   3.784   1.805 -0.0196  0.1830  0.1679
 1053TIP3    H127354   5.466   3.849   1.871 -0.3577  1.0520 -0.5545
 1053TIP3    H227355   5.499   3.709   1.826 -0.6818  0.1179  1.9309
 1054TIP3   OH227356   4.800   0.153   1.784  0.2288 -0.0945 -0.1008
 1054TIP3    H127357   4.871   0.212   1.759  0.5870 -0.0833  0.8956
 1054TIP3    H227358   4.768   0.116   1.701  1.5763 -0.3092 -0.5430
 1055TIP3   OH227359   2.275   2.931   7.407 -0.8197 -0.2032 -0.4094
 1055TIP3    H127360   2.263   2.851   7.457 -0.1002 -0.5766 -0.8123
 1055TIP3    H227361   2.237   3.000   7.462  1.8789 -0.2531  1.7142
 1056TIP3   OH227362   3.742   4.724   0.200  0.2045 -0.2708 -0.2282
 1056TIP3    H127363   3.702   4.751   0.118  0.4722  0.7273 -0.0478
 1056TIP3    H227364   3.687   4.654   0.233 -1.1716  0.7991 -0.1801
 1057TIP3   OH227365   1.879   0.432   9.578  0.0482 -0.0641  0.5718
 1057TIP3    H127366   1.823   0.372   9.627  1.2945 -0.9698  0.9163
 1057TIP3    H227367   1.961   0.434   9.626  0.5143  0.8176 -0.2234
 1058TIP3   OH227368   1.887   5.391   9.807  0.0990 -0.1554 -0.6576
 1058TIP3    H127369   1.948   5.357   9.742  0.8617  0.3930 -0.2423
 1058TIP3    H227370   1.942   5.439   9.869 -0.8138  0.8258 -0.5724
 1059TIP3   OH227371   0.938   0.102   0.741  0.0471  0.4348 -0.2190
 1059TIP3    H127372   0.980   0.031   0.789 -1.2496  0.9385  1.8304
 1059TIP3    H227373   0.910   0.063   0.659 -1.4788 -1.7767  1.2193
 1060TIP3   OH227374   3.333   1.087   8.907 -0.0633  0.7291  0.2837
 1060TIP3    H127375   3.258   1.028   8.907  0.9175 -0.5801  1.0746
 1060TIP3    H227376   3.337   1.121   8.997 -0.9376  2.4922 -0.2862
 1061TIP3   OH227377   4.345   7.451   8.427  0.1139  0.4299  0.3396
 1061TIP3    H127378   4.364   7.378   8.486  1.5948  0.0429 -0.5520
 1061TIP3    H227379   4.257   7.432   8.393  0.2447 -0.6358  0.5680
 1062TIP3   OH227380   4.065   4.157   8.803  0.4632  0.1090 -0.3675
 1062TIP3    H127381   3.991   4.176   8.861 -0.1362 -0.8582 -0.7976
 1062TIP3    H227382   4.137   4.209   8.839 -0.1128  0.1662  0.7568
 1063TIP3   OH227383   1.055   3.308   0.823 -0.1425 -0.2403  0.2023
 1063TIP3    H127384   0.990   3.374   0.800  1.3871  1.0815 -0.5699
 1063TIP3    H227385   1.114   3.304   0.748  1.1028 -0.8335  1.1498
 1064TIP3   OH227386   3.967   7.314   9.460  0.0802  0.0493  0.1783
 1064TIP3    H127387   3.986   7.341   9.550 -0.5231  1.9370 -0.2248
 1064TIP3    H227388   4.048   7.273   9.430  1.0671  1.4045  0.8739
 1065TIP3   OH227389   5.734   1.365   2.000  0.0587  0.3638  0.4862
 1065TIP3    H127390   5.724   1.449   1.956 -2.3103  0.3828  0.9260
 1065TIP3    H227391   5.775   1.386   2.084 -1.7827  1.3292  1.1992
 1066TIP3   OH227392   5.010   7.091   9.614  0.1927  0.0632 -0.4658
 1066TIP3    H127393   4.993   7.027   9.545  0.4164  1.2932 -1.7146
 1066TIP3    H227394   5.068   7.156   9.573  0.7288  0.5744  1.0367
 1067TIP3   OH227395   6.934   3.081   1.828  0.1173  0.5642 -0.1500
 1067TIP3    H127396   6.841   3.078   1.851  0.3690 -0.2877  0.8486
 1067TIP3    H227397   6.969   3.155   1.878  0.0763  0.5861 -0.1536
 1068TIP3   OH227398   0.211   1.623   0.646 -0.5734 -0.1541 -0.1825
 1068TIP3    H127399   0.153   1.692   0.612 -0.0982  0.9200  1.0712
 1068TIP3    H227400   0.297   1.666   0.654 -0.0842 -1.1225 -0.1031
 1069TIP3   OH227401   1.660   1.251   7.722  0.5295  0.2080 -0.4677
 1069TIP3    H127402   1.742   1.254   7.673  1.2524 -2.0441  0.4586
 1069TIP3    H227403   1.687   1.232   7.812 -0.8587  2.6383  0.5642
 1070TIP3   OH227404   5.069   3.270   8.823 -0.2416  0.2902  0.1386
 1070TIP3    H127405   5.150   3.297   8.867  0.4666 -0.1544 -0.8498
 1070TIP3    H227406   5.030   3.204   8.881  0.2840  0.2552  0.4550
 1071TIP3   OH227407   3.550   5.502   2.615 -0.0890  0.1679 -0.2899
 1071TIP3    H127408   3.470   5.512   2.563  0.1661  1.2193 -0.5114
 1071TIP3    H227409   3.534   5.555   2.693 -1.2311 -2.8759  1.7087
 1072TIP3   OH227410   2.585   2.194   1.193 -0.1274 -0.0229 -0.0156
 1072TIP3    H127411   2.594   2.168   1.101  0.5669  1.1210 -0.2949
 1072TIP3    H227412   2.614   2.118   1.243 -1.2425 -0.9358 -0.7212
 1073TIP3   OH227413   3.517   4.039   7.972 -0.5551 -0.7209  0.0983
 1073TIP3    H127414   3.566   3.957   7.972 -0.6761 -0.7943  0.2261
 1073TIP3    H227415   3.560   4.093   7.906 -0.7504 -1.0532 -0.3094
 1074TIP3   OH227416   2.779   0.701   2.929  0.2808  0.8762  0.1996
 1074TIP3    H127417   2.843   0.755   2.883  1.1086 -1.5863 -1.7356
 1074TIP3    H227418   2.702   0.701   2.872  0.1878  0.2715  0.3204
 1075TIP3   OH227419   3.703   1.562   9.223  0.1246  0.1721 -0.2567
 1075TIP3    H127420   3.783   1.522   9.256  0.0386  0.6309  0.5480
 1075TIP3    H227421   3.664   1.496   9.167  1.1996  0.0463 -0.8806
 1076TIP3   OH227422   2.689   4.979   1.232 -0.7823 -0.0590 -0.2722
 1076TIP3    H127423   2.676   5.072   1.214 -2.9120 -0.1895  0.3425
 1076TIP3    H227424   2.784   4.969   1.240 -0.5276  2.0791 -0.1868
 1077TIP3   OH227425   3.689   2.380   7.110  0.9249 -0.0633  0.1192
 1077TIP3    H127426   3.768   2.365   7.162  2.0199  0.4555 -1.3251
 1077TIP3    H227427   3.710   2.455   7.055 -0.6655  0.2154 -0.1545
 1078TIP3   OH227428   4.538   6.801   2.482  0.4119 -0.1669  0.0662
 1078TIP3    H127429   4.631   6.825   2.478  0.0760  1.0649 -0.9431
 1078TIP3    H227430   4.538   6.709   2.509  1.9089 -0.0948  0.3883
 1079TIP3   OH227431   2.741   6.428   7.993  0.1863  0.3852  0.2706
 1079TIP3    H127432   2.685   6.473   7.929 -0.9514 -0.3507  0.7287
 1079TIP3    H227433   2.829   6.435   7.956  0.0265  2.7200  0.1704
 1080TIP3   OH227434   3.617   1.249   0.301  0.1204  1.2109 -0.3497
 1080TIP3    H127435   3.613   1.331   0.350 -0.0715  1.5728 -0.9552
 1080TIP3    H227436   3.607   1.180   0.367  1.0099  1.6474  0.2600
 1081TIP3   OH227437   2.461   1.654   7.511 -0.0858  0.3868 -0.6375
 1081TIP3    H127438   2.488   1.593   7.443 -0.3804  0.6889 -1.0340
 1081TIP3    H227439   2.542   1.684   7.551  0.1872  1.3183 -1.8349
 1082TIP3   OH227440   0.539   3.720   1.909  0.5263 -0.4189 -0.2601
 1082TIP3    H127441   0.443   3.718   1.910  0.5229 -0.9432 -0.7293
 1082TIP3    H227442   0.564   3.637   1.867  1.1533  0.3154 -1.3922
 1083TIP3   OH227443   6.291   5.320   1.579 -0.8331 -0.4761  0.2004
 1083TIP3    H127444   6.291   5.334   1.674 -2.7792 -0.9959  0.3195
 1083TIP3    H227445   6.252   5.400   1.544  1.0802  0.2868 -0.3205
 1084TIP3   OH227446   3.048   1.035   8.935  0.2128 -0.3621  0.4407
 1084TIP3    H127447   3.027   1.123   8.905  1.7392 -0.2247 -0.3175
 1084TIP3    H227448   2.964   0.988   8.935 -0.7497  1.2761  1.5958
 1085TIP3   OH227449   2.693   7.160   8.606 -0.2030 -0.2002 -0.2860
 1085TIP3    H127450   2.765   7.162   8.543 -1.2496 -0.4532 -1.5274
 1085TIP3    H227451   2.640   7.086   8.579 -1.1742  0.2518  0.3412
 1086TIP3   OH227452   4.023   4.487   1.434 -0.0723  0.2389 -0.1783
 1086TIP3    H127453   4.113   4.470   1.464 -0.1807  1.1079  0.6749
 1086TIP3    H227454   3.985   4.400   1.425  1.2146 -0.2248 -1.7524
 1087TIP3   OH227455   6.504   2.741   1.412  0.0907  0.0426 -0.8145
 1087TIP3    H127456   6.510   2.651   1.445 -2.3770  0.0529 -0.0889
 1087TIP3    H227457   6.594   2.773   1.411  0.7746 -1.5702  1.4391
 1088TIP3   OH227458   0.775   6.001   8.912 -0.4216  0.1502 -0.5645
 1088TIP3    H127459   0.720   5.930   8.945  0.8521 -1.6435 -2.1511
 1088TIP3    H227460   0.848   6.006   8.974 -0.2113 -0.3407 -0.7685
 1089TIP3   OH227461   4.501   1.412   0.444 -0.0520  0.0953  0.0505
 1089TIP3    H127462   4.479   1.327   0.483 -0.2048  0.3545  0.5480
 1089TIP3    H227463   4.416   1.457   0.438  0.0454  0.2583 -0.0883
 1090TIP3   OH227464   2.376   6.623   9.501 -0.3797 -0.2266 -0.0711
 1090TIP3    H127465   2.383   6.598   9.408 -0.4593  0.0037 -0.1397
 1090TIP3    H227466   2.426   6.704   9.508  1.2154 -1.2062  0.4825
 1091TIP3   OH227467   6.144   5.569   7.444  0.0534  0.2031  0.0824
 1091TIP3    H127468   6.155   5.475   7.432  1.8029  0.4464 -0.5588
 1091TIP3    H227469   6.170   5.585   7.535  2.0552  0.3240 -0.4645
 1092TIP3   OH227470   0.046   5.526   8.786 -0.0505 -0.4650  0.5706
 1092TIP3    H127471   0.086   5.485   8.709  0.6392  0.3101  0.5012
 1092TIP3    H227472   0.003   5.605   8.752 -0.0816 -0.3250  0.9258
 1093TIP3   OH227473   0.341   1.053   1.218 -0.0255  0.2349 -0.1915
 1093TIP3    H127474   0.281   1.000   1.164 -1.2869  1.1790  0.2346
 1093TIP3    H227475   0.424   1.006   1.213 -0.4941 -0.5334 -1.7089
 1094TIP3   OH227476   2.528   5.358   1.519 -0.4646  0.3069  0.0485
 1094TIP3    H127477   2.462   5.297   1.484  1.2816 -1.2150 -0.7490
 1094TIP3    H227478   2.563   5.314   1.597 -0.2477  1.0006  0.3478
 1095TIP3   OH227479   4.173   3.874   9.786  0.0490  0.1975  0.0018
 1095TIP3    H127480   4.209   3.949   9.739 -1.8883  0.8856 -0.4601
 1095TIP3    H227481   4.207   3.882   9.875  2.3585 -0.1573 -0.7802
 1096TIP3   OH227482   0.071   2.742   1.127 -0.3374  0.1090 -0.7474
 1096TIP3    H127483   0.037   2.731   1.216 -1.0520 -0.3289 -1.0654
 1096TIP3    H227484  -0.003   2.776   1.077 -0.4301 -1.1677 -1.5257
 1097TIP3   OH227485   0.275   5.351   1.484 -0.3630 -0.5318 -0.0452
 1097TIP3    H127486   0.262   5.259   1.459  0.9818 -0.4381 -1.2097
 1097TIP3    H227487   0.368   5.366   1.470 -0.4601  0.8533  0.7174
 1098TIP3   OH227488   0.176   1.296   8.291  0.2275  0.0438 -0.8214
 1098TIP3    H127489   0.243   1.228   8.302 -1.1428 -1.3052 -0.5741
 1098TIP3    H227490   0.106   1.253   8.242 -1.4380  0.7572  0.8472
 1099TIP3   OH227491   3.419   6.169   8.108  0.7921  0.6321 -0.6381
 1099TIP3    H127492   3.351   6.236   8.105  0.8479  0.7260  0.1977
 1099TIP3    H227493   3.410   6.128   8.193 -1.0780 -2.3846 -2.1120
 1100TIP3   OH227494   1.413   4.810   1.931  0.0183  0.0759 -0.5028
 1100TIP3    H127495   1.440   4.721   1.907  2.6739  1.0397 -1.4448
 1100TIP3    H227496   1.407   4.856   1.847 -1.9765  0.6800 -0.0734
 1101TIP3   OH227497   5.770   3.444   9.053  0.1375  0.5885  0.1401
 1101TIP3    H127498   5.723   3.361   9.050  1.2471 -0.0397 -0.7849
 1101TIP3    H227499   5.757   3.483   8.967  2.2328 -0.1891 -0.6116
 1102TIP3   OH227500   2.165   1.528   8.798  0.1588 -0.3243 -0.2939
 1102TIP3    H127501   2.197   1.597   8.740  1.2039 -0.9889 -0.5367
 1102TIP3    H227502   2.132   1.460   8.740  0.0579 -0.4604 -0.0810
 1103TIP3   OH227503   6.234   2.403   0.573  0.6683 -0.1775  0.5089
 1103TIP3    H127504   6.319   2.402   0.529 -0.3835 -0.3521 -1.6431
 1103TIP3    H227505   6.171   2.419   0.503 -1.1319 -0.6401  1.9544
 1104TIP3   OH227506   3.050   2.488   7.980  0.1221  0.0674  0.3959
 1104TIP3    H127507   2.982   2.555   7.975 -0.5323 -0.6763 -1.4065
 1104TIP3    H227508   3.016   2.425   8.043 -0.6516 -0.0428 -0.1119
 1105TIP3   OH227509   7.366   4.493   1.451  0.1944  0.3941 -0.3516
 1105TIP3    H127510   7.294   4.435   1.475 -0.3801  0.2872 -2.1635
 1105TIP3    H227511   7.432   4.434   1.413 -0.1373  0.8237 -1.6365
 1106TIP3   OH227512   2.750   4.324   7.384 -0.2709 -0.1659 -0.3520
 1106TIP3    H127513   2.680   4.285   7.436  1.6647  0.8684  3.4163
 1106TIP3    H227514   2.711   4.402   7.345 -1.0418  1.0841  2.6634
 1107TIP3   OH227515   6.369   3.830   0.619 -0.5006  0.0344 -1.3490
 1107TIP3    H127516   6.431   3.781   0.673 -1.4584 -0.1161 -0.3305
 1107TIP3    H227517   6.338   3.767   0.554  1.9783  0.6835 -3.3055
 1108TIP3   OH227518   6.030   3.939   9.140 -0.0083 -0.6153  0.0578
 1108TIP3    H127519   5.976   4.001   9.090 -0.6578 -0.6838  0.6595
 1108TIP3    H227520   5.976   3.917   9.216  0.5176 -1.3615  0.2208
 1109TIP3   OH227521   1.543   0.341   8.728  0.3239 -0.2070  0.1990
 1109TIP3    H127522   1.557   0.273   8.662 -0.7139 -1.1620  0.9363
 1109TIP3    H227523   1.585   0.419   8.691  2.4215 -1.4604 -0.2470
 1110TIP3   OH227524   2.359   1.148   1.616  0.5431  0.1412  0.5880
 1110TIP3    H127525   2.334   1.061   1.649  0.1039  0.0201 -0.0469
 1110TIP3    H227526   2.379   1.134   1.523  1.7443  0.4820  0.7866
 1111TIP3   OH227527   1.761   6.377   8.116 -0.3941  0.3644 -0.1389
 1111TIP3    H127528   1.753   6.331   8.199 -0.3224 -0.2908 -0.4836
 1111TIP3    H227529   1.833   6.332   8.071  0.1524  1.2729 -0.1930
 1112TIP3   OH227530   6.289   6.542   1.279 -0.0864  0.3223  0.2706
 1112TIP3    H127531   6.202   6.579   1.290 -0.3691 -0.6400  1.4249
 1112TIP3    H227532   6.334   6.562   1.361  0.1567 -0.7672  0.4220
 1113TIP3   OH227533   4.650   1.679   2.027 -0.4616  0.5891  0.2270
 1113TIP3    H127534   4.676   1.590   2.004  1.2141  1.3348 -0.9582
 1113TIP3    H227535   4.694   1.695   2.111 -0.5915  0.3917  0.3354
 1114TIP3   OH227536   6.497   1.059   8.733 -0.0904  1.1902  0.1641
 1114TIP3    H127537   6.413   1.042   8.774  0.5661  0.5857  1.3253
 1114TIP3    H227538   6.485   1.031   8.642 -0.8224  0.0439  0.5860
 1115TIP3   OH227539   1.375   4.421   2.409  0.3465 -0.3506  0.3107
 1115TIP3    H127540   1.398   4.510   2.381 -0.2121 -0.3553 -0.1743
 1115TIP3    H227541   1.313   4.434   2.481  0.5186 -0.3482  0.4597
 1116TIP3   OH227542   4.457   4.107   8.585  0.2245  0.5516 -0.3404
 1116TIP3    H127543   4.494   4.156   8.511  0.4600 -1.3962 -1.6005
 1116TIP3    H227544   4.439   4.020   8.549 -1.0780 -0.0092  1.5357
 1117TIP3   OH227545   1.031   3.460   8.205 -0.0579  0.4227 -0.4587
 1117TIP3    H127546   1.047   3.530   8.142  2.4083  0.2105 -0.1929
 1117TIP3    H227547   1.111   3.407   8.203 -0.7333 -0.7780  1.3569
 1118TIP3   OH227548   3.262   5.766   9.526 -0.5776  0.4660 -0.4802
 1118TIP3    H127549   3.243   5.798   9.438 -0.4710  0.4046 -0.5268
 1118TIP3    H227550   3.224   5.831   9.585  0.2579  1.0531 -0.5718
 1119TIP3   OH227551   0.021   1.641   8.516  0.0368  0.0864 -0.1039
 1119TIP3    H127552   0.008   1.736   8.526  0.8691  0.0905  1.2495
 1119TIP3    H227553   0.063   1.632   8.431  0.3608  0.9923 -0.0611
 1120TIP3   OH227554   1.615   4.812   8.707  0.1324 -1.1121  0.2620
 1120TIP3    H127555   1.616   4.759   8.628  0.5003 -0.4458 -0.1899
 1120TIP3    H227556   1.523   4.813   8.734 -0.5063  0.8251 -1.6728
 1121TIP3   OH227557   6.888   2.737   1.659 -0.3432 -0.8049  0.0667
 1121TIP3    H127558   6.821   2.755   1.593  0.1403  0.7239 -0.0526
 1121TIP3    H227559   6.962   2.702   1.610  0.0075  0.3063 -0.2191
 1122TIP3   OH227560   5.353   5.195   0.805  0.0827  0.2429  0.1688
 1122TIP3    H127561   5.310   5.154   0.880  0.3318  2.2074  1.4599
 1122TIP3    H227562   5.435   5.147   0.795  0.0521 -0.0311  1.1906
 1123TIP3   OH227563   0.251   7.142   8.720 -0.0392  0.5576 -0.3846
 1123TIP3    H127564   0.210   7.061   8.751  0.1246  0.2865 -0.8583
 1123TIP3    H227565   0.331   7.150   8.772  0.7162 -0.3876 -1.3411
 1124TIP3   OH227566   1.555   3.468   6.712  0.0408  0.3101 -0.3246
 1124TIP3    H127567   1.536   3.493   6.802  1.8490 -1.7827  0.7499
 1124TIP3    H227568   1.516   3.537   6.659 -0.1048  2.2376  2.0945
 1125TIP3   OH227569   6.675   2.425   0.324 -0.0737 -0.1152  0.2747
 1125TIP3    H127570   6.662   2.334   0.352 -0.4349 -0.4428 -0.9083
 1125TIP3    H227571   6.717   2.418   0.238  0.6293  0.8530  0.5236
 1126TIP3   OH227572   1.011   2.013   8.977  0.0760  0.3471 -0.6005
 1126TIP3    H127573   1.083   2.064   9.016 -0.3942  0.5700 -0.0082
 1126TIP3    H227574   0.935   2.036   9.030 -0.5095  0.3814 -1.4466
 1127TIP3   OH227575   3.040   5.175   1.389 -0.2481 -0.3130  0.3239
 1127TIP3    H127576   3.118   5.138   1.430 -0.5235 -1.1181  0.1450
 1127TIP3    H227577   2.990   5.098   1.361 -0.7770  0.2085 -0.1659
 1128TIP3   OH227578   3.003   2.506   6.981 -0.2149 -0.0424 -0.0640
 1128TIP3    H127579   3.035   2.418   6.998  0.8045  0.1335 -0.9958
 1128TIP3    H227580   2.931   2.495   6.920  0.1280 -0.2104 -0.4402
 1129TIP3   OH227581   4.224   5.728   7.276  0.3107 -0.0496  0.4040
 1129TIP3    H127582   4.217   5.779   7.357  2.0670  2.0803 -0.6561
 1129TIP3    H227583   4.294   5.665   7.292 -1.2959 -1.6324  1.4466
 1130TIP3   OH227584   5.114   6.969   2.218 -0.0049 -0.6391 -0.2768
 1130TIP3    H127585   5.178   6.989   2.150  0.9347  0.9181  1.0013
 1130TIP3    H227586   5.164   6.924   2.286 -0.3784  0.0391  0.4689
 1131TIP3   OH227587   1.801   3.254   8.794 -0.3444 -0.7251 -0.1845
 1131TIP3    H127588   1.869   3.202   8.836  0.2109  0.9405  1.0688
 1131TIP3    H227589   1.747   3.286   8.866 -0.1719  1.1112 -0.8229
 1132TIP3   OH227590   7.150   1.358   0.571  0.3040  0.1888 -0.0073
 1132TIP3    H127591   7.237   1.318   0.570  1.4024  2.4198 -2.4936
 1132TIP3    H227592   7.123   1.351   0.663  1.5342 -3.6057  0.2766
 1133TIP3   OH227593   1.275   4.972   7.606 -0.3028  0.1901 -0.3851
 1133TIP3    H127594   1.207   4.928   7.658  0.8661  0.7839  1.7680
 1133TIP3    H227595   1.353   4.919   7.620 -0.0659  0.0483 -2.0656
 1134TIP3   OH227596   0.817   2.248   0.227  0.3556  0.0960  0.0816
 1134TIP3    H127597   0.732   2.289   0.215 -1.0958 -2.1526  1.7789
 1134TIP3    H227598   0.857   2.297   0.299 -0.1356  0.2581  0.2447
 1135TIP3   OH227599   1.387   0.893   0.438 -0.3058  0.5743 -0.7703
 1135TIP3    H127600   1.476   0.926   0.425  0.3000 -1.1217 -1.2251
 1135TIP3    H227601   1.347   0.955   0.498  2.4078 -0.5175  2.5142
 1136TIP3   OH227602   7.346   3.049   0.482  0.2186 -0.5266 -0.1832
 1136TIP3    H127603   7.330   3.121   0.543  1.2181  0.9453 -1.5479
 1136TIP3    H227604   7.258   3.020   0.456 -0.3030  1.5890 -1.0703
 1137TIP3   OH227605   3.652   1.839   7.078 -0.6009 -0.0663 -0.3573
 1137TIP3    H127606   3.597   1.790   7.017 -0.1809 -0.9034 -0.0819
 1137TIP3    H227607   3.713   1.774   7.112  0.2443  0.7448 -0.2934
 1138TIP3   OH227608   0.238   4.151   2.340  0.1351 -0.0964  0.1095
 1138TIP3    H127609   0.263   4.239   2.311  1.0612 -0.0563  0.9635
 1138TIP3    H227610   0.300   4.131   2.410 -0.7409 -1.0079  0.6453
 1139TIP3   OH227611   4.377   4.452   8.013 -0.3335  0.1546 -0.1681
 1139TIP3    H127612   4.375   4.357   8.023 -0.8698  0.1730 -0.0579
 1139TIP3    H227613   4.350   4.468   7.922 -0.7188  0.2166 -0.0474
 1140TIP3   OH227614   1.127   1.169   0.919  0.4124 -0.5031  0.1183
 1140TIP3    H127615   1.126   1.097   0.857  0.2922  0.6729 -1.2821
 1140TIP3    H227616   1.125   1.127   1.005 -1.8378 -2.1405 -0.6501
 1141TIP3   OH227617   3.626   6.487   0.537 -0.3336  0.3142 -0.0692
 1141TIP3    H127618   3.702   6.535   0.569 -0.9937  0.8984  0.6589
 1141TIP3    H227619   3.624   6.504   0.443  0.7010 -0.0945 -0.1749
 1142TIP3   OH227620   7.073   2.871   2.553 -0.0270  0.3651  0.6213
 1142TIP3    H127621   7.152   2.882   2.607  0.4758  0.1051 -0.0498
 1142TIP3    H227622   7.049   2.779   2.564  0.5566  0.1014 -0.2340
 1143TIP3   OH227623   4.335   4.499   7.748 -0.2272  0.0681 -0.1359
 1143TIP3    H127624   4.333   4.411   7.711 -0.5094  0.3390 -0.7819
 1143TIP3    H227625   4.388   4.550   7.688  1.0485  0.0511  0.9326
 1144TIP3   OH227626   3.894   1.478   0.889  0.4177  0.3700  0.2202
 1144TIP3    H127627   3.904   1.570   0.863  2.3094  1.0163  2.7645
 1144TIP3    H227628   3.943   1.472   0.972  2.2975 -3.4783 -0.9548
 1145TIP3   OH227629   4.225   5.285   2.423 -0.1536  0.1095 -0.7515
 1145TIP3    H127630   4.295   5.224   2.449  0.1343  0.8615  0.3198
 1145TIP3    H227631   4.236   5.294   2.329  1.2684  0.2794 -0.5959
 1146TIP3   OH227632   7.197   3.658   7.857  0.5695 -0.7104 -0.0647
 1146TIP3    H127633   7.114   3.678   7.900  1.0533 -0.8666  0.9763
 1146TIP3    H227634   7.182   3.678   7.765  0.3259  2.3304  0.5179
 1147TIP3   OH227635   0.635   1.215   1.171 -0.1257 -0.3008 -0.2618
 1147TIP3    H127636   0.722   1.254   1.174  0.7624 -2.1048 -1.1089
 1147TIP3    H227637   0.605   1.229   1.081 -0.6165  0.0947 -0.0423
 1148TIP3   OH227638   2.579   4.366   0.427 -0.2386 -0.1800  0.3149
 1148TIP3    H127639   2.621   4.302   0.484  0.7447  0.2928  0.1398
 1148TIP3    H227640   2.597   4.450   0.469  0.3639  0.1634 -0.6090
 1149TIP3   OH227641   6.938   5.918   8.798  0.4462 -0.2919  0.2045
 1149TIP3    H127642   6.866   5.897   8.739  0.2592  1.0020 -0.0529
 1149TIP3    H227643   6.907   5.994   8.848  0.7698 -1.0988  1.6784
 1150TIP3   OH227644   0.554   0.439   0.090 -0.2245  0.3636  0.3713
 1150TIP3    H127645   0.603   0.493   0.029 -0.1907 -0.5170 -0.4167
 1150TIP3    H227646   0.591   0.458   0.175 -0.5233  1.9094  0.1931
 1151TIP3   OH227647   3.770   1.592   0.324 -0.3248 -0.1233  0.1719
 1151TIP3    H127648   3.692   1.574   0.376  0.4191 -1.8316  0.7647
 1151TIP3    H227649   3.737   1.615   0.237 -1.6670  3.6320  1.4490
 1152TIP3   OH227650   6.649   1.114   1.075  0.3387  0.5503 -0.1993
 1152TIP3    H127651   6.578   1.146   1.020 -0.6842 -1.3982 -0.1012
 1152TIP3    H227652   6.623   1.137   1.164  0.3301  0.7266 -0.2474
 1153TIP3   OH227653   5.337   0.104   1.473 -0.0299 -0.2268 -0.4137
 1153TIP3    H127654   5.431   0.090   1.490 -0.2238  0.6464  1.6762
 1153TIP3    H227655   5.332   0.120   1.379  2.0024  0.2284 -0.4933
 1154TIP3   OH227656   7.368   2.250   2.824  0.1209  0.4374 -0.3790
 1154TIP3    H127657   7.342   2.210   2.741 -1.4933  0.3771  0.1318
 1154TIP3    H227658   7.324   2.197   2.891 -2.3249  3.1106  0.3206
 1155TIP3   OH227659   6.218   6.616   8.186 -0.3033 -0.0661  0.1217
 1155TIP3    H127660   6.134   6.642   8.148 -0.8540 -0.6076  0.9271
 1155TIP3    H227661   6.281   6.678   8.150 -1.0827  0.4733 -0.3430
 1156TIP3   OH227662   2.164   6.660   7.264  0.4690 -0.1212  0.5864
 1156TIP3    H127663   2.127   6.599   7.201 -0.6339 -1.0298  2.0254
 1156TIP3    H227664   2.172   6.742   7.216 -1.2972 -0.4963 -0.4749
 1157TIP3   OH227665   3.890   2.119   1.068 -0.2508 -0.2205 -0.4927
 1157TIP3    H127666   3.801   2.112   1.101 -0.5242  1.9158 -0.6562
 1157TIP3    H227667   3.886   2.082   0.980 -1.3008  0.9641 -0.9759
 1158TIP3   OH227668   1.665   5.427   9.931  0.5215 -0.0912 -0.1540
 1158TIP3    H127669   1.683   5.516   9.959  1.2082 -0.5074  0.7853
 1158TIP3    H227670   1.743   5.402   9.880  1.2891 -0.8387  1.3215
 1159TIP3   OH227671   0.635   5.279   6.839  0.3436 -0.0507  0.0626
 1159TIP3    H127672   0.647   5.300   6.746 -0.7853  3.2416  0.5118
 1159TIP3    H227673   0.688   5.344   6.885 -3.2883  2.0640  1.6832
 1160TIP3   OH227674   3.816   1.641   8.137  0.1533  0.1018 -0.1476
 1160TIP3    H127675   3.762   1.565   8.118  0.1124  0.5335 -1.9253
 1160TIP3    H227676   3.777   1.679   8.216 -2.5904  0.7604 -1.6794
 1161TIP3   OH227677   3.630   0.398   1.449  0.0898  0.1024  0.4048
 1161TIP3    H127678   3.574   0.428   1.520 -2.0290 -1.2233 -0.5940
 1161TIP3    H227679   3.607   0.455   1.375 -0.0464 -0.5286 -0.0455
 1162TIP3   OH227680   1.523   3.237   7.205  0.2107 -0.3355  0.3618
 1162TIP3    H127681   1.559   3.172   7.144 -0.0962  0.4169 -0.6571
 1162TIP3    H227682   1.428   3.226   7.198  0.1792 -0.6361  1.1654
 1163TIP3   OH227683   3.456   3.182   8.398  0.2473  0.3664 -0.0086
 1163TIP3    H127684   3.479   3.273   8.417 -0.2543  0.5059 -0.0360
 1163TIP3    H227685   3.368   3.188   8.359 -0.3834 -0.2392  1.2693
 1164TIP3   OH227686   7.447   2.696   1.859  0.2614  0.2097  0.4232
 1164TIP3    H127687   7.407   2.644   1.790  0.4450 -0.6606  0.9556
 1164TIP3    H227688   7.390   2.772   1.868  1.2085  1.2639 -1.9001
 1165TIP3   OH227689   4.034   3.310   7.874 -0.1583 -0.0146  0.2967
 1165TIP3    H127690   4.083   3.253   7.815 -1.3511  0.3738 -1.1353
 1165TIP3    H227691   3.943   3.285   7.861 -0.5191  0.7069  1.3061
 1166TIP3   OH227692   1.724   6.075   7.302  0.6406  0.1819 -0.2078
 1166TIP3    H127693   1.737   5.989   7.260  1.2503  0.6847 -1.0728
 1166TIP3    H227694   1.721   6.137   7.229  0.3431  0.9134  0.4216
 1167TIP3   OH227695   1.447   4.985   1.725 -0.2993 -0.5102 -0.7429
 1167TIP3    H127696   1.540   4.992   1.704 -0.7874  2.2652 -2.4134
 1167TIP3    H227697   1.436   5.036   1.805 -0.3995 -0.9474 -0.4714
 1168TIP3   OH227698   4.288   0.758   7.572  0.0134 -0.1125  0.3656
 1168TIP3    H127699   4.295   0.703   7.494 -1.2436  0.2373 -0.0273
 1168TIP3    H227700   4.323   0.705   7.643  0.9853 -0.5201 -0.3974
 1169TIP3   OH227701   1.589   5.580   9.351  0.1561  0.3364  0.2160
 1169TIP3    H127702   1.572   5.536   9.268  0.8725  1.1369 -0.3671
 1169TIP3    H227703   1.501   5.604   9.383 -0.2321 -1.2587  0.4411
 1170TIP3   OH227704   5.329   4.050   0.036  0.0752  0.6040  0.2071
 1170TIP3    H127705   5.305   3.987  -0.031  0.1858 -1.0894  1.7030
 1170TIP3    H227706   5.251   4.105   0.047  0.2791  1.3380 -1.7266
 1171TIP3   OH227707   4.862   5.047   9.184  0.3404  0.3736 -0.2845
 1171TIP3    H127708   4.829   5.107   9.251 -1.2746 -0.1159 -0.5848
 1171TIP3    H227709   4.903   5.104   9.119  0.0458  1.0360  0.0927
 1172TIP3   OH227710   0.614   5.131   9.347 -0.5219 -0.2348  0.1970
 1172TIP3    H127711   0.706   5.116   9.368 -0.5700 -1.0488 -0.1365
 1172TIP3    H227712   0.581   5.182   9.421  0.3126  0.4939  0.0822
 1173TIP3   OH227713   3.260   2.277   7.395 -0.0570 -0.0914  0.0878
 1173TIP3    H127714   3.335   2.289   7.336  0.4495 -0.2355  0.6829
 1173TIP3    H227715   3.206   2.354   7.382  0.7523  0.5428  0.4432
 1174TIP3   OH227716   6.582   6.500   7.546 -0.0468 -0.4293  0.2956
 1174TIP3    H127717   6.488   6.493   7.559  0.0188 -0.6280  0.6804
 1174TIP3    H227718   6.612   6.558   7.616  0.2692 -1.2773  0.8826
 1175TIP3   OH227719   6.334   2.651   7.793 -0.0202 -0.8670  0.1653
 1175TIP3    H127720   6.390   2.711   7.743  0.7435 -0.9073  0.9540
 1175TIP3    H227721   6.253   2.700   7.805  0.3553 -0.2438  0.2236
 1176TIP3   OH227722   1.664   0.503   1.189 -0.4822 -0.5138 -0.3039
 1176TIP3    H127723   1.628   0.534   1.272 -0.8602  0.1115 -0.6913
 1176TIP3    H227724   1.590   0.461   1.146 -0.4249 -0.3663 -0.5482
 1177TIP3   OH227725   1.281   1.141   7.119  0.3724 -0.4882  0.1263
 1177TIP3    H127726   1.218   1.087   7.071  1.2612 -1.1792 -0.2920
 1177TIP3    H227727   1.357   1.147   7.060  0.0595  1.7875 -0.1368
 1178TIP3   OH227728   1.466   3.681   6.562  0.1626  0.3696  0.4558
 1178TIP3    H127729   1.510   3.702   6.480  2.1936 -0.7209  1.1930
 1178TIP3    H227730   1.373   3.693   6.543  0.7220  3.3510 -1.0364
 1179TIP3   OH227731   2.732   1.370   7.620 -0.7177  0.0641 -0.1548
 1179TIP3    H127732   2.790   1.374   7.696 -0.0363 -0.8074 -0.6121
 1179TIP3    H227733   2.791   1.378   7.545 -1.4616  1.7531 -0.6111
 1180TIP3   OH227734   3.781   5.596   0.519 -0.0224  0.0690  0.3093
 1180TIP3    H127735   3.831   5.519   0.548  0.2720  0.5652  1.1351
 1180TIP3    H227736   3.706   5.559   0.473 -0.3177 -0.7388  1.3856
 1181TIP3   OH227737   3.305   3.185   7.126 -0.7351 -0.9554 -0.3739
 1181TIP3    H127738   3.350   3.105   7.100  1.5273 -0.4640  1.5934
 1181TIP3    H227739   3.352   3.255   7.080 -1.0339 -0.6024 -0.1473
 1182TIP3   OH227740   6.790   4.528   0.053 -0.7429 -0.7133 -0.3496
 1182TIP3    H127741   6.794   4.443   0.009 -2.3363 -1.0732  0.1364
 1182TIP3    H227742   6.800   4.508   0.146 -1.9995 -0.4809 -0.1541
 1183TIP3   OH227743   5.570   2.695   9.673 -0.1204 -0.0501 -0.1086
 1183TIP3    H127744   5.586   2.647   9.754  0.0520 -0.5669 -0.4479
 1183TIP3    H227745   5.657   2.710   9.635 -0.2473 -0.4502 -0.5650
 1184TIP3   OH227746   2.826   6.343   8.676  0.5852  0.1269 -0.0146
 1184TIP3    H127747   2.809   6.410   8.610 -0.0919  1.3639  1.3598
 1184TIP3    H227748   2.887   6.282   8.633 -0.5574  0.3457 -2.0809
 1185TIP3   OH227749   7.068   6.734   8.247  0.3203  0.1156  0.5948
 1185TIP3    H127750   7.091   6.805   8.186  0.9275  1.1230  1.9520
 1185TIP3    H227751   7.013   6.776   8.313  1.3523 -0.5011  1.8707
 1186TIP3   OH227752   0.756   1.051   1.468 -0.1371 -0.2186 -0.4062
 1186TIP3    H127753   0.806   1.073   1.546 -0.4615 -0.0164 -0.2520
 1186TIP3    H227754   0.694   1.124   1.458 -0.4865 -0.5284 -0.5196
 1187TIP3   OH227755   1.530   5.982   1.480 -0.0801  0.5858  0.5437
 1187TIP3    H127756   1.576   6.064   1.462  2.8387 -0.7243  1.3176
 1187TIP3    H227757   1.489   5.995   1.565 -2.0384  2.1102 -0.5744
 1188TIP3   OH227758   5.404   4.244   1.778  0.4595 -0.2409 -0.3088
 1188TIP3    H127759   5.407   4.321   1.721  0.8103  0.1328  0.1943
 1188TIP3    H227760   5.458   4.269   1.853 -2.1774  0.4052  1.5364
 1189TIP3   OH227761   5.065   6.041   7.474 -0.5274  0.2157  0.0089
 1189TIP3    H127762   5.074   5.966   7.415 -0.8006  0.5247 -0.4350
 1189TIP3    H227763   5.091   6.007   7.560 -0.7767 -0.4229 -0.1573
 1190TIP3   OH227764   0.866   5.030   9.455  0.6506  0.5148 -0.5261
 1190TIP3    H127765   0.869   4.969   9.529 -0.1426 -0.7700 -1.5062
 1190TIP3    H227766   0.874   4.975   9.378  0.0378  1.6688 -1.4478
 1191TIP3   OH227767   7.021   6.591   0.836  0.0419  0.0202  0.1425
 1191TIP3    H127768   7.044   6.500   0.854  0.2600  0.0049 -0.2192
 1191TIP3    H227769   6.934   6.586   0.796  1.4199 -0.3133 -3.0317
 1192TIP3   OH227770   0.948   0.838   2.250 -0.1093 -0.2410  0.2817
 1192TIP3    H127771   0.862   0.841   2.293 -0.3858 -2.4034  0.0316
 1192TIP3    H227772   0.937   0.892   2.172 -0.7789  0.6698  0.9800
 1193TIP3   OH227773   1.589   6.570   7.024  0.4112  0.2779  0.0442
 1193TIP3    H127774   1.681   6.571   6.997  1.1615 -0.8878  2.2991
 1193TIP3    H227775   1.546   6.633   6.966  2.2570 -0.4164 -2.2586
 1194TIP3   OH227776   6.714   1.600   0.746  0.3059  0.1894 -0.3157
 1194TIP3    H127777   6.686   1.683   0.784  1.7920  0.4917  0.1839
 1194TIP3    H227778   6.707   1.613   0.652 -0.9306  0.3345 -0.2145
 1195TIP3   OH227779   6.568   1.999   8.338  0.2458  0.7290 -0.5031
 1195TIP3    H127780   6.541   2.081   8.297 -0.5511 -0.1445 -1.7783
 1195TIP3    H227781   6.504   1.934   8.309 -0.9640  0.1900  2.8765
 1196TIP3   OH227782   6.599   2.212   8.656 -0.1230  0.1684  0.1054
 1196TIP3    H127783   6.650   2.158   8.597 -1.1459  0.6995 -1.3136
 1196TIP3    H227784   6.660   2.280   8.686  0.3542  0.0069 -0.4870
 1197TIP3   OH227785   2.826   7.368   7.521  0.1219 -0.1666 -0.2961
 1197TIP3    H127786   2.796   7.412   7.600 -2.0814 -0.8872 -0.6680
 1197TIP3    H227787   2.893   7.426   7.485  0.1782  0.8419  1.3486
 1198TIP3   OH227788   6.111   0.914   1.820  0.6138  0.3760  0.2101
 1198TIP3    H127789   6.069   0.897   1.736  0.8260 -0.3204  0.2392
 1198TIP3    H227790   6.048   0.883   1.885  1.0428 -0.4046  0.2618
 1199TIP3   OH227791   1.528   1.774   7.771 -0.0741  0.2609  0.0135
 1199TIP3    H127792   1.479   1.758   7.853  1.4156  0.0159  0.8870
 1199TIP3    H227793   1.504   1.700   7.715 -2.3155  1.2122 -0.4153
 1200TIP3   OH227794   1.922   1.997   7.823  0.5514 -0.0337 -0.2761
 1200TIP3    H127795   1.928   2.025   7.732 -2.0325 -0.2325 -0.5901
 1200TIP3    H227796   1.916   1.902   7.819 -2.6361  0.0512 -0.2641
 1201TIP3   OH227797   1.302   2.608   2.144 -0.2402 -0.6788 -0.3537
 1201TIP3    H127798   1.297   2.547   2.070  0.3864  0.1039 -1.0693
 1201TIP3    H227799   1.390   2.645   2.137 -0.8022  0.6972 -0.2512
 1202TIP3   OH227800   5.926   6.992   1.102 -0.2473 -0.4749  0.5818
 1202TIP3    H127801   5.882   6.908   1.088  0.0012 -0.6936  1.0806
 1202TIP3    H227802   5.914   7.040   1.020 -1.1444 -0.6499  0.6038
 1203TIP3   OH227803   7.336   3.093   9.788 -0.2266 -0.0959 -0.3286
 1203TIP3    H127804   7.255   3.102   9.839  0.5180  1.3531  0.6871
 1203TIP3    H227805   7.329   3.007   9.746 -2.6967  0.3825 -1.0430
 1204TIP3   OH227806   1.370   2.069   0.934  0.1887  0.3040 -0.2186
 1204TIP3    H127807   1.456   2.036   0.910 -0.2494 -0.7161 -0.4666
 1204TIP3    H227808   1.312   2.041   0.863 -1.0645 -2.4265  1.6886
 1205TIP3   OH227809   1.310   0.174   3.236 -0.6634  0.4126  0.0861
 1205TIP3    H127810   1.371   0.239   3.270 -0.4271  0.0205  0.4216
 1205TIP3    H227811   1.366   0.105   3.201 -0.8830  1.0191 -1.5650
 1206TIP3   OH227812   5.665   6.887   8.521  0.4761 -0.9651 -0.0693
 1206TIP3    H127813   5.684   6.948   8.450 -3.1831  0.4446 -0.0435
 1206TIP3    H227814   5.740   6.895   8.581  2.6860 -0.6923 -2.6916
 1207TIP3   OH227815   6.823   5.540   0.306 -0.4168 -0.1918  0.3060
 1207TIP3    H127816   6.917   5.553   0.318 -0.4611 -0.2899  0.7765
 1207TIP3    H227817   6.795   5.492   0.384 -0.8475 -0.2046  0.1457
 1208TIP3   OH227818   7.450   5.459   2.680  0.0542 -0.2869  0.0529
 1208TIP3    H127819   7.536   5.421   2.694  1.0594  2.2620  1.4729
 1208TIP3    H227820   7.410   5.462   2.766  0.4924  2.6625  0.2820
 1209TIP3   OH227821   1.135   0.389   0.359  0.6368 -0.1341 -0.2671
 1209TIP3    H127822   1.102   0.380   0.448  1.3101  0.1080  0.0080
 1209TIP3    H227823   1.189   0.311   0.345 -0.2566 -0.6806 -0.8236
 1210TIP3   OH227824   0.931   2.380   9.798  0.4488 -0.3507  0.3111
 1210TIP3    H127825   0.988   2.436   9.852  1.5193  0.0098 -1.1233
 1210TIP3    H227826   0.988   2.309   9.769 -0.1479 -0.6312 -0.1848
 1211TIP3   OH227827   3.375   6.776   8.207  0.5910 -0.1212  0.6585
 1211TIP3    H127828   3.392   6.817   8.291  0.9190  0.4724  0.3103
 1211TIP3    H227829   3.309   6.832   8.166  0.3834 -0.4432  0.5449
 1212TIP3   OH227830   7.136   0.303   1.691  0.0273 -0.3820  0.2491
 1212TIP3    H127831   7.208   0.276   1.748  0.3839  1.1991  0.5811
 1212TIP3    H227832   7.164   0.386   1.654 -1.5643  0.2014  0.2844
 1213TIP3   OH227833   4.289   1.531   9.322 -0.3702 -0.3271  0.8987
 1213TIP3    H127834   4.384   1.540   9.327 -0.5482  2.2280  0.8933
 1213TIP3    H227835   4.271   1.520   9.229 -0.1840  1.2990  0.6468
 1214TIP3   OH227836   1.773   6.026   3.326 -0.4013  0.6955 -0.0876
 1214TIP3    H127837   1.774   6.045   3.420 -3.2606 -2.9112  0.8721
 1214TIP3    H227838   1.829   5.949   3.317 -0.8864  0.4550 -1.1754
 1215TIP3   OH227839   3.673   7.152   7.373  0.7352  0.4528 -0.2549
 1215TIP3    H127840   3.656   7.092   7.445 -1.3298  0.4707 -0.6472
 1215TIP3    H227841   3.644   7.238   7.405  1.2862  0.7601 -0.5630
 1216TIP3   OH227842   6.392   2.359   9.259 -0.2069 -0.1818 -0.6502
 1216TIP3    H127843   6.481   2.348   9.225 -0.7583 -3.4667 -1.3218
 1216TIP3    H227844   6.396   2.326   9.348 -0.5646  0.7287 -0.2791
 1217TIP3   OH227845   5.227   6.233   9.671  0.1391  0.0480 -0.8272
 1217TIP3    H127846   5.159   6.165   9.669  0.4195 -0.2683 -0.0025
 1217TIP3    H227847   5.205   6.291   9.598 -1.2538  0.1829 -0.3372
 1218TIP3   OH227848   7.371   2.748   7.631  0.1997  0.2859 -0.1952
 1218TIP3    H127849   7.312   2.717   7.700 -1.1967 -1.3158 -2.0027
 1218TIP3    H227850   7.455   2.709   7.652  0.3940  1.5211  1.6882
 1219TIP3   OH227851   5.591   3.191   0.701  0.2840  0.0851 -0.6203
 1219TIP3    H127852   5.672   3.141   0.714  0.9890  0.9432 -1.6081
 1219TIP3    H227853   5.530   3.127   0.663  0.2621 -0.7314  0.7078
 1220TIP3   OH227854   1.240   0.417   1.876 -0.2002 -0.4461  0.4147
 1220TIP3    H127855   1.285   0.366   1.944  0.1942  0.8153  1.1389
 1220TIP3    H227856   1.150   0.388   1.880  0.3340 -2.3518 -0.4167
 1221TIP3   OH227857   6.577   0.017   8.083 -0.2845 -0.4732 -0.3224
 1221TIP3    H127858   6.657   0.050   8.041 -0.3277  0.8373  0.5663
 1221TIP3    H227859   6.539  -0.042   8.018  1.4840 -1.2527 -0.6949
 1222TIP3   OH227860   3.370   5.236   9.567  0.1129 -0.0151 -0.3567
 1222TIP3    H127861   3.298   5.279   9.520 -0.5828 -1.9591 -1.1973
 1222TIP3    H227862   3.448   5.285   9.542 -0.5075  0.1543 -2.1095
 1223TIP3   OH227863   1.432   2.483   2.400 -0.2974 -0.6170 -0.1150
 1223TIP3    H127864   1.368   2.465   2.331 -1.5255  2.3639  0.0998
 1223TIP3    H227865   1.385   2.468   2.482 -0.0988 -0.3536  0.0509
 1224TIP3   OH227866   1.544   5.435   9.121 -0.0683  0.2946  0.5730
 1224TIP3    H127867   1.535   5.343   9.098  0.4025  0.8001 -1.8704
 1224TIP3    H227868   1.515   5.483   9.043 -1.0345  2.2452  2.0400
 1225TIP3   OH227869   6.053   4.119   7.562  0.0886 -0.0867  0.2472
 1225TIP3    H127870   6.039   4.086   7.651 -0.8412  0.3581  0.2857
 1225TIP3    H227871   6.111   4.194   7.572  0.3889 -0.3438  0.4216
 1226TIP3   OH227872   2.642   0.878   9.658  0.3793 -0.2787  0.1710
 1226TIP3    H127873   2.605   0.895   9.745 -1.7231 -0.0450 -0.7124
 1226TIP3    H227874   2.635   0.783   9.648  0.5136 -0.2923  0.2000
 1227TIP3   OH227875   4.918   3.761   0.968  0.2991 -0.0686 -0.2204
 1227TIP3    H127876   4.877   3.835   0.924  2.0621  0.1466 -1.6356
 1227TIP3    H227877   4.920   3.692   0.902  0.1287 -0.8463  0.5656
 1228TIP3   OH227878   3.045   3.360   1.263  0.4377 -0.1347  0.2609
 1228TIP3    H127879   3.020   3.444   1.301  0.2895 -0.0549 -0.0049
 1228TIP3    H227880   3.127   3.377   1.217 -1.4940  0.9293 -3.2525
 1229TIP3   OH227881   6.792   4.380   8.111  0.4772  0.0026  0.1475
 1229TIP3    H127882   6.859   4.333   8.161 -0.5094 -1.1129  0.4825
 1229TIP3    H227883   6.750   4.438   8.175  0.6197  0.1443  0.1130
 1230TIP3   OH227884   6.707   1.786   9.360 -0.2864  0.2939 -0.5171
 1230TIP3    H127885   6.784   1.730   9.347  0.1142  0.7953 -0.3454
 1230TIP3    H227886   6.706   1.803   9.454  0.9229  2.3998 -0.8147
 1231TIP3   OH227887   6.733   4.716   9.457 -0.2996 -0.0334 -0.0712
 1231TIP3    H127888   6.787   4.718   9.378 -0.2332  0.5713 -0.0155
 1231TIP3    H227889   6.683   4.634   9.450 -1.6833  0.9017 -1.6658
 1232TIP3   OH227890   2.211   6.837   9.337  0.3181  0.1088 -0.0039
 1232TIP3    H127891   2.122   6.836   9.302  0.1597  0.8194  0.3722
 1232TIP3    H227892   2.203   6.872   9.426  1.1093  1.2818 -0.3703
 1233TIP3   OH227893   0.660   4.566   2.973 -0.1183 -0.3902 -0.3349
 1233TIP3    H127894   0.619   4.486   3.004  1.5138 -0.2875  2.3935
 1233TIP3    H227895   0.716   4.594   3.045 -0.1782  2.9146 -1.3945
 1234TIP3   OH227896   6.388   6.482   7.952  0.0162 -0.2242  0.1373
 1234TIP3    H127897   6.408   6.543   8.022 -1.2409 -0.2341  0.5249
 1234TIP3    H227898   6.414   6.528   7.872  1.7929 -0.3574  0.5949
 1235TIP3   OH227899   4.705   1.471   8.328  0.4149  0.1155  0.7467
 1235TIP3    H127900   4.624   1.451   8.375  0.7062  1.0539  1.7048
 1235TIP3    H227901   4.718   1.398   8.268 -1.7157  0.4750 -0.2166
 1236TIP3   OH227902   1.385   4.082   0.794 -0.2946  0.3733  0.2417
 1236TIP3    H127903   1.292   4.105   0.788 -0.7701 -1.3492  0.4701
 1236TIP3    H227904   1.427   4.133   0.726 -1.2747  1.8052  0.6703
 1237TIP3   OH227905   5.694   5.634   2.344  0.3513 -0.1043 -0.3666
 1237TIP3    H127906   5.772   5.579   2.348 -0.0089 -0.5814  0.3793
 1237TIP3    H227907   5.636   5.589   2.282  0.2611 -0.2949 -0.1444
 1238TIP3   OH227908   5.146   7.274   8.592  0.1659 -0.3748 -0.5063
 1238TIP3    H127909   5.196   7.260   8.673  0.0816  0.9343 -0.2128
 1238TIP3    H227910   5.161   7.194   8.541  0.5418 -1.0533  0.6242
 1239TIP3   OH227911   5.450   2.711   0.504  0.6703  0.0543  0.0012
 1239TIP3    H127912   5.512   2.657   0.454  0.2348  1.1123 -1.7761
 1239TIP3    H227913   5.421   2.654   0.575  0.8648 -1.7648 -1.2939
 1240TIP3   OH227914   3.729   0.180   0.775  0.5707 -0.3439  0.5490
 1240TIP3    H127915   3.730   0.118   0.849  0.2142 -0.9350  0.0728
 1240TIP3    H227916   3.725   0.124   0.698 -2.1997  0.2297  0.1510
 1241TIP3   OH227917   3.677   6.521   8.372 -0.2740  0.0294  0.2190
 1241TIP3    H127918   3.648   6.495   8.459  0.7288  2.0238  1.2109
 1241TIP3    H227919   3.598   6.515   8.317 -1.2300  0.0628  1.5578
 1242TIP3   OH227920   0.868   3.246   1.147 -0.3576  0.0923  0.1501
 1242TIP3    H127921   0.816   3.184   1.198 -0.4973  0.0701 -0.0179
 1242TIP3    H227922   0.813   3.267   1.071  0.4826 -1.0604 -0.8059
 1243TIP3   OH227923   5.271   0.191   9.196 -0.3374 -0.3497  0.1242
 1243TIP3    H127924   5.246   0.102   9.170 -0.3852 -0.2879 -0.0405
 1243TIP3    H227925   5.363   0.198   9.168 -0.9770  0.4463 -1.9662
 1244TIP3   OH227926   2.238   7.077   7.748 -0.0082 -0.2514 -0.0687
 1244TIP3    H127927   2.160   7.033   7.714 -1.2200  1.2790  0.6129
 1244TIP3    H227928   2.278   7.014   7.808 -2.8392  0.1828  2.5047
 1245TIP3   OH227929   4.855   4.749   8.927  0.1886 -0.1887 -0.4985
 1245TIP3    H127930   4.801   4.819   8.890  0.4498  0.0489 -0.4308
 1245TIP3    H227931   4.944   4.771   8.901  0.1002 -1.4955 -2.0678
 1246TIP3   OH227932   4.704   7.173   0.495 -0.5866  0.4343 -0.5564
 1246TIP3    H127933   4.623   7.153   0.446 -2.3124  2.4871  1.2386
 1246TIP3    H227934   4.699   7.118   0.573  0.3775 -0.2435 -0.9485
 1247TIP3   OH227935   5.766   5.852   9.364  0.7067  0.7835  0.1816
 1247TIP3    H127936   5.794   5.791   9.295  2.0948  0.2459  1.1522
 1247TIP3    H227937   5.676   5.828   9.382  1.2182 -1.0560  0.5481
 1248TIP3   OH227938   2.739   6.975   0.870 -0.1710  0.2749  0.5114
 1248TIP3    H127939   2.656   6.929   0.853  0.3844 -0.3605 -0.6486
 1248TIP3    H227940   2.729   7.059   0.826  0.2126 -0.2615 -0.6395
 1249TIP3   OH227941   3.554   3.272   9.194  0.2205  0.1514  0.4283
 1249TIP3    H127942   3.580   3.314   9.276 -0.1487  2.5366 -0.5921
 1249TIP3    H227943   3.469   3.310   9.173 -1.3852 -3.0028  0.6107
 1250TIP3   OH227944   7.377   6.345   7.673  0.0925 -0.0687 -0.1880
 1250TIP3    H127945   7.460   6.312   7.708  0.0415 -0.8162 -0.7505
 1250TIP3    H227946   7.348   6.277   7.612 -2.2400 -1.1061  1.8989
 1251TIP3   OH227947   3.834   0.848   6.872 -0.6614  0.3970 -0.3530
 1251TIP3    H127948   3.847   0.755   6.851  0.9704  0.7125 -0.8858
 1251TIP3    H227949   3.825   0.890   6.786  1.5825  1.1089 -0.2830
 1252TIP3   OH227950   1.936   0.947   2.975  0.3043  0.0973  0.6593
 1252TIP3    H127951   1.907   0.927   2.886  1.0796  1.6601  0.0264
 1252TIP3    H227952   1.860   0.987   3.017  0.3686  0.6615  0.2401
 1253TIP3   OH227953   4.471   4.702   9.621 -0.0740  0.6885  0.2814
 1253TIP3    H127954   4.508   4.663   9.543 -1.0497  0.8042 -0.2561
 1253TIP3    H227955   4.546   4.739   9.668  0.7137 -0.7945  0.2297
 1254TIP3   OH227956   7.086   5.846   2.266  0.0307  0.3843 -0.1027
 1254TIP3    H127957   7.036   5.793   2.204  0.7173  1.0595 -1.2804
 1254TIP3    H227958   7.071   5.936   2.238 -1.4657  0.9201  2.1256
 1255TIP3   OH227959   4.870   0.214   8.677 -0.2685  0.9469  0.1359
 1255TIP3    H127960   4.920   0.296   8.676 -1.0630  1.4591  0.9038
 1255TIP3    H227961   4.796   0.232   8.735 -0.7389 -0.1553 -0.1012
 1256TIP3   OH227962   4.868   6.088   9.436 -0.0626  0.0185  0.3297
 1256TIP3    H127963   4.854   6.047   9.522 -2.4669 -1.4222 -0.6360
 1256TIP3    H227964   4.787   6.071   9.388  1.6394 -0.3856 -2.6894
 1257TIP3   OH227965   5.103   7.258   1.652 -0.1054 -0.4835  0.1435
 1257TIP3    H127966   5.044   7.254   1.577 -0.0162 -0.3881  0.0676
 1257TIP3    H227967   5.067   7.327   1.708  0.8457  0.7576 -0.6965
 1258TIP3   OH227968   4.578   3.453   8.825  0.1558 -0.1581  0.1483
 1258TIP3    H127969   4.504   3.463   8.765 -0.3107  0.4503  0.8026
 1258TIP3    H227970   4.647   3.508   8.788  0.6499 -1.4677 -0.9874
 1259TIP3   OH227971   3.864   5.012   9.970  0.1088 -0.4650  0.0529
 1259TIP3    H127972   3.805   5.061   9.913 -1.2296 -1.9530  0.1070
 1259TIP3    H227973   3.905   4.947   9.913 -0.8353 -1.6128  0.6463
 1260TIP3   OH227974   4.600   4.396   9.076 -0.2600 -0.4203  0.1037
 1260TIP3    H127975   4.636   4.476   9.113 -1.3694 -0.1976  0.7587
 1260TIP3    H227976   4.596   4.413   8.982  2.8107 -1.0885 -0.2548
 1261TIP3   OH227977   3.538   4.303   9.656 -0.1472  0.6992 -0.4573
 1261TIP3    H127978   3.446   4.274   9.653 -0.2457  0.7461  1.1480
 1261TIP3    H227979   3.536   4.393   9.623 -0.4702  0.2869 -1.6047
 1262TIP3   OH227980   3.335   7.303   1.910  0.1754  0.0483  0.2758
 1262TIP3    H127981   3.388   7.319   1.988  0.0555 -1.3298  0.6612
 1262TIP3    H227982   3.249   7.279   1.944  0.2279 -0.9374 -0.2503
 1263TIP3   OH227983   2.804   0.623   1.730  0.2557 -0.1241 -0.2975
 1263TIP3    H127984   2.835   0.557   1.668 -1.6896 -0.2225 -1.2332
 1263TIP3    H227985   2.743   0.677   1.680 -3.1004 -1.4922  1.9455
 1264TIP3   OH227986   2.292   3.439   7.998  0.4418 -0.5003  0.7298
 1264TIP3    H127987   2.324   3.402   7.916 -0.2074  2.1927 -0.8712
 1264TIP3    H227988   2.197   3.431   7.993  0.2107  1.7804 -0.0166
 1265TIP3   OH227989   1.241   2.428   1.946  0.2206 -0.0023 -0.0154
 1265TIP3    H127990   1.306   2.367   1.912  0.5688  1.2858 -1.8274
 1265TIP3    H227991   1.158   2.381   1.937  0.6238 -0.7189 -0.0596
 1266TIP3   OH227992   4.869   2.946   8.577 -0.3600  0.5827 -0.2441
 1266TIP3    H127993   4.920   2.918   8.501  0.4903  1.7225 -0.1285
 1266TIP3    H227994   4.926   2.930   8.652 -1.4142 -1.0727  0.2513
 1267TIP3   OH227995   2.631   3.773   9.816 -0.4086 -0.5305 -0.4035
 1267TIP3    H127996   2.580   3.846   9.851  0.7745  0.1208  0.0131
 1267TIP3    H227997   2.699   3.814   9.762 -0.0392 -1.3541 -0.5856
 1268TIP3   OH227998   6.125   2.395   1.778  0.5386  0.3429 -0.3707
 1268TIP3    H127999   6.133   2.431   1.866  2.0246  2.0376 -1.1319
 1268TIP3    H228000   6.045   2.434   1.743  0.7722  0.9062 -0.2895
 1269TIP3   OH228001   5.866   4.103   9.345  0.5085  0.0357  0.1817
 1269TIP3    H128002   5.913   4.107   9.429  2.4670 -1.5947 -0.7450
 1269TIP3    H228003   5.811   4.025   9.353  0.1547  0.2882  0.2055
 1270TIP3   OH228004   1.183   0.197   6.584 -0.7090  0.5061 -0.1517
 1270TIP3    H128005   1.250   0.264   6.599 -0.5298  0.1278  0.8366
 1270TIP3    H228006   1.103   0.234   6.622 -0.7335  0.3958 -0.0932
 1271TIP3   OH228007   3.539   0.544   8.828  0.0286  0.0421  0.6804
 1271TIP3    H128008   3.452   0.521   8.796  0.5589  1.0018 -1.6988
 1271TIP3    H228009   3.575   0.601   8.760  3.1553 -1.5956  0.7658
 1272TIP3   OH228010   6.470   4.836   7.581  0.1478 -0.0570 -0.3293
 1272TIP3    H128011   6.529   4.762   7.589 -1.4163 -1.2914  0.5512
 1272TIP3    H228012   6.514   4.897   7.523  1.2467 -1.9374 -1.5597
 1273TIP3   OH228013   4.883   3.249   0.194  0.1550  0.7580  0.4128
 1273TIP3    H128014   4.970   3.272   0.161 -0.0439  0.5479 -0.2881
 1273TIP3    H228015   4.836   3.219   0.116 -0.5861  0.9935  0.7677
 1274TIP3   OH228016   5.542   2.149   1.116 -0.1923  0.2718  0.2343
 1274TIP3    H128017   5.447   2.152   1.121 -0.1832  0.0599  0.5839
 1274TIP3    H228018   5.563   2.055   1.118  0.0185  0.3144  0.0675
 1275TIP3   OH228019   2.406   1.569   2.452  0.1770 -0.3315 -0.1370
 1275TIP3    H128020   2.314   1.593   2.452  0.1323  0.1931  4.1257
 1275TIP3    H228021   2.451   1.641   2.496  2.2782 -1.6390  0.0372
 1276TIP3   OH228022   1.595   7.298   9.431 -0.8385  0.3617 -0.6350
 1276TIP3    H128023   1.686   7.270   9.444 -1.0919 -0.1391  0.1736
 1276TIP3    H228024   1.599   7.393   9.432 -0.4852  0.3587  0.8041
 1277TIP3   OH228025   6.378   4.860   9.127  0.3132 -0.0445  0.2737
 1277TIP3    H128026   6.333   4.864   9.211 -0.0443 -0.5434  0.1087
 1277TIP3    H228027   6.455   4.805   9.144  0.0103 -0.5036  0.1723
 1278TIP3   OH228028   0.549   3.231   7.609 -0.6980 -0.0492 -0.0112
 1278TIP3    H128029   0.608   3.246   7.683  0.2013 -1.5777 -0.3934
 1278TIP3    H228030   0.601   3.251   7.532 -1.2198  0.2219 -0.3013
 1279TIP3   OH228031   5.359   5.556   7.711  0.0940  0.5641 -0.1988
 1279TIP3    H128032   5.326   5.491   7.649  0.8027  1.4430 -1.5508
 1279TIP3    H228033   5.291   5.624   7.710  0.4031  0.8722 -0.5139
 1280TIP3   OH228034   3.919   3.840   0.209 -0.3826  0.8594 -0.1667
 1280TIP3    H128035   3.852   3.851   0.142  0.4337  0.7374 -1.0275
 1280TIP3    H228036   3.911   3.748   0.236 -0.2051  0.6968 -0.6609
 1281TIP3   OH228037   4.563   3.415   9.979 -0.1586  0.9057  0.6038
 1281TIP3    H128038   4.577   3.353  10.051  3.1697 -0.9200 -1.3859
 1281TIP3    H228039   4.488   3.379   9.931  0.0575 -0.0795  0.9797
 1282TIP3   OH228040   2.097   1.976   1.723 -0.1907 -0.0235  0.2760
 1282TIP3    H128041   2.103   1.986   1.818  0.3000  0.8536  0.1619
 1282TIP3    H228042   2.052   2.056   1.693 -0.1778 -0.2041 -0.2420
 1283TIP3   OH228043   2.000   1.679   9.688  0.1583 -0.2710 -0.3591
 1283TIP3    H128044   1.916   1.633   9.680  0.3913 -0.9692  1.0650
 1283TIP3    H228045   1.979   1.769   9.662 -1.1075 -0.3587  0.2586
 1284TIP3   OH228046   6.162   3.407   0.031 -0.1694 -0.1538 -0.0294
 1284TIP3    H128047   6.136   3.345   0.099  1.8628 -1.2110 -0.1706
 1284TIP3    H228048   6.249   3.437   0.057  0.0638  0.4863 -1.4514
 1285TIP3   OH228049   2.907   4.477   0.401  0.2031  0.0787 -0.0285
 1285TIP3    H128050   2.965   4.418   0.449 -0.0580 -0.2922 -0.1653
 1285TIP3    H228051   2.838   4.499   0.465  0.5339  0.5829  0.1596
 1286TIP3   OH228052   1.929   1.961   9.845  0.6787 -0.0633 -0.0019
 1286TIP3    H128053   1.992   2.029   9.869  1.1193 -0.2459 -0.6244
 1286TIP3    H228054   1.929   1.960   9.750  1.2323 -1.4290 -0.0187
 1287TIP3   OH228055   4.443   4.202   2.344  0.1655  0.2480  0.3121
 1287TIP3    H128056   4.461   4.293   2.321  1.0462 -0.1625 -0.7337
 1287TIP3    H228057   4.363   4.206   2.397 -1.5382  1.3916 -2.1034
 1288TIP3   OH228058   3.814   4.314   7.207 -0.0263 -0.6485 -0.2930
 1288TIP3    H128059   3.899   4.283   7.177 -0.9749 -2.1429 -1.5331
 1288TIP3    H228060   3.833   4.398   7.250  1.9945 -0.7435 -0.9200
 1289TIP3   OH228061   3.702   4.455   2.746 -0.1521  0.2885 -0.3164
 1289TIP3    H128062   3.742   4.394   2.807 -0.7108  0.3610  0.1242
 1289TIP3    H228063   3.716   4.414   2.660  1.2338  0.5181 -0.2277
 1290TIP3   OH228064   4.274   6.431   9.698 -0.2052  0.0587  0.1463
 1290TIP3    H128065   4.270   6.356   9.638 -0.4621  0.5720 -0.4863
 1290TIP3    H228066   4.242   6.396   9.782 -2.0905 -0.1003 -0.5944
 1291TIP3   OH228067   5.207   7.029   0.545 -0.5451  0.5279 -0.4763
 1291TIP3    H128068   5.114   7.045   0.528 -1.0066 -0.8894  0.5586
 1291TIP3    H228069   5.222   7.066   0.632 -0.4890 -0.4845 -0.0514
 1292TIP3   OH228070   0.060   4.288   9.035 -0.4115 -0.3074 -0.2837
 1292TIP3    H128071  -0.002   4.251   8.972  1.1217 -0.7955 -1.5720
 1292TIP3    H228072   0.066   4.381   9.011 -0.5398 -0.2844 -0.2311
 1293TIP3   OH228073   4.853   4.619   1.194  0.7103 -0.1400  0.0208
 1293TIP3    H128074   4.794   4.544   1.203 -0.7761  0.6996 -1.8667
 1293TIP3    H228075   4.802   4.693   1.227  0.8538  0.5375 -1.2290
 1294TIP3   OH228076   3.130   4.870   9.990  0.2457 -0.8995 -0.0573
 1294TIP3    H128077   3.212   4.859  10.038  0.9612 -0.8717 -1.2338
 1294TIP3    H228078   3.068   4.813  10.035  0.9198 -0.9660  0.8123
 1295TIP3   OH228079   3.586   6.165   1.098 -0.2809 -0.2347  0.0896
 1295TIP3    H128080   3.601   6.202   1.011  0.6372 -1.4955 -0.3145
 1295TIP3    H228081   3.659   6.104   1.111 -0.7005 -0.4541  1.5204
 1296TIP3   OH228082   1.624   0.159   8.137  0.4814 -0.0339  0.2722
 1296TIP3    H128083   1.538   0.163   8.180 -0.0717 -0.3633 -0.7662
 1296TIP3    H228084   1.684   0.132   8.206  0.0946  1.9651  1.4812
 1297TIP3   OH228085   2.349   2.170   2.073  0.3370 -0.1425  0.7266
 1297TIP3    H128086   2.411   2.120   2.021 -0.8349 -1.4210  0.4820
 1297TIP3    H228087   2.371   2.150   2.163  0.7504  0.0128  0.6599
 1298TIP3   OH228088   1.791   0.383   1.504  0.4758  0.3391 -0.1176
 1298TIP3    H128089   1.857   0.365   1.571  1.3462 -1.5388 -1.4135
 1298TIP3    H228090   1.811   0.323   1.433 -2.8906 -0.6294 -0.4255
 1299TIP3   OH228091   3.026   5.939   2.939  0.1678  0.1123  0.7176
 1299TIP3    H128092   2.976   5.859   2.956  0.6881 -0.1508  1.0453
 1299TIP3    H228093   3.117   5.914   2.955  0.3390  0.7672  0.8001
 1300TIP3   OH228094   5.909   0.068   9.953 -0.4793 -0.0928 -0.0226
 1300TIP3    H128095   5.936  -0.005  10.009 -0.2203  1.1607  1.5767
 1300TIP3    H228096   5.978   0.134   9.966 -0.6592  0.4103 -1.4898
 1301TIP3   OH228097   0.510   1.693   6.944  0.0240  0.1501 -0.0738
 1301TIP3    H128098   0.559   1.742   7.010 -0.1213 -0.4118  0.4583
 1301TIP3    H228099   0.575   1.640   6.899 -0.1641 -1.1044  1.0812
 1302TIP3   OH228100   5.158   6.803   9.719 -0.0151 -0.1932  0.1212
 1302TIP3    H128101   5.228   6.744   9.690  0.0542 -1.1314  2.0654
 1302TIP3    H228102   5.078   6.768   9.680  0.1623 -1.0295  0.4951
 1303TIP3   OH228103   2.125   2.198   7.831 -0.2811  0.1452  0.1268
 1303TIP3    H128104   2.054   2.145   7.867  1.1214 -1.3625  0.8220
 1303TIP3    H228105   2.139   2.267   7.896 -0.9157  0.2750  0.1276
 1304TIP3   OH228106   3.809   1.003   1.952  0.4544 -0.0702 -1.2024
 1304TIP3    H128107   3.723   0.978   1.985  1.0792  0.6194  1.1508
 1304TIP3    H228108   3.792   1.074   1.890 -0.5628  2.3053  1.5906
 1305TIP3   OH228109   0.170   6.663   1.482  0.0731 -0.0965 -0.1457
 1305TIP3    H128110   0.234   6.613   1.431 -1.0835 -4.2857  2.0375
 1305TIP3    H228111   0.223   6.708   1.549  1.1175  1.0988 -1.7194
 1306TIP3   OH228112   6.946   5.061   0.108 -0.1211  0.6852  0.3596
 1306TIP3    H128113   6.873   5.123   0.113 -2.2869 -1.4343 -1.9260
 1306TIP3    H228114   6.908   4.976   0.126  1.8109 -0.5040 -0.6962
 1307TIP3   OH228115   4.388   5.707   7.691  0.1852  0.0277 -0.6438
 1307TIP3    H128116   4.448   5.780   7.704 -0.4911  0.4374  0.3607
 1307TIP3    H228117   4.433   5.649   7.630  1.1130  0.8567 -0.7742
 1308TIP3   OH228118   4.614   5.940   8.414  0.1867  0.1668 -0.0213
 1308TIP3    H128119   4.687   5.888   8.380  0.7729  0.9504  0.0184
 1308TIP3    H228120   4.541   5.921   8.353  1.0452  1.0714 -1.3846
 1309TIP3   OH228121   0.285   6.495   7.864 -0.3817  0.2610  0.0689
 1309TIP3    H128122   0.234   6.563   7.819  0.1366  1.2470  0.9347
 1309TIP3    H228123   0.222   6.452   7.922 -0.2756  1.4194  1.0718
 1310TIP3   OH228124   4.083   1.115   2.093  0.2168  0.0725 -0.2036
 1310TIP3    H128125   4.051   1.071   2.172 -1.1719  1.3813  0.0082
 1310TIP3    H228126   4.007   1.120   2.036  1.1830 -0.7688 -1.6255
 1311TIP3   OH228127   2.596   3.520   9.389  0.7262 -0.4987  0.7586
 1311TIP3    H128128   2.585   3.611   9.362 -1.3448 -0.9831 -0.2140
 1311TIP3    H228129   2.585   3.522   9.484  0.8241  0.2777  0.7615
 1312TIP3   OH228130   5.972   2.397   8.746 -0.2405  0.2996 -0.0526
 1312TIP3    H128131   6.045   2.344   8.776 -0.7280  0.8998  2.4610
 1312TIP3    H228132   5.898   2.368   8.800 -1.2872  1.2852 -0.9149
 1313TIP3   OH228133   4.080   7.328   9.733 -0.2702  0.3479  0.2384
 1313TIP3    H128134   4.108   7.340   9.823 -0.5185 -0.5838  0.4560
 1313TIP3    H228135   4.104   7.237   9.712 -0.0622  0.6006 -0.6893
 1314TIP3   OH228136   7.387   7.199   1.608  0.4000  0.4351 -0.0118
 1314TIP3    H128137   7.472   7.184   1.651  0.5532  1.2725  0.0045
 1314TIP3    H228138   7.329   7.133   1.646  0.7635  0.5665  0.8095
 1315TIP3   OH228139   0.686   1.237   1.776 -0.1145 -0.8633  0.0989
 1315TIP3    H128140   0.762   1.258   1.723 -1.7322  2.1690 -1.3110
 1315TIP3    H228141   0.695   1.292   1.854 -0.8461 -0.4427 -0.1000
 1316TIP3   OH228142   6.665   5.176   0.582  0.1322 -0.1230  0.1825
 1316TIP3    H128143   6.677   5.128   0.664 -2.0338  0.8598  1.1365
 1316TIP3    H228144   6.641   5.109   0.518  1.7745 -0.8894  0.3108
 1317TIP3   OH228145   5.967   0.351   2.396  0.7301 -0.4015  0.6050
 1317TIP3    H128146   6.020   0.376   2.320  0.1492 -1.2697 -0.1166
 1317TIP3    H228147   5.982   0.420   2.460  2.1296 -0.2279  0.1341
 1318TIP3   OH228148   0.338   3.014   8.975 -0.2115 -0.5777 -0.4049
 1318TIP3    H128149   0.370   3.037   9.062 -2.5833  1.5292  0.0079
 1318TIP3    H228150   0.333   2.918   8.976  1.5909 -0.7161  1.0504
 1319TIP3   OH228151   1.473   1.984   1.543  0.0007  0.3085  0.3474
 1319TIP3    H128152   1.526   2.063   1.535  1.9615 -0.9063  0.5867
 1319TIP3    H228153   1.452   1.978   1.636 -2.1143  1.6991  0.0133
 1320TIP3   OH228154   7.201   2.739   0.480 -0.1371  0.0160 -0.4922
 1320TIP3    H128155   7.176   2.647   0.491  0.3670 -0.0931 -0.2368
 1320TIP3    H228156   7.243   2.742   0.394  0.9980 -0.2561  0.0323
 1321TIP3   OH228157   3.782   4.131   7.430  0.8315 -0.0404  0.0728
 1321TIP3    H128158   3.773   4.191   7.357 -0.9410 -0.7698 -0.3552
 1321TIP3    H228159   3.868   4.091   7.418  1.7681  1.8772  0.0078
 1322TIP3   OH228160   4.552   6.416   1.064  0.6714  0.8136 -0.4314
 1322TIP3    H128161   4.518   6.401   1.152  0.0328 -0.2730 -0.8421
 1322TIP3    H228162   4.637   6.459   1.078  0.2079  1.3985  0.6749
 1323TIP3   OH228163   1.755   1.258   9.448  0.2473 -0.5527 -0.2215
 1323TIP3    H128164   1.677   1.313   9.449  1.0093  0.5914 -0.7712
 1323TIP3    H228165   1.744   1.203   9.370 -0.8167 -1.6717  0.6821
 1324TIP3   OH228166   5.449   3.932   8.432  0.4889  0.2083  0.0829
 1324TIP3    H128167   5.510   3.969   8.368  1.1331  0.9668  1.0923
 1324TIP3    H228168   5.491   3.851   8.461 -0.9770 -1.4919 -2.2123
 1325TIP3   OH228169   4.215   2.682   7.386  0.3873  0.2694 -0.0456
 1325TIP3    H128170   4.226   2.646   7.474 -1.5923 -0.9277 -0.2094
 1325TIP3    H228171   4.137   2.637   7.351  0.6585  1.2622 -2.1232
 1326TIP3   OH228172   3.688   5.180   1.069 -0.4057 -0.2734  0.1724
 1326TIP3    H128173   3.620   5.181   1.137  0.4228 -1.2299  1.0556
 1326TIP3    H228174   3.691   5.088   1.041  0.3661 -0.1981 -0.0038
 1327TIP3   OH228175   0.919   4.075   0.944 -0.3660 -0.0131 -0.1037
 1327TIP3    H128176   0.849   4.079   0.880 -1.3418 -0.2080  0.9116
 1327TIP3    H228177   0.896   4.143   1.008 -0.3818 -0.9855  0.9581
 1328TIP3   OH228178   6.421   2.238   0.129 -0.1876 -0.0449  0.0463
 1328TIP3    H128179   6.467   2.313   0.092  0.9273 -0.3451  0.8066
 1328TIP3    H228180   6.486   2.191   0.180 -1.0325 -1.1714  0.1435
 1329TIP3   OH228181   4.906   5.549   7.994  0.3413 -0.0641 -0.1561
 1329TIP3    H128182   4.966   5.533   7.922  0.5647 -0.2536  0.0704
 1329TIP3    H228183   4.828   5.586   7.953  0.9508  1.0346 -0.3471
 1330TIP3   OH228184   3.940   0.594   9.467  0.1926 -0.0038  0.4339
 1330TIP3    H128185   4.028   0.626   9.450  0.1657  0.3406  0.9392
 1330TIP3    H228186   3.882   0.657   9.424  0.1304  0.7885  1.6302
 1331TIP3   OH228187   4.826   6.615   1.802 -0.1450 -0.0363  0.2809
 1331TIP3    H128188   4.915   6.643   1.827  0.5080 -1.5361 -0.2416
 1331TIP3    H228189   4.814   6.652   1.715  0.5834 -1.0507 -0.2732
 1332TIP3   OH228190   3.943   7.356   2.918  0.4330  0.4025  0.1469
 1332TIP3    H128191   3.907   7.302   2.847  0.6741  1.4664 -0.8200
 1332TIP3    H228192   4.020   7.306   2.948 -0.9703 -1.1813  1.2727
 1333TIP3   OH228193   0.324   5.849   9.744  0.3242 -0.1114 -0.2379
 1333TIP3    H128194   0.341   5.910   9.672  0.1431  0.5295  0.2515
 1333TIP3    H228195   0.229   5.846   9.751  0.1740 -2.4249 -1.9042
 1334TIP3   OH228196   4.178   5.797   7.552  0.1519  0.6267  0.6439
 1334TIP3    H128197   4.121   5.832   7.620  0.1336  0.2067  0.8492
 1334TIP3    H228198   4.238   5.739   7.598 -1.5400 -1.7877  0.0280
 1335TIP3   OH228199   1.660   6.830   6.450 -0.5931  0.0438 -0.7174
 1335TIP3    H128200   1.567   6.821   6.470 -0.5466 -0.4759 -0.7280
 1335TIP3    H228201   1.695   6.741   6.457 -0.1047  0.2307 -0.7466
 1336TIP3   OH228202   5.493   6.058   0.471  0.8205  0.8262 -0.0421
 1336TIP3    H128203   5.558   6.107   0.421  0.8099  0.4076 -0.4751
 1336TIP3    H228204   5.410   6.076   0.426  1.0718 -1.0577 -1.3629
 1337TIP3   OH228205   0.957   3.559   0.735  0.1182 -0.3898  0.0057
 1337TIP3    H128206   0.876   3.549   0.686  0.3528  0.6871 -0.6385
 1337TIP3    H228207   1.024   3.575   0.668  0.7065 -0.3946  0.5772
 1338TIP3   OH228208   1.374   7.233   9.086 -0.7038  0.5032  0.1984
 1338TIP3    H128209   1.453   7.274   9.050 -1.6118  0.7931 -1.5259
 1338TIP3    H228210   1.356   7.284   9.166  2.5925 -1.5474  2.5110
 1339TIP3   OH228211   2.492   4.500   2.631  0.3848 -0.2664 -0.2044
 1339TIP3    H128212   2.522   4.427   2.577 -0.5840  0.2799 -1.5466
 1339TIP3    H228213   2.572   4.539   2.666  1.0257 -0.8123 -1.0198
 1340TIP3   OH228214   2.921   4.499   8.036 -0.1787 -0.0697  0.2018
 1340TIP3    H128215   2.855   4.562   8.007 -0.9424 -0.7621  0.4008
 1340TIP3    H228216   2.884   4.414   8.012  1.4817 -0.4006 -1.3870
 1341TIP3   OH228217   3.248   3.971   9.287 -0.0963  0.2916 -0.3965
 1341TIP3    H128218   3.226   3.887   9.245  1.7075 -0.8783  0.8655
 1341TIP3    H228219   3.313   4.010   9.229 -1.3618  1.1470 -1.2896
 1342TIP3   OH228220   5.380   0.317   7.886 -0.8387  0.0829  0.1917
 1342TIP3    H128221   5.437   0.254   7.841 -1.2455 -2.1944  2.6023
 1342TIP3    H228222   5.439   0.371   7.937 -0.5929  0.6061 -0.6280
 1343TIP3   OH228223   4.368   0.715   1.588 -0.4156  0.0033  0.0139
 1343TIP3    H128224   4.291   0.679   1.632 -0.6320 -0.8211 -1.0065
 1343TIP3    H228225   4.415   0.639   1.556  1.4603  0.4330  1.5977
 1344TIP3   OH228226   2.720   4.317   1.138  0.2756 -0.3668 -0.1561
 1344TIP3    H128227   2.797   4.356   1.095  1.4171  0.1436  2.1469
 1344TIP3    H228228   2.756   4.273   1.215 -1.5544 -1.9538 -0.1366
 1345TIP3   OH228229   5.127   1.775   2.337  0.1170 -0.9405 -0.1774
 1345TIP3    H128230   5.129   1.832   2.413 -1.4501 -0.2776 -0.5817
 1345TIP3    H228231   5.183   1.701   2.360 -2.2965 -2.0828  2.7031
 1346TIP3   OH228232   1.948   6.264   8.839 -0.1031  0.8371 -0.6265
 1346TIP3    H128233   1.890   6.202   8.796 -1.2325  0.4193  1.3671
 1346TIP3    H228234   1.890   6.335   8.868  0.3122  0.4364  1.3582
 1347TIP3   OH228235   4.865   4.591   2.097 -0.0867  0.1594 -0.3595
 1347TIP3    H128236   4.822   4.572   2.014 -1.0623  0.1878  0.1290
 1347TIP3    H228237   4.845   4.682   2.115 -0.3747 -0.0065  0.1917
 1348TIP3   OH228238   3.014   6.441   0.143 -0.3234  0.0659  0.0188
 1348TIP3    H128239   3.080   6.379   0.174 -0.2846  0.3609  0.5352
 1348TIP3    H228240   3.024   6.518   0.199 -1.8075 -0.2828  0.8228
 1349TIP3   OH228241   6.835   3.139   2.223 -0.1127  0.5857  1.2140
 1349TIP3    H128242   6.855   3.197   2.296  0.8554 -0.6125  1.9289
 1349TIP3    H228243   6.740   3.133   2.222 -0.1547  0.9882  2.0713
 1350TIP3   OH228244   1.437   1.296   2.055 -0.2764 -0.0179 -0.1501
 1350TIP3    H128245   1.530   1.313   2.071  0.3209  0.4327 -3.4701
 1350TIP3    H228246   1.395   1.379   2.075 -0.0698 -0.3015  1.6462
 1351TIP3   OH228247   2.134   3.790   0.011  0.2800 -0.0644 -0.0836
 1351TIP3    H128248   2.075   3.740   0.068  0.1622  0.3477  0.1627
 1351TIP3    H228249   2.075   3.836  -0.048  0.3518  0.3884  0.1960
 1352TIP3   OH228250   5.307   3.853   8.664 -0.1738 -0.0677  0.9915
 1352TIP3    H128251   5.266   3.939   8.669  1.3685  0.8521 -0.9268
 1352TIP3    H228252   5.336   3.844   8.573  0.4296 -2.2830  1.3252
 1353TIP3   OH228253   0.700   4.955   0.397 -0.6922 -0.1359 -0.4680
 1353TIP3    H128254   0.759   4.992   0.331 -2.0414  1.4102 -0.8903
 1353TIP3    H228255   0.612   4.966   0.360 -1.3838 -0.6326  0.9259
 1354TIP3   OH228256   2.579   6.376   0.339 -0.1526  0.2943 -0.3073
 1354TIP3    H128257   2.641   6.357   0.269 -0.9824 -3.5163 -0.2196
 1354TIP3    H228258   2.634   6.404   0.412  1.2644 -0.7552 -0.9321
 1355TIP3   OH228259   4.632   2.640   0.479 -0.0868 -0.0906 -0.5080
 1355TIP3    H128260   4.636   2.562   0.534  0.4062 -0.2267 -0.7287
 1355TIP3    H228261   4.601   2.710   0.538 -0.6097 -0.4650 -0.3322
 1356TIP3   OH228262   4.939   0.507   7.913 -0.1440  0.1946  0.4764
 1356TIP3    H128263   4.873   0.443   7.939 -0.8066  0.5334 -0.3534
 1356TIP3    H228264   5.022   0.467   7.940 -0.2923 -2.1441 -2.0889
 1357TIP3   OH228265   6.735   3.229   1.015  0.1234 -0.0810  0.0817
 1357TIP3    H128266   6.644   3.223   1.044  0.5962  0.2981  1.7787
 1357TIP3    H228267   6.771   3.142   1.031  0.7075  0.4422  1.9578
 1358TIP3   OH228268   2.430   5.412   9.139 -0.1324  0.0132 -0.2042
 1358TIP3    H128269   2.446   5.381   9.050 -0.5406  1.0537 -0.6563
 1358TIP3    H228270   2.341   5.383   9.159  0.3265 -1.1218  0.2760
 1359TIP3   OH228271   0.907   5.740   9.569 -0.4665 -0.2706  0.2580
 1359TIP3    H128272   0.957   5.660   9.561 -1.1336 -0.5984 -0.7489
 1359TIP3    H228273   0.865   5.752   9.484 -0.0099  1.4026  0.2181
 1360TIP3   OH228274   2.049   6.025   1.371 -0.9235 -0.2721 -0.4069
 1360TIP3    H128275   2.091   5.940   1.383  0.8596  0.4334 -1.3147
 1360TIP3    H228276   1.968   6.005   1.323 -0.9670 -1.5344  0.1661
 1361TIP3   OH228277   0.187   0.014   7.940  0.6241 -0.1751  0.0974
 1361TIP3    H128278   0.100  -0.008   7.905  0.4657 -0.6902  0.7998
 1361TIP3    H228279   0.196   0.108   7.924  0.1881 -0.2323 -0.5210
 1362TIP3   OH228280   2.259   2.448   1.485  0.6608  0.2053 -0.2222
 1362TIP3    H128281   2.267   2.352   1.483 -3.0211 -0.2984 -2.6595
 1362TIP3    H228282   2.296   2.477   1.401 -0.3890  0.5503 -0.5891
 1363TIP3   OH228283   0.771   6.558   0.005  0.8046  0.5279  0.1405
 1363TIP3    H128284   0.849   6.612   0.022 -0.0244  1.6123  0.5883
 1363TIP3    H228285   0.761   6.506   0.085  1.3279  0.0427 -0.1013
 1364TIP3   OH228286   5.978   1.801   1.150  0.1438  0.0685 -0.1372
 1364TIP3    H128287   5.917   1.732   1.127  0.6602 -0.4241 -0.0412
 1364TIP3    H228288   6.034   1.763   1.217  0.9332  0.3187 -0.6420
 1365TIP3   OH228289   2.318   5.391   0.839  0.1089  0.0617  0.2232
 1365TIP3    H128290   2.392   5.414   0.897 -0.8708  2.8482  0.5207
 1365TIP3    H228291   2.246   5.373   0.899  0.6861 -3.8812 -0.0118
 1366TIP3   OH228292   6.042   0.942   9.122  0.6128  0.0495  0.4239
 1366TIP3    H128293   6.045   0.930   9.217  0.7192  0.9744  0.5463
 1366TIP3    H228294   6.132   0.925   9.093  0.8610  0.9373  0.6472
 1367TIP3   OH228295   6.536   2.309   9.544  0.4179  0.4920 -0.0692
 1367TIP3    H128296   6.588   2.238   9.506  0.1418 -0.1562  0.7526
 1367TIP3    H228297   6.567   2.316   9.634 -0.5452  0.4629  0.2690
 1368TIP3   OH228298   4.179   3.088   2.253 -0.5156  0.1601  0.3321
 1368TIP3    H128299   4.210   3.138   2.328 -1.6711 -0.1871  1.0871
 1368TIP3    H228300   4.192   3.145   2.178  1.4243  0.2051  0.6506
 1369TIP3   OH228301   5.018   1.709   8.063  0.2408 -0.2290  0.4131
 1369TIP3    H128302   5.016   1.641   7.996  1.9138 -0.3037  0.3960
 1369TIP3    H228303   4.961   1.676   8.132  0.0499 -1.0595 -0.1246
 1370TIP3   OH228304   5.013   4.215   1.752 -0.2907 -0.5145  0.2428
 1370TIP3    H128305   4.996   4.199   1.845  2.3382  2.3276  1.3958
 1370TIP3    H228306   5.082   4.153   1.730  1.3974  0.9102  1.2327
 1371TIP3   OH228307   1.121   4.549   7.823  0.4234  0.0916  0.4244
 1371TIP3    H128308   1.087   4.538   7.912  0.1181 -1.9712  0.1032
 1371TIP3    H228309   1.070   4.621   7.786 -0.5572 -0.0785  1.3946
 1372TIP3   OH228310   1.090   4.474   0.035  0.1287  0.1827  0.8042
 1372TIP3    H128311   1.122   4.558   0.068  1.1262 -0.0042  0.3356
 1372TIP3    H228312   1.169   4.424   0.017 -0.4300 -0.3222 -0.3072
 1373TIP3   OH228313   0.119   1.378   0.758 -0.3888 -0.7041 -0.0328
 1373TIP3    H128314   0.033   1.403   0.792 -0.1371 -1.1385  0.9637
 1373TIP3    H228315   0.154   1.459   0.721 -0.8768 -0.3249  0.3124
 1374TIP3   OH228316   5.674   4.210   1.661  0.1869 -0.6841 -0.8348
 1374TIP3    H128317   5.684   4.117   1.640 -0.5374 -0.6363 -1.4185
 1374TIP3    H228318   5.587   4.217   1.700  0.8710 -0.5038  0.7241
 1375TIP3   OH228319   5.603   2.957   8.479  0.0205  0.0707 -0.3914
 1375TIP3    H128320   5.661   3.009   8.423 -0.8543  0.8832 -0.5608
 1375TIP3    H228321   5.521   3.006   8.481 -0.4687 -0.7514  0.3429
 1376TIP3   OH228322   1.788   1.017   8.565 -0.1246 -0.6076 -0.2675
 1376TIP3    H128323   1.776   0.935   8.519 -0.7213 -0.3610 -0.5626
 1376TIP3    H228324   1.704   1.063   8.555 -0.6850 -1.0172  2.0020
 1377TIP3   OH228325   5.340   0.813   1.152  0.1329  0.0515  0.0922
 1377TIP3    H128326   5.265   0.764   1.184  0.4185 -0.5904 -0.1891
 1377TIP3    H228327   5.330   0.813   1.057 -0.0589  0.8700  0.1036
 1378TIP3   OH228328   6.599   0.973   0.190 -0.0536 -0.1443  0.0985
 1378TIP3    H128329   6.678   0.991   0.140 -0.2683  1.3825  0.2567
 1378TIP3    H228330   6.615   0.889   0.231  1.5698  0.2227  0.2775
 1379TIP3   OH228331   3.813   3.634   9.934 -0.1447  0.0928 -0.7670
 1379TIP3    H128332   3.776   3.710   9.977 -0.5692 -0.5433  0.0090
 1379TIP3    H228333   3.754   3.617   9.861 -1.0091 -0.5062  0.0628
 1380TIP3   OH228334   0.899   5.955   0.398  0.2321 -0.4751  0.5340
 1380TIP3    H128335   0.934   5.950   0.309  1.5377 -1.7254  1.0901
 1380TIP3    H228336   0.855   6.040   0.401 -1.0916 -1.0102 -1.7313
 1381TIP3   OH228337   1.404   5.248   0.038 -0.0605  0.5867 -0.8573
 1381TIP3    H128338   1.438   5.334   0.013  0.1753  0.7549 -0.0013
 1381TIP3    H228339   1.355   5.265   0.119  1.9629 -0.4412  0.6563
 1382TIP3   OH228340   3.236   0.113   1.016  0.0743  0.3657 -0.2065
 1382TIP3    H128341   3.234   0.022   0.986  0.2802  0.7658 -1.5219
 1382TIP3    H228342   3.299   0.156   0.957  1.0553  1.0674  1.2947
 1383TIP3   OH228343   3.046   1.698   9.838  0.4259  0.1266  0.2999
 1383TIP3    H128344   2.999   1.701   9.922 -1.5538  1.4981 -0.7867
 1383TIP3    H228345   2.981   1.726   9.773  1.5412 -2.0319 -1.8963
 1384TIP3   OH228346   6.677   6.357   7.773 -0.7533  0.3771  0.1045
 1384TIP3    H128347   6.694   6.368   7.680 -0.4964 -1.3882 -0.0971
 1384TIP3    H228348   6.711   6.437   7.814  0.9813  0.3093 -1.1112
 1385TIP3   OH228349   2.892   0.296   9.248  0.3425  0.1380 -0.0523
 1385TIP3    H128350   2.927   0.247   9.174  0.6640 -1.6258  1.2196
 1385TIP3    H228351   2.809   0.253   9.269 -0.3126  1.3416 -0.0803
 1386TIP3   OH228352   1.423   5.345   3.334 -0.1959 -0.6398  0.0007
 1386TIP3    H128353   1.449   5.253   3.325  0.5462 -0.2405 -3.1480
 1386TIP3    H228354   1.476   5.391   3.269 -1.9444  1.7290  0.1334
 1387TIP3   OH228355   2.592   5.450   0.880  0.1238 -0.4727 -0.2911
 1387TIP3    H128356   2.569   5.533   0.922  2.0565 -0.3103  0.5236
 1387TIP3    H228357   2.674   5.467   0.835  1.0224 -2.1326  0.6167
 1388TIP3   OH228358   0.383   6.231   0.860 -0.7916 -0.3804 -0.5818
 1388TIP3    H128359   0.414   6.190   0.941  0.2547 -1.4798 -1.4864
 1388TIP3    H228360   0.289   6.212   0.857 -0.4395 -2.3498 -0.7008
 1389TIP3   OH228361   5.746   4.965   9.371  0.0106  0.6143 -0.2952
 1389TIP3    H128362   5.818   5.023   9.396 -0.3143  1.1308 -0.5561
 1389TIP3    H228363   5.702   4.944   9.453 -0.4036  1.4493 -0.2966
 1390TIP3   OH228364   2.612   1.788   9.023 -0.4573 -0.3722  0.1721
 1390TIP3    H128365   2.670   1.728   9.071  0.1987 -0.1217 -0.3045
 1390TIP3    H228366   2.525   1.766   9.055 -0.3812 -2.3967 -0.8213
 1391TIP3   OH228367   6.781   4.272   9.942 -0.2182 -0.2306  0.5615
 1391TIP3    H128368   6.751   4.293   9.854 -1.6362 -0.5733  0.9282
 1391TIP3    H228369   6.742   4.186   9.961  1.5781 -1.0421  0.8464
 1392TIP3   OH228370   2.906   0.424   1.477 -0.0771  0.1331 -0.6126
 1392TIP3    H128371   2.940   0.335   1.472  0.4236  0.3264 -0.7620
 1392TIP3    H228372   2.822   0.420   1.431  0.4752 -0.0178 -1.6583
 1393TIP3   OH228373   0.178   2.672   9.732 -0.5523 -0.3945 -0.2852
 1393TIP3    H128374   0.148   2.663   9.641 -1.6382  0.9345 -0.0962
 1393TIP3    H228375   0.103   2.645   9.785 -0.9047  1.4216  0.2003
 1394TIP3   OH228376   4.041   3.953   7.793  0.1634  0.4283 -0.2835
 1394TIP3    H128377   4.058   4.000   7.712 -1.4399 -0.1463 -0.9913
 1394TIP3    H228378   3.992   4.015   7.847 -1.5000 -0.1998 -1.0146
 1395TIP3   OH228379   0.361   1.643   8.925  0.3027 -0.0413  0.1677
 1395TIP3    H128380   0.428   1.706   8.953  0.4392 -0.0163 -0.2101
 1395TIP3    H228381   0.337   1.672   8.837 -0.9739  0.5917  0.6867
 1396TIP3   OH228382   0.431   2.156   9.658 -0.0204 -0.1273 -0.1611
 1396TIP3    H128383   0.508   2.209   9.640  0.5821 -0.1790  1.9871
 1396TIP3    H228384   0.437   2.084   9.595 -0.9027  2.2188 -3.2260
 1397TIP3   OH228385   6.093   5.460   9.418 -0.3812 -0.7033  0.8453
 1397TIP3    H128386   6.095   5.556   9.424  0.0202 -0.4564 -1.7650
 1397TIP3    H228387   6.148   5.430   9.489  2.4122  1.2213 -0.3241
 1398TIP3   OH228388   3.736   0.760   0.490 -0.5865  0.7915  0.8537
 1398TIP3    H128389   3.816   0.709   0.478 -0.1635  1.4530  0.8269
 1398TIP3    H228390   3.742   0.792   0.580 -1.0076  0.5328  0.9777
 1399TIP3   OH228391   3.248   3.336   8.862  0.2389  0.2061  0.3364
 1399TIP3    H128392   3.268   3.264   8.803  0.0340  1.0123 -0.7661
 1399TIP3    H228393   3.305   3.408   8.833  1.1155  0.2207  2.0103
 1400TIP3   OH228394   3.042   2.303   0.560  0.5300 -0.1762  0.4510
 1400TIP3    H128395   3.094   2.303   0.640  0.5098  1.7435  0.5156
 1400TIP3    H228396   3.099   2.342   0.494  0.4172 -1.4070 -0.3852
 1401TIP3   OH228397   5.665   2.808   9.154  0.4479  0.0213  0.0211
 1401TIP3    H128398   5.666   2.903   9.165  1.7398  0.0061  0.2277
 1401TIP3    H228399   5.632   2.794   9.066 -2.0598  0.5359  0.7978
 1402TIP3   OH228400   4.184   1.408   7.689 -0.3174  0.2560  0.1102
 1402TIP3    H128401   4.137   1.481   7.647 -0.3795  0.2298  0.1333
 1402TIP3    H228402   4.276   1.429   7.679 -0.3034  1.7064  2.4840
 1403TIP3   OH228403   7.198   2.323   7.701  0.3361  0.6828 -0.4724
 1403TIP3    H128404   7.214   2.246   7.647  0.1747  0.1791  0.1879
 1403TIP3    H228405   7.162   2.388   7.640  0.5253  0.2622 -1.0431
 1404TIP3   OH228406   0.998   4.579   8.630  0.2820 -0.4409  0.8351
 1404TIP3    H128407   1.017   4.485   8.629 -3.9964 -1.5194 -0.4313
 1404TIP3    H228408   0.912   4.586   8.671 -0.7225  2.5972 -1.4387
 1405TIP3   OH228409   6.904   2.813   0.330  0.2863  0.3696 -0.4537
 1405TIP3    H128410   6.969   2.751   0.295 -1.4748 -2.4877  0.9664
 1405TIP3    H228411   6.823   2.791   0.284 -0.5884  1.0641  0.7199
 1406TIP3   OH228412   2.927   6.799   2.544  0.0953  0.4192 -0.7549
 1406TIP3    H128413   2.890   6.833   2.624  0.7747 -0.9401  0.1832
 1406TIP3    H228414   3.009   6.847   2.532  0.3562  0.1132 -0.2167
 1407TIP3   OH228415   6.720   3.365   9.422 -0.2999  0.0203 -0.8163
 1407TIP3    H128416   6.718   3.295   9.356 -0.4850 -0.3758 -0.3950
 1407TIP3    H228417   6.628   3.381   9.443 -0.2055 -0.5393  0.0609
 1408TIP3   OH228418   3.839   6.885   7.312 -0.2721  0.4229  0.2528
 1408TIP3    H128419   3.844   6.964   7.366  0.6630 -0.5084  1.5629
 1408TIP3    H228420   3.897   6.902   7.238  2.3810 -0.1431  2.0636
 1409TIP3   OH228421   7.250   5.175   2.430  0.4471 -0.2812  0.4838
 1409TIP3    H128422   7.334   5.186   2.475  0.0105 -1.2082  1.5806
 1409TIP3    H228423   7.194   5.133   2.495 -0.5142 -0.7542 -0.6223
 1410TIP3   OH228424   4.003   6.846   8.886 -0.1499 -0.0859  0.4857
 1410TIP3    H128425   4.083   6.896   8.898  0.3005  0.0708 -2.4100
 1410TIP3    H228426   3.970   6.874   8.801 -2.1126 -1.7481  0.6136
 1411TIP3   OH228427   2.064   5.651   8.700  0.2866  0.3851 -0.4607
 1411TIP3    H128428   2.047   5.564   8.736  0.4441  0.3113 -0.5652
 1411TIP3    H228429   2.121   5.635   8.626 -0.4286  0.4860 -1.0493
 1412TIP3   OH228430   2.207   0.876   0.455 -0.2412 -0.4946 -0.0737
 1412TIP3    H128431   2.275   0.813   0.478 -0.1994 -0.5634 -0.3817
 1412TIP3    H228432   2.244   0.927   0.383  0.6363  1.4258  1.6460
 1413TIP3   OH228433   7.082   6.134   2.234 -0.0121 -0.2406 -0.2430
 1413TIP3    H128434   7.084   6.159   2.142 -0.4220  0.9636  0.0575
 1413TIP3    H228435   7.167   6.165   2.268 -0.2739  0.2253 -0.0026
 1414TIP3   OH228436   4.287   2.089   8.676 -0.6907 -0.3851  0.1760
 1414TIP3    H128437   4.354   2.082   8.745 -1.5353 -2.7364  0.8543
 1414TIP3    H228438   4.262   1.999   8.659 -3.3068  0.3999 -0.4568
 1415TIP3   OH228439   4.385   6.169   7.488 -0.2608 -0.3376  0.0550
 1415TIP3    H128440   4.466   6.126   7.515  0.7304  0.9608 -0.7063
 1415TIP3    H228441   4.316   6.129   7.541  0.9504 -1.1242  1.0599
 1416TIP3   OH228442   7.358   6.112   9.471 -0.2203 -0.7111 -1.0085
 1416TIP3    H128443   7.397   6.194   9.439 -0.5645  0.5682  1.5964
 1416TIP3    H228444   7.404   6.094   9.552 -2.0644 -1.5463 -0.0909
 1417TIP3   OH228445   4.644   1.746   9.291 -0.6348  0.3471  0.1024
 1417TIP3    H128446   4.710   1.744   9.221  0.0891  0.9792  0.7501
 1417TIP3    H228447   4.687   1.792   9.363 -1.2134 -0.6869  1.1373
 1418TIP3   OH228448   1.156   6.351   2.325 -0.2825 -0.3003 -0.2832
 1418TIP3    H128449   1.183   6.275   2.377  0.0233  0.6546  0.9945
 1418TIP3    H228450   1.137   6.419   2.390 -0.5684  0.7180 -1.3991
 1419TIP3   OH228451   5.350   7.304   9.890 -0.2695  0.1632  0.7357
 1419TIP3    H128452   5.300   7.246   9.833 -0.9526  1.5144 -0.0939
 1419TIP3    H228453   5.441   7.289   9.867 -0.4603 -0.2437  0.2276
 1420TIP3   OH228454   7.119   3.765   0.978 -0.3229 -0.3543 -0.8934
 1420TIP3    H128455   7.210   3.760   0.948  0.2838  0.2406  0.7471
 1420TIP3    H228456   7.075   3.693   0.933  0.6567  0.1078 -2.6831
 1421TIP3   OH228457   2.788   1.097   7.880  0.2390  0.0928 -0.1597
 1421TIP3    H128458   2.696   1.082   7.861  0.0298  0.0899  0.8160
 1421TIP3    H228459   2.834   1.031   7.827 -0.4080 -0.8849  0.4693
 1422TIP3   OH228460   2.755   4.346   8.337  0.1366 -0.1881  0.4104
 1422TIP3    H128461   2.684   4.332   8.274  0.1325 -0.7913  0.5400
 1422TIP3    H228462   2.828   4.295   8.302  1.0488  1.6958 -0.5792
 1423TIP3   OH228463   1.776   5.804   9.716  0.3949 -0.4961  0.0592
 1423TIP3    H128464   1.848   5.800   9.652  0.5492 -0.2423  0.2154
 1423TIP3    H228465   1.815   5.845   9.793 -0.8484  3.2553 -1.1111
 1424TIP3   OH228466   0.666   2.566   7.631 -0.1377 -0.8074 -0.0483
 1424TIP3    H128467   0.722   2.622   7.577 -0.3612 -1.3737 -0.8935
 1424TIP3    H228468   0.623   2.508   7.568 -1.7527 -0.3215  0.5507
 1425TIP3   OH228469   1.306   6.177   2.607 -0.1692 -0.7534 -0.2229
 1425TIP3    H128470   1.400   6.169   2.590 -0.2397 -0.6818 -0.6693
 1425TIP3    H228471   1.284   6.100   2.659  0.2942 -0.3474  0.6007
 1426TIP3   OH228472   5.266   5.348   7.521  0.4692 -0.0505 -0.0743
 1426TIP3    H128473   5.253   5.386   7.434 -1.7540  0.5381  0.4426
 1426TIP3    H228474   5.185   5.299   7.538  1.0234 -0.4885  1.4927
 1427TIP3   OH228475   4.774   0.731   9.567  0.0118  0.3223  0.0470
 1427TIP3    H128476   4.782   0.639   9.591 -1.0184  0.0277 -0.6840
 1427TIP3    H228477   4.732   0.773   9.642 -5.1683 -0.9744 -1.6939
 1428TIP3   OH228478   4.081   1.328   7.416 -0.6735  0.8304  0.1103
 1428TIP3    H128479   3.992   1.297   7.432 -0.8183 -0.3274 -2.5058
 1428TIP3    H228480   4.130   1.249   7.394  0.3009  1.7758 -1.2748
 1429TIP3   OH228481   3.173   4.400   0.776  0.5420 -0.0984 -0.7073
 1429TIP3    H128482   3.242   4.338   0.749  0.5432 -1.5723  2.1799
 1429TIP3    H228483   3.095   4.345   0.787 -0.3064  1.0106 -1.0651
 1430TIP3   OH228484   2.410   4.488   6.822  0.0821  0.9712 -0.2803
 1430TIP3    H128485   2.493   4.480   6.775  0.1137  0.1330 -0.0962
 1430TIP3    H228486   2.429   4.456   6.910 -0.8428 -0.9164 -0.7232
 1431TIP3   OH228487   6.939   1.134   9.653 -0.2248  0.0085  0.3402
 1431TIP3    H128488   6.995   1.159   9.726 -1.6555  0.2721  1.3890
 1431TIP3    H228489   6.999   1.123   9.579  1.1608  0.4948  1.3579
 1432TIP3   OH228490   7.158   2.703   9.454 -0.1862  0.5075 -0.2117
 1432TIP3    H128491   7.071   2.680   9.487 -0.7036 -0.7808 -2.2700
 1432TIP3    H228492   7.192   2.621   9.418  2.1918  0.8387  1.1351
 1433TIP3   OH228493   3.616   5.044   1.935  0.1975  0.4027 -0.0258
 1433TIP3    H128494   3.676   5.083   1.998 -0.1191 -0.4118  0.7993
 1433TIP3    H228495   3.617   4.951   1.956 -0.7960  0.2810 -0.4735
 1434TIP3   OH228496   2.045   5.815   9.203  0.4045 -0.2525  0.4027
 1434TIP3    H128497   2.039   5.890   9.262 -0.9962  0.6576 -0.8338
 1434TIP3    H228498   1.954   5.786   9.191  0.5703 -0.1167 -1.6244
 1435TIP3   OH228499   0.783   3.064   2.760 -0.2093 -0.2290  0.4663
 1435TIP3    H128500   0.754   3.151   2.790 -0.7842 -0.3025  0.1231
 1435TIP3    H228501   0.734   3.003   2.814  1.2990 -0.3638  1.7794
 1436TIP3   OH228502   3.689   1.438   0.714  0.1678 -0.3876  0.7087
 1436TIP3    H128503   3.757   1.437   0.780 -0.6235  0.2454  1.5588
 1436TIP3    H228504   3.664   1.530   0.706  0.6416 -0.3684 -0.8960
 1437TIP3   OH228505   3.987   1.413   1.311 -0.3168  0.1951 -0.3923
 1437TIP3    H128506   3.957   1.460   1.388  0.7709 -0.5795  0.5364
 1437TIP3    H228507   4.079   1.395   1.327  0.1776  0.7723 -2.2748
 1438TIP3   OH228508   2.666   6.801   3.072  0.6730 -0.6860  0.4398
 1438TIP3    H128509   2.619   6.847   3.142  0.2065 -1.2935  0.5358
 1438TIP3    H228510   2.597   6.765   3.017  1.0264  0.6738 -0.9654
 1439TIP3   OH228511   5.924   2.668   1.358 -0.6715 -0.3410  0.5377
 1439TIP3    H128512   5.991   2.625   1.304  1.1765  0.6910  1.8830
 1439TIP3    H228513   5.903   2.748   1.310  0.9513  0.5648  1.2592
 1440TIP3   OH228514   0.016   6.183   8.910  0.0933 -0.1888  0.0032
 1440TIP3    H128515  -0.066   6.174   8.862 -0.7294 -0.6237  1.4234
 1440TIP3    H228516  -0.010   6.210   8.998  1.4192 -1.0154  0.6901
 1441TIP3   OH228517   3.758   5.449   1.677  0.3802 -0.2460 -0.3088
 1441TIP3    H128518   3.837   5.495   1.647  0.0772  0.7743  0.3717
 1441TIP3    H228519   3.787   5.361   1.697  1.2393 -0.0305 -0.5638
 1442TIP3   OH228520   5.170   3.373   7.670  0.0910  0.0524 -0.6089
 1442TIP3    H128521   5.192   3.456   7.711 -0.1353  0.0097 -0.3964
 1442TIP3    H228522   5.234   3.362   7.600 -0.2617  0.6962 -1.0359
 1443TIP3   OH228523   5.718   6.221   1.341 -0.0832  0.4365 -0.4946
 1443TIP3    H128524   5.635   6.200   1.383  0.8617 -0.0458  1.2403
 1443TIP3    H228525   5.722   6.317   1.345 -0.2883  0.4292 -0.0590
 1444TIP3   OH228526   0.916   3.066   9.814  0.4298 -0.5003  0.1951
 1444TIP3    H128527   0.976   3.028   9.877  0.6370 -0.0311  0.2813
 1444TIP3    H228528   0.968   3.079   9.735  0.4221 -0.1762  0.2413
 1445TIP3   OH228529   4.207   1.239   9.618 -0.5205 -0.4205 -0.0314
 1445TIP3    H128530   4.269   1.168   9.600  0.3176  0.2010  0.3703
 1445TIP3    H228531   4.219   1.301   9.546 -1.5133 -0.8376 -0.5808
 1446TIP3   OH228532   6.214   1.277   0.134  0.8307  0.3976  0.0485
 1446TIP3    H128533   6.250   1.215   0.198  0.4032 -0.6869 -0.7293
 1446TIP3    H228534   6.247   1.246   0.050  0.3336  1.0444 -0.3911
 1447TIP3   OH228535   3.191   0.386   1.947  0.0851  0.2739 -0.4602
 1447TIP3    H128536   3.176   0.467   1.995 -0.1635 -0.5172  0.8525
 1447TIP3    H228537   3.218   0.323   2.014 -0.1517 -0.8412 -1.3787
 1448TIP3   OH228538   0.257   3.426   1.356  0.0893  0.5170 -0.0598
 1448TIP3    H128539   0.303   3.413   1.439  0.4838  0.8927 -0.2166
 1448TIP3    H228540   0.310   3.379   1.292 -0.5971 -0.3727  0.0059
 1449TIP3   OH228541   0.115   0.680   9.396  0.5588 -0.7534 -0.5051
 1449TIP3    H128542   0.159   0.757   9.360  0.0194 -1.3044 -2.4234
 1449TIP3    H228543   0.041   0.665   9.338 -0.2790 -1.8027  0.7653
 1450TIP3   OH228544   7.099   4.717   0.984 -0.1179  0.3113  0.1495
 1450TIP3    H128545   7.060   4.667   1.055  0.9806 -0.1621  0.4385
 1450TIP3    H228546   7.069   4.673   0.904 -0.5013  0.2034  0.3543
 1451TIP3   OH228547   1.459   0.270   0.869 -0.0828 -0.0717 -0.2196
 1451TIP3    H128548   1.467   0.245   0.961 -0.5594 -0.5353 -0.2989
 1451TIP3    H228549   1.385   0.218   0.836  0.3865 -0.2720 -0.9834
 1452TIP3   OH228550   2.789   1.444   1.628 -0.1088  0.3431 -0.5552
 1452TIP3    H128551   2.859   1.378   1.630 -0.7677 -0.3636  0.7614
 1452TIP3    H228552   2.834   1.525   1.604  0.9379 -0.3395 -1.0094
 1453TIP3   OH228553   2.464   4.591   9.889  0.1341 -0.1667  0.0273
 1453TIP3    H128554   2.441   4.518   9.946 -0.5966 -0.2712 -0.3884
 1453TIP3    H228555   2.406   4.582   9.813 -0.2550  1.0663  0.1479
 1454TIP3   OH228556   0.019   6.637   1.265 -0.0400 -0.1760 -0.1434
 1454TIP3    H128557   0.065   6.649   1.348 -0.7042  1.8664 -0.0203
 1454TIP3    H228558  -0.073   6.636   1.288 -0.3563  2.4704 -0.9687
 1455TIP3   OH228559   5.155   1.949   9.733  0.5177 -0.3297  0.2511
 1455TIP3    H128560   5.199   2.034   9.723 -1.2220  0.7622  1.3338
 1455TIP3    H228561   5.226   1.887   9.750  1.8602  0.8423 -0.8045
 1456TIP3   OH228562   1.721   2.097   1.831 -0.1462  0.3755  0.3170
 1456TIP3    H128563   1.698   2.153   1.756 -3.0382  0.5074  1.1845
 1456TIP3    H228564   1.735   2.011   1.793  1.5320  1.0595 -0.7056
 1457TIP3   OH228565   2.590   4.764   1.500 -0.0380 -0.1081  0.0032
 1457TIP3    H128566   2.554   4.801   1.419 -0.3641  0.0286  0.2074
 1457TIP3    H228567   2.607   4.672   1.479 -0.1198 -0.0729 -0.2237
 1458TIP3   OH228568   4.093   2.872   2.469  0.2463  0.1758 -0.1743
 1458TIP3    H128569   4.139   2.918   2.399 -0.6154 -0.1901 -0.9981
 1458TIP3    H228570   4.062   2.942   2.526 -0.9134  0.6388 -1.3318
 1459TIP3   OH228571   5.643   3.689   9.675  0.0488  0.0030  0.1388
 1459TIP3    H128572   5.668   3.767   9.625  1.7513 -0.0519  0.8283
 1459TIP3    H228573   5.629   3.722   9.764  2.4084 -0.6544  0.8210
 1460TIP3   OH228574   5.802   2.781   9.546  0.3365 -0.4980 -0.0798
 1460TIP3    H128575   5.847   2.854   9.503  0.6764 -0.3468  0.5308
 1460TIP3    H228576   5.808   2.799   9.639 -0.5843 -0.7209  0.0387
 1461TIP3   OH228577   7.412   1.385   7.730  0.0098  0.3604  0.1212
 1461TIP3    H128578   7.507   1.371   7.731  0.2571  1.0825 -2.8211
 1461TIP3    H228579   7.377   1.309   7.684 -0.5113  1.2877 -1.0722
 1462TIP3   OH228580   4.739   5.683   7.824 -0.2114  0.2928 -0.3519
 1462TIP3    H128581   4.773   5.671   7.736 -0.3161 -0.8782 -0.2449
 1462TIP3    H228582   4.665   5.742   7.813 -0.7282 -0.4834 -1.1749
 1463TIP3   OH228583   3.743   5.166   1.712  0.5559 -0.6145 -0.9553
 1463TIP3    H128584   3.779   5.083   1.679 -1.3808 -0.5422 -3.5697
 1463TIP3    H228585   3.717   5.146   1.802 -0.1810 -3.0254 -1.6216
 1464TIP3   OH228586   3.597   5.376   6.900 -0.5115  0.0453  0.3066
 1464TIP3    H128587   3.567   5.290   6.929  0.1422  0.2993  1.8489
 1464TIP3    H228588   3.518   5.419   6.866 -1.4132 -0.2107  1.9658
 1465TIP3   OH228589   1.035   0.209   2.531  0.4730 -0.3075  1.0996
 1465TIP3    H128590   0.981   0.232   2.606  0.2841  0.1725  0.8196
 1465TIP3    H228591   1.111   0.267   2.536  0.8218 -0.7793  1.3288
 1466TIP3   OH228592   3.532   4.976   0.159  0.9425  0.1937 -0.5237
 1466TIP3    H128593   3.537   4.900   0.101  1.4279 -0.5769  0.4976
 1466TIP3    H228594   3.623   5.002   0.172  0.7924  0.7889 -0.6672
 1467TIP3   OH228595   2.354   4.466   8.012 -0.1171  0.6698 -0.3587
 1467TIP3    H128596   2.283   4.530   8.012  0.6037  1.5088 -1.1269
 1467TIP3    H228597   2.386   4.466   8.102  0.2101  1.8115 -0.4518
 1468TIP3   OH228598   1.140   3.196   1.870 -0.3699  0.0366 -0.1010
 1468TIP3    H128599   1.196   3.161   1.801 -2.2677 -0.3696 -1.5331
 1468TIP3    H228600   1.128   3.122   1.930  0.4728  0.0729  0.1158
 1469TIP3   OH228601   7.313   5.499   8.475  0.1024 -0.6444  0.0027
 1469TIP3    H128602   7.327   5.591   8.496  1.6928 -0.5632 -1.2187
 1469TIP3    H228603   7.400   5.465   8.456 -0.4464 -2.4322  0.4564
 1470TIP3   OH228604   5.704   1.669   1.475 -0.5659 -0.1642  0.0154
 1470TIP3    H128605   5.790   1.671   1.516  0.1484  0.5731 -1.4476
 1470TIP3    H228606   5.718   1.623   1.392 -1.8490 -1.0887  0.2746
 1471TIP3   OH228607   5.894   5.377   7.525  0.5092  0.1906  0.3061
 1471TIP3    H128608   5.885   5.348   7.435 -1.6974 -1.2886  0.9237
 1471TIP3    H228609   5.945   5.309   7.568  0.0572 -0.0216  0.5257
 1472TIP3   OH228610   0.098   5.721   9.619 -0.3842  0.2990 -0.4179
 1472TIP3    H128611   0.188   5.690   9.610 -0.2660  0.3967  0.3940
 1472TIP3    H228612   0.050   5.646   9.653 -0.2244  0.7917  0.9417
 1473TIP3   OH228613   0.150   3.289   0.987  0.0999  0.0412 -0.3099
 1473TIP3    H128614   0.222   3.277   0.925  0.5826 -0.1746  0.2751
 1473TIP3    H228615   0.194   3.295   1.072 -0.6423 -1.1898  0.1880
 1474TIP3   OH228616   3.454   2.897   2.156 -0.0606 -0.4720 -0.1544
 1474TIP3    H128617   3.444   2.954   2.232 -5.1403 -1.5278  0.3363
 1474TIP3    H228618   3.499   2.819   2.190  0.0778  0.1308  1.0954
 1475TIP3   OH228619   0.251   6.732   8.467 -0.0968 -0.4417  0.1342
 1475TIP3    H128620   0.181   6.785   8.505 -0.0369  0.5800 -1.1210
 1475TIP3    H228621   0.261   6.765   8.377  0.7668 -1.7806 -0.2968
 1476TIP3   OH228622   2.811   4.739   2.200  0.1150 -0.1837  0.2986
 1476TIP3    H128623   2.747   4.801   2.165 -0.8304  0.4076  2.8814
 1476TIP3    H228624   2.838   4.688   2.123 -1.9693  0.8337 -1.2368
 1477TIP3   OH228625   0.290   2.069   7.820  0.5750 -0.1851 -0.1619
 1477TIP3    H128626   0.246   2.054   7.903  0.4953  1.2178  0.0731
 1477TIP3    H228627   0.288   1.984   7.775  1.1704 -1.1214  1.5095
 1478TIP3   OH228628   3.488   4.616   8.860  0.4463 -0.5363  0.2330
 1478TIP3    H128629   3.448   4.538   8.821 -0.0433 -0.1991  0.0579
 1478TIP3    H228630   3.548   4.648   8.792 -1.9901  1.3019 -1.1723
 1479TIP3   OH228631   2.583   2.845   7.762 -0.0279  0.1800 -0.2828
 1479TIP3    H128632   2.628   2.858   7.678 -0.7819  0.3817 -0.6636
 1479TIP3    H228633   2.632   2.774   7.804  1.7527  1.5811  0.1176
 1480TIP3   OH228634   3.425   3.901   1.215  0.4377 -0.1060  0.1420
 1480TIP3    H128635   3.431   3.910   1.310  1.6082  0.1142  0.0673
 1480TIP3    H228636   3.391   3.813   1.201  1.7839 -0.7631  0.7714
 1481TIP3   OH228637   6.356   3.391   1.651  0.0950  0.1652 -0.3431
 1481TIP3    H128638   6.414   3.422   1.721 -0.4377 -0.4748  0.4074
 1481TIP3    H228639   6.293   3.334   1.696  2.0248 -3.4937 -1.7972
 1482TIP3   OH228640   4.837   0.971   2.617 -0.0683  0.2495  0.1599
 1482TIP3    H128641   4.877   0.926   2.691  0.2751 -1.2920 -0.9021
 1482TIP3    H228642   4.910   1.008   2.568 -0.1764  0.0684 -0.1441
 1483TIP3   OH228643   1.243   0.100   0.874  0.4576 -0.8438 -0.0809
 1483TIP3    H128644   1.210   0.013   0.899 -0.3524 -0.2623  0.9717
 1483TIP3    H228645   1.248   0.097   0.778 -1.4531 -1.4074 -0.2058
 1484TIP3   OH228646   2.279   0.492   1.720 -0.2642 -0.1280  0.5542
 1484TIP3    H128647   2.278   0.405   1.760 -3.7609 -0.0377  0.9696
 1484TIP3    H228648   2.250   0.550   1.790 -1.2240  0.8422 -0.6085
 1485TIP3   OH228649   5.062   1.200   0.671 -0.2808 -0.4014 -0.0974
 1485TIP3    H128650   4.969   1.205   0.691 -0.2379 -0.7012  0.1730
 1485TIP3    H228651   5.066   1.163   0.583 -0.4740  1.0967 -0.7739
 1486TIP3   OH228652   6.905   6.135   9.298  0.0494 -0.0906  0.5426
 1486TIP3    H128653   6.823   6.087   9.302  0.3724 -0.5945  1.6118
 1486TIP3    H228654   6.960   6.094   9.366  1.0195  0.5199  0.1496
 1487TIP3   OH228655   2.024   5.317   9.582  0.2686  0.1380  0.2828
 1487TIP3    H128656   1.991   5.337   9.494 -0.6741 -0.9074  0.3756
 1487TIP3    H228657   2.116   5.296   9.568 -0.2926 -1.8545 -0.7800
 1488TIP3   OH228658   2.889   1.519   8.748  0.3358 -0.3971  0.3676
 1488TIP3    H128659   2.963   1.576   8.724  0.1688  0.0618  0.9144
 1488TIP3    H228660   2.819   1.580   8.769 -1.1057 -0.7906 -2.7238
 1489TIP3   OH228661   0.068   6.771   7.937 -0.4543 -0.1950 -0.8628
 1489TIP3    H128662   0.142   6.779   7.877  0.1922  2.1022  0.1436
 1489TIP3    H228663  -0.009   6.768   7.880  0.3136 -1.4610 -1.8805
 1490TIP3   OH228664   4.990   1.507   0.827 -0.0038 -0.3944  0.0619
 1490TIP3    H128665   4.944   1.587   0.851 -0.4306 -1.4727  3.2072
 1490TIP3    H228666   5.077   1.518   0.864  0.5299 -0.6919 -1.0584
 1491TIP3   OH228667   7.456   1.766   0.381 -0.0869 -0.3765 -0.1821
 1491TIP3    H128668   7.407   1.847   0.373 -0.0997 -0.5025 -1.4384
 1491TIP3    H228669   7.504   1.776   0.463 -0.9128  0.4410  0.2249
 1492TIP3   OH228670   1.887   5.570   0.448 -0.2599 -0.3107 -0.1219
 1492TIP3    H128671   1.806   5.591   0.402  0.6523  0.1880 -1.5624
 1492TIP3    H228672   1.940   5.521   0.385  0.5336 -0.7305  0.8235
 1493TIP3   OH228673   2.587   5.090   9.600 -0.1373  0.2652  0.0896
 1493TIP3    H128674   2.552   5.123   9.683  0.9489 -0.1911  0.7488
 1493TIP3    H228675   2.662   5.146   9.581 -0.7902  0.8092 -0.9606
 1494TIP3   OH228676   1.807   4.357   1.146 -0.0338 -0.4888  0.3326
 1494TIP3    H128677   1.732   4.308   1.111 -0.9901  1.3782 -0.4221
 1494TIP3    H228678   1.882   4.301   1.130 -1.0605 -1.7096 -0.4759
 1495TIP3   OH228679   3.935   2.780   8.758  0.4391 -0.4625 -0.0266
 1495TIP3    H128680   3.906   2.849   8.697  0.8593 -2.3900 -2.5773
 1495TIP3    H228681   3.984   2.827   8.825  0.5236  1.7773 -1.5393
 1496TIP3   OH228682   3.892   2.010   9.562  0.2619 -0.5666  0.0366
 1496TIP3    H128683   3.943   1.938   9.526 -0.2877  0.1045 -2.2390
 1496TIP3    H228684   3.801   1.988   9.543  0.0068  0.1925  0.3194
 1497TIP3   OH228685   3.662   1.399   8.046 -0.3845 -0.2478 -0.0881
 1497TIP3    H128686   3.691   1.345   8.120  2.2723  0.2396 -0.6727
 1497TIP3    H228687   3.662   1.339   7.971  0.8775  0.1141 -0.4063
 1498TIP3   OH228688   1.763   2.110   6.662  0.0802  0.6145 -0.1358
 1498TIP3    H128689   1.713   2.048   6.609  0.7343  0.8812 -1.0988
 1498TIP3    H228690   1.839   2.131   6.609  0.6240  1.1125  0.8086
 1499TIP3   OH228691   4.774   3.830   8.015  0.0361  0.1444  0.9640
 1499TIP3    H128692   4.860   3.826   7.975  0.5115  0.5237  1.9201
 1499TIP3    H228693   4.778   3.768   8.088 -0.4719  0.2312  1.0717
 1500TIP3   OH228694   5.860   4.026   9.918 -0.1403 -0.4917 -0.1497
 1500TIP3    H128695   5.777   4.027   9.871  0.3426  0.0430 -1.0026
 1500TIP3    H228696   5.887   4.117   9.922 -0.1756 -0.5173  1.1942
 1501TIP3   OH228697   0.749   4.131   0.735  0.2664 -0.7551  0.2211
 1501TIP3    H128698   0.745   4.109   0.642  2.7051  0.0175 -0.1510
 1501TIP3    H228699   0.771   4.224   0.736  2.1578 -1.1624  1.4980
 1502TIP3   OH228700   3.219   0.668   0.558 -0.5677  0.5896  0.1653
 1502TIP3    H128701   3.269   0.729   0.613  0.5580  0.2126 -0.4042
 1502TIP3    H228702   3.285   0.626   0.503 -1.5339  0.0869 -0.6371
 1503TIP3   OH228703   0.961   5.707   0.304 -0.2817  1.0084  0.4475
 1503TIP3    H128704   0.894   5.767   0.337 -0.4630  0.5022  1.0370
 1503TIP3    H228705   0.912   5.634   0.267 -0.0628  0.4889  1.1610
 1504TIP3   OH228706   0.687   5.465   8.149 -0.8963  0.2222  0.1949
 1504TIP3    H128707   0.618   5.467   8.082 -0.7177 -1.4283 -0.0878
 1504TIP3    H228708   0.753   5.407   8.113  1.4514  2.9621 -0.2346
 1505TIP3   OH228709   4.430   0.575   2.099 -0.4273  0.2840 -0.4252
 1505TIP3    H128710   4.407   0.594   2.190 -1.1149  1.4483 -0.8080
 1505TIP3    H228711   4.473   0.490   2.101  0.0135  0.5225  1.0504
 1506TIP3   OH228712   0.596   6.822   0.546  0.5098 -0.4988  0.3476
 1506TIP3    H128713   0.626   6.864   0.627  0.6204 -0.7738  0.4506
 1506TIP3    H228714   0.628   6.732   0.553 -2.0699 -1.4374  1.4339
 1507TIP3   OH228715   3.283   1.215   9.960  0.4389  0.1443 -0.4692
 1507TIP3    H128716   3.296   1.276  10.032 -1.7658 -0.2507  0.3574
 1507TIP3    H228717   3.193   1.230   9.932  0.5071 -1.2988 -1.6120
 1508TIP3   OH228718   3.506   4.397   9.101  0.6451 -0.0092 -0.1794
 1508TIP3    H128719   3.517   4.450   9.023 -2.1070 -0.5656 -1.0382
 1508TIP3    H228720   3.418   4.417   9.132  0.9421 -1.2801  1.6500
 1509TIP3   OH228721   0.787   4.072   9.910  0.2387  0.4045 -0.1255
 1509TIP3    H128722   0.731   4.119   9.848 -0.1133  0.2993  0.1113
 1509TIP3    H228723   0.734   4.062   9.989  0.3894 -0.1910 -0.0894
 1510TIP3   OH228724   3.433   3.147   7.463 -0.0208 -0.1200  0.7522
 1510TIP3    H128725   3.373   3.211   7.424 -1.3505 -1.2234  0.9254
 1510TIP3    H228726   3.503   3.138   7.398  0.3040  1.6274  0.8039
 1511TIP3   OH228727   2.231   2.223   0.136  0.2078  0.0875 -0.1194
 1511TIP3    H128728   2.219   2.169   0.058 -0.0971  0.5018 -0.3623
 1511TIP3    H228729   2.242   2.160   0.208  1.1176 -0.3003 -0.5820
 1512TIP3   OH228730   3.050   0.407   1.715  0.2035  0.4656 -0.0735
 1512TIP3    H128731   3.097   0.409   1.798 -1.2192  2.4132  0.7556
 1512TIP3    H228732   2.986   0.337   1.726  1.2207 -0.5406 -0.2902
 1513TIP3   OH228733   1.393   6.385   8.996  0.6379  0.3630  0.2880
 1513TIP3    H128734   1.429   6.439   8.925 -0.2760 -0.2561 -0.6856
 1513TIP3    H228735   1.309   6.425   9.016  0.4121 -0.0938  0.2649
 1514TIP3   OH228736   0.162   5.370   7.369  0.0238  0.0329 -0.2435
 1514TIP3    H128737   0.181   5.415   7.452 -0.9007 -0.2334  0.1181
 1514TIP3    H228738   0.067   5.364   7.366  0.1075 -1.5133 -0.5047
 1515TIP3   OH228739   1.587   2.125   0.156 -0.0630 -0.0016 -0.0541
 1515TIP3    H128740   1.647   2.072   0.103  1.1208  0.7926  0.4568
 1515TIP3    H228741   1.524   2.160   0.094  0.3861 -0.3247 -0.6995
 1516TIP3   OH228742   2.798   0.023   1.339  0.1382  0.1274  0.4842
 1516TIP3    H128743   2.822   0.044   1.249 -1.4250  2.0763  0.4566
 1516TIP3    H228744   2.873   0.050   1.391  0.5120  0.2524 -0.1096
 1517TIP3   OH228745   0.333   6.292   9.937 -0.0742  0.0195  0.4467
 1517TIP3    H128746   0.350   6.249   9.853 -2.5473 -0.1386 -0.0346
 1517TIP3    H228747   0.367   6.381   9.925  0.2862 -0.2197 -0.4460
 1518TIP3   OH228748   4.576   0.788   0.329  0.2827 -0.3715 -0.0692
 1518TIP3    H128749   4.647   0.817   0.272  1.0951 -0.9465  0.6413
 1518TIP3    H228750   4.506   0.852   0.314  0.2521 -0.8286 -2.1398
 1519TIP3   OH228751   6.476   2.433   0.953  0.8116 -0.3772  0.0045
 1519TIP3    H128752   6.508   2.519   0.980 -1.3209 -0.1217  2.0568
 1519TIP3    H228753   6.437   2.447   0.867  2.0294  0.2666 -0.4747
 1520TIP3   OH228754   1.405   3.411   7.724  0.1342  0.3084 -0.2793
 1520TIP3    H128755   1.362   3.329   7.746  2.0730 -0.6270  0.2427
 1520TIP3    H228756   1.432   3.400   7.632 -0.4804  0.7927 -0.5287
 1521TIP3   OH228757   1.274   5.466   0.677 -0.1869  0.2633 -0.5130
 1521TIP3    H128758   1.321   5.548   0.660 -0.2147  0.5339  0.5990
 1521TIP3    H228759   1.214   5.457   0.603  1.0753  0.2963 -1.5767
 1522TIP3   OH228760   1.341   4.947   6.609 -0.0885 -0.2322 -0.2457
 1522TIP3    H128761   1.354   4.852   6.607 -0.7475 -0.3113 -1.1305
 1522TIP3    H228762   1.315   4.970   6.520 -2.1749  0.4515  0.4809
 1523TIP3   OH228763   3.002   0.297   0.701 -0.4718  0.6214  0.3321
 1523TIP3    H128764   3.065   0.362   0.733  0.7926  0.6402 -1.9905
 1523TIP3    H228765   3.039   0.266   0.619 -1.8022 -1.9793  0.6230
 1524TIP3   OH228766   1.737   2.830   2.677 -0.2627  0.0389  0.6182
 1524TIP3    H128767   1.791   2.852   2.752  0.1698  0.6494  0.1410
 1524TIP3    H228768   1.682   2.907   2.664 -0.3290 -0.0579  0.3057
 1525TIP3   OH228769   6.301   1.116   7.857  0.2318 -0.0126  0.1846
 1525TIP3    H128770   6.222   1.064   7.839 -0.2333  0.7321  0.0469
 1525TIP3    H228771   6.289   1.196   7.806  0.8073  0.3584  0.6279
 1526TIP3   OH228772   1.256   6.027   0.370 -0.5021 -0.2452 -0.1395
 1526TIP3    H128773   1.230   5.949   0.321  0.9711 -1.0537  0.2929
 1526TIP3    H228774   1.338   6.002   0.413 -1.4947  0.5427  2.4256
 1527TIP3   OH228775   2.117   3.768   8.369  0.3998 -0.1409  0.2020
 1527TIP3    H128776   2.027   3.764   8.403  0.2136  1.2463 -0.0578
 1527TIP3    H228777   2.129   3.685   8.322 -0.7149 -0.3789  0.3110
 1528TIP3   OH228778   5.097   1.853   0.044  0.2478  0.0139  0.3683
 1528TIP3    H128779   5.025   1.876  -0.015  1.6105  1.4086 -0.8385
 1528TIP3    H228780   5.064   1.876   0.131 -0.8416  0.4274 -0.1280
 1529TIP3   OH228781   4.046   5.950   7.755 -0.5988 -0.0134 -0.5169
 1529TIP3    H128782   4.012   5.958   7.844  1.2615 -0.4530  0.2740
 1529TIP3    H228783   3.986   6.003   7.702 -1.1227  1.1525  1.1506
 1530TIP3   OH228784   3.476   2.842   0.857  0.0457  0.7271  0.0676
 1530TIP3    H128785   3.473   2.767   0.916  0.2789 -0.3986 -1.2847
 1530TIP3    H228786   3.410   2.903   0.891 -0.4424 -0.2759  0.9600
 1531TIP3   OH228787   0.260   1.377   9.416  0.1152 -0.1298  0.1843
 1531TIP3    H128788   0.292   1.344   9.332 -1.9072  0.3292 -0.8229
 1531TIP3    H228789   0.274   1.472   9.412 -0.1324 -0.0884  0.3090
 1532TIP3   OH228790   1.739   2.996   9.752  0.2377  0.7233  0.0667
 1532TIP3    H128791   1.699   3.010   9.838  0.0446  1.4210 -0.1257
 1532TIP3    H228792   1.816   3.053   9.752  1.1967 -0.5349  0.3959
 1533TIP3   OH228793   1.640   3.002   8.782  0.0918  0.0143  0.0604
 1533TIP3    H128794   1.569   3.022   8.842 -0.7936  1.2883 -1.3346
 1533TIP3    H228795   1.685   3.085   8.769 -0.1060 -0.0750 -1.4551
 1534TIP3   OH228796   1.424   6.339   0.990 -0.0534 -0.0386  0.3659
 1534TIP3    H128797   1.469   6.255   1.001 -1.1769 -0.5029  1.5688
 1534TIP3    H228798   1.363   6.323   0.918 -0.2271 -0.2363  0.5552
 1535TIP3   OH228799   2.086   3.705   0.274  0.2088  0.5376 -0.3485
 1535TIP3    H128800   2.158   3.677   0.330  1.6376 -0.7024 -2.6780
 1535TIP3    H228801   2.072   3.797   0.296  1.8689  0.5481  0.8038
 1536TIP3   OH228802   1.734   2.343   7.119 -0.7611 -0.1695  0.7394
 1536TIP3    H128803   1.714   2.420   7.173 -0.4480  0.3663  0.0921
 1536TIP3    H228804   1.801   2.297   7.168  1.2109  1.5135 -0.2296
 1537TIP3   OH228805   6.003   5.102   9.810  0.3091 -0.5533  0.3112
 1537TIP3    H128806   5.988   5.077   9.901 -0.7670  2.0367  0.9250
 1537TIP3    H228807   6.025   5.195   9.814  0.8316 -0.5106 -2.0418
 1538TIP3   OH228808   3.670   0.164   1.249 -0.4696 -0.0609  0.0308
 1538TIP3    H128809   3.659   0.248   1.295 -0.2870 -0.1579  0.2495
 1538TIP3    H228810   3.584   0.122   1.257 -0.2009 -0.4470  1.0187
 1539TIP3   OH228811   1.916   0.672   7.655  0.1516 -0.3249 -0.0433
 1539TIP3    H128812   1.882   0.596   7.702 -1.1704  0.1040 -0.2688
 1539TIP3    H228813   1.933   0.640   7.567  0.1815 -0.5058  0.0278
 1540TIP3   OH228814   6.397   4.292   0.327 -0.2576  0.1094 -0.1425
 1540TIP3    H128815   6.344   4.219   0.361  0.8208 -0.3415  0.6220
 1540TIP3    H228816   6.431   4.260   0.243 -0.0578 -0.1381  0.0325
 1541TIP3   OH228817   0.464   0.162   6.789 -0.8115 -0.4829  0.3580
 1541TIP3    H128818   0.506   0.227   6.845 -0.0137 -1.1350  0.5375
 1541TIP3    H228819   0.519   0.159   6.710 -2.3618  1.0050 -0.8428
 1542TIP3   OH228820   4.294   2.573   8.407 -0.0736  0.4357 -0.1177
 1542TIP3    H128821   4.283   2.660   8.446  2.3864  0.0752  1.5463
 1542TIP3    H228822   4.281   2.512   8.479 -0.6456 -0.5581 -1.0287
 1543TIP3   OH228823   6.806   6.399   8.919  0.1288 -0.4350 -0.2847
 1543TIP3    H128824   6.891   6.435   8.893  1.0297 -0.9191  1.8088
 1543TIP3    H228825   6.808   6.308   8.889  0.3793 -0.4712 -0.1579
 1544TIP3   OH228826   5.986   5.805   1.457  0.3967 -0.3145  0.2219
 1544TIP3    H128827   5.917   5.854   1.412 -0.2299 -1.1851  0.2135
 1544TIP3    H228828   5.994   5.724   1.407  0.6967 -0.6650  0.8358
 1545TIP3   OH228829   4.268   3.641   7.854  0.3147 -0.2251  0.0482
 1545TIP3    H128830   4.251   3.627   7.761  1.3163  2.3152 -0.6161
 1545TIP3    H228831   4.348   3.694   7.855  0.3880 -0.2962  2.3727
 1546TIP3   OH228832   4.277   3.885   1.306  0.0284  0.0633  0.2676
 1546TIP3    H128833   4.342   3.943   1.346 -0.1046 -0.2447  0.9389
 1546TIP3    H228834   4.323   3.803   1.293 -1.1867 -1.5417  4.4473
 1547TIP3   OH228835   5.711   4.965   1.441 -0.3693  0.3308 -0.3283
 1547TIP3    H128836   5.661   4.903   1.493  3.5052 -2.1689  0.7849
 1547TIP3    H228837   5.736   5.034   1.503  1.4049 -0.8976  0.3966
 1548TIP3   OH228838   6.453   6.836   1.205  0.3997  0.3080  0.0761
 1548TIP3    H128839   6.496   6.821   1.121  0.8806  0.5063  0.2807
 1548TIP3    H228840   6.359   6.840   1.184  0.2362 -2.4164 -0.0769
 1549TIP3   OH228841   2.044   6.636   2.130  0.1700  0.0084 -0.0013
 1549TIP3    H128842   2.120   6.686   2.161  0.8994 -1.4912  0.7007
 1549TIP3    H228843   2.077   6.586   2.056 -0.0431 -0.8814  0.4948
 1550TIP3   OH228844   3.674   2.863   0.256 -0.0097 -0.7410 -0.1211
 1550TIP3    H128845   3.766   2.855   0.231  0.4224 -0.1969  1.1753
 1550TIP3    H228846   3.643   2.772   0.262  0.0902 -0.8951 -1.7274
 1551TIP3   OH228847   5.435   0.643   9.549 -0.3031  0.1872  0.0948
 1551TIP3    H128848   5.450   0.581   9.478 -0.2881  0.6217 -0.2859
 1551TIP3    H228849   5.340   0.659   9.547 -0.8728 -2.1834  2.1855
 1552TIP3   OH228850   5.317   1.879   0.339  0.2020  0.5734  0.0911
 1552TIP3    H128851   5.329   1.963   0.294 -2.3244  0.1079 -1.6506
 1552TIP3    H228852   5.333   1.813   0.272 -1.8858 -0.1921  0.2619
 1553TIP3   OH228853   5.708   0.083   8.046  0.4721 -0.0831 -0.1045
 1553TIP3    H128854   5.614   0.079   8.066 -0.1736  0.5219 -2.6599
 1553TIP3    H228855   5.733  -0.009   8.034  0.1155 -0.2270  0.2140
 1554TIP3   OH228856   6.516   6.445   8.892 -0.1328 -0.0195  0.3947
 1554TIP3    H128857   6.477   6.359   8.882  0.4896 -0.3765  0.9502
 1554TIP3    H228858   6.611   6.430   8.885  0.0539  0.4358  1.6463
 1555TIP3   OH228859   5.249   5.495   2.161  0.2415 -0.3858  0.0589
 1555TIP3    H128860   5.165   5.540   2.155  0.6380  0.5960  1.2997
 1555TIP3    H228861   5.227   5.402   2.160 -0.9220 -0.1405  0.8692
 1556TIP3   OH228862   5.222   3.511   1.343 -0.0068  0.0366 -0.0209
 1556TIP3    H128863   5.220   3.459   1.424  1.1206 -0.0868 -0.0444
 1556TIP3    H228864   5.206   3.448   1.273 -3.1660  0.4787  0.1750
 1557TIP3   OH228865   1.287   4.327   7.239  0.2946  0.3617  0.1536
 1557TIP3    H128866   1.221   4.396   7.243 -0.3084 -0.1712 -0.5151
 1557TIP3    H228867   1.347   4.356   7.171  0.3992  0.5306  0.3147
 1558TIP3   OH228868   6.769   3.393   1.650  0.5203 -0.2608 -0.0380
 1558TIP3    H128869   6.785   3.300   1.634  0.2483 -0.2702 -0.2496
 1558TIP3    H228870   6.852   3.435   1.625  0.2655 -0.3237 -1.0443
 1559TIP3   OH228871   5.182   2.667   8.604 -0.5328 -0.0151  0.0267
 1559TIP3    H128872   5.144   2.715   8.678 -0.1243  0.0193  0.2156
 1559TIP3    H228873   5.203   2.581   8.639  0.6999  0.3603  0.2622
 1560TIP3   OH228874   7.242   5.322   1.252  0.3606  0.2397  0.4433
 1560TIP3    H128875   7.288   5.245   1.284 -0.1986  0.2810  1.3520
 1560TIP3    H228876   7.250   5.316   1.156 -1.3847 -2.0036  0.3734
 1561TIP3   OH228877   2.448   3.287   0.136  0.3356  0.3689  0.2778
 1561TIP3    H128878   2.418   3.233   0.063  0.1288  1.9218 -0.8398
 1561TIP3    H228879   2.513   3.233   0.181  2.9419  0.5058 -2.9703
 1562TIP3   OH228880   7.256   6.816   8.037 -0.7019  0.0828  0.4333
 1562TIP3    H128881   7.299   6.734   8.012 -0.5740  0.7220 -1.6452
 1562TIP3    H228882   7.298   6.842   8.118  1.7667 -0.1229 -0.7009
 1563TIP3   OH228883   2.425   5.552   3.104 -0.1944 -0.1702 -0.3064
 1563TIP3    H128884   2.359   5.537   3.036 -1.5223  1.0993  0.6344
 1563TIP3    H228885   2.376   5.587   3.178  1.4899  0.4247  0.5905
 1564TIP3   OH228886   5.087   4.437   1.602 -0.0036  0.4077  0.3810
 1564TIP3    H128887   5.078   4.370   1.669  0.9267  2.6882  2.9378
 1564TIP3    H228888   5.004   4.435   1.554 -0.5914 -1.4627  1.4151
 1565TIP3   OH228889   2.092   1.506   2.510 -0.1873 -1.0858  0.3554
 1565TIP3    H128890   2.038   1.578   2.477  0.2855 -0.3706  1.0740
 1565TIP3    H228891   2.049   1.479   2.591  1.3624  0.6597  1.8925
 1566TIP3   OH228892   6.115   6.260   9.690 -0.0792 -0.0871  0.1573
 1566TIP3    H128893   6.169   6.248   9.612  0.7301  1.0248  0.5219
 1566TIP3    H228894   6.146   6.193   9.752  0.7975  0.4442  0.3084
 1567TIP3   OH228895   2.722   1.476   0.248 -0.2123 -0.3523 -0.1943
 1567TIP3    H128896   2.727   1.498   0.155  0.4401 -0.5471 -0.2080
 1567TIP3    H228897   2.679   1.391   0.250 -0.3502 -0.2866 -0.3055
 1568TIP3   OH228898   3.359   6.749   0.585 -0.2121  0.1487  0.3119
 1568TIP3    H128899   3.425   6.680   0.593  0.4107  0.5594 -1.0902
 1568TIP3    H228900   3.292   6.725   0.650  1.1942 -0.3729  1.6218
 1569TIP3   OH228901   4.951   2.928   2.223 -0.1344 -0.3289 -0.2019
 1569TIP3    H128902   4.940   2.835   2.205  0.5334 -0.5455  0.4486
 1569TIP3    H228903   4.887   2.972   2.166  0.7341 -1.0610 -1.7791
 1570TIP3   OH228904   4.221   2.002   9.424  0.1940 -0.1404 -0.3814
 1570TIP3    H128905   4.310   1.981   9.453  0.6541 -0.3032 -1.8373
 1570TIP3    H228906   4.204   2.089   9.461  1.1977  0.1614 -0.6025
 1571TIP3   OH228907   7.153   1.131   9.461  0.0511  0.1437 -0.0661
 1571TIP3    H128908   7.125   1.218   9.432 -0.8315 -0.7565 -2.1066
 1571TIP3    H228909   7.243   1.144   9.491  1.0286  1.3128 -3.1156
 1572TIP3   OH228910   1.943   2.175   6.469 -0.5029  0.3947  0.0196
 1572TIP3    H128911   2.010   2.126   6.516  0.2698 -2.2566 -3.4380
 1572TIP3    H228912   1.975   2.265   6.468  2.7177 -0.6486 -0.8867
 1573TIP3   OH228913   2.414   5.519   6.496  0.3708 -0.6158  0.4660
 1573TIP3    H128914   2.400   5.499   6.588  0.9945 -0.1657  0.6594
 1573TIP3    H228915   2.327   5.540   6.462  0.0145 -1.5723  0.7545
 1574TIP3   OH228916   4.227   6.221   8.372  0.2405 -0.1931 -0.5838
 1574TIP3    H128917   4.177   6.298   8.397 -1.6775 -1.8487  1.0908
 1574TIP3    H228918   4.294   6.253   8.312 -0.8361  2.6370 -0.3874
 1575TIP3   OH228919   2.595   4.162   7.787  0.3130 -0.0379 -0.4253
 1575TIP3    H128920   2.683   4.187   7.817 -0.0440 -0.4025  0.9765
 1575TIP3    H228921   2.572   4.086   7.840 -0.3770 -0.7051 -1.6346
 1576TIP3   OH228922   5.940   5.322   7.990  0.4888  0.1270 -0.0375
 1576TIP3    H128923   5.960   5.390   8.055  0.0529  0.8201 -0.6065
 1576TIP3    H228924   5.958   5.364   7.906 -2.7665  0.6984 -0.6153
 1577TIP3   OH228925   4.777   6.352   2.314  1.1656  1.1447  0.5875
 1577TIP3    H128926   4.815   6.284   2.369  1.8717  1.0967  0.0499
 1577TIP3    H228927   4.820   6.342   2.229 -0.3684  0.8041 -0.1832
 1578TIP3   OH228928   2.631   0.164   1.101  0.1313 -0.0536  0.7202
 1578TIP3    H128929   2.688   0.241   1.115 -1.4330  1.4922 -0.9590
 1578TIP3    H228930   2.604   0.139   1.190  1.2757  0.8551  1.3612
 1579TIP3   OH228931   5.749   5.639   0.570 -0.2989 -0.2771 -0.0211
 1579TIP3    H128932   5.689   5.689   0.515 -0.1687 -0.8022 -0.6501
 1579TIP3    H228933   5.796   5.582   0.509  1.8266  1.0725  0.2543
 1580TIP3   OH228934   3.500   0.802   0.354  0.1613  0.0419  0.1838
 1580TIP3    H128935   3.583   0.786   0.398 -0.3191  0.1359  1.1549
 1580TIP3    H228936   3.472   0.888   0.385 -0.8118 -0.4453  0.7189
 1581TIP3   OH228937   1.127   1.673   7.778 -0.0431 -0.0097  0.0134
 1581TIP3    H128938   1.173   1.653   7.859 -2.3035 -0.1462  1.3515
 1581TIP3    H228939   1.074   1.595   7.760  1.1106 -0.3565 -2.1553
 1582TIP3   OH228940   3.435   2.929   7.122  0.4016  0.2192 -0.3208
 1582TIP3    H128941   3.502   2.963   7.181  0.6288 -2.3698  1.0554
 1582TIP3    H228942   3.483   2.876   7.059 -0.2512 -1.8682  0.8302
 1583TIP3   OH228943   1.001   3.938   6.865 -0.3607 -0.6160 -0.1156
 1583TIP3    H128944   1.039   4.022   6.890 -0.9024 -0.5125  0.3755
 1583TIP3    H228945   0.909   3.958   6.846 -0.5761 -1.1572  0.3330
 1584TIP3   OH228946   4.078   4.256   2.065  0.0025 -0.6205 -0.1760
 1584TIP3    H128947   4.143   4.324   2.084  0.2828 -1.0601  0.4661
 1584TIP3    H228948   4.008   4.303   2.019 -0.8155  0.5806  2.1325
 1585TIP3   OH228949   0.643   1.854   8.810 -0.7167  0.4275  0.0092
 1585TIP3    H128950   0.736   1.843   8.828 -0.9443  0.9324  1.6194
 1585TIP3    H228951   0.616   1.769   8.774 -0.0399 -0.4104  1.3879
 1586TIP3   OH228952   6.150   5.265   9.143 -0.3179 -0.2563 -0.1155
 1586TIP3    H128953   6.119   5.349   9.177  0.1101  0.0725 -0.5302
 1586TIP3    H228954   6.083   5.239   9.080 -0.1197  0.1043 -0.4804
 1587TIP3   OH228955   2.061   7.176   0.726 -0.2727  0.7670  0.0542
 1587TIP3    H128956   2.144   7.130   0.729  0.5110  1.9093 -1.9887
 1587TIP3    H228957   2.080   7.263   0.763 -0.4894  1.0787 -0.5426
 1588TIP3   OH228958   2.373   1.539   9.973 -0.3378 -0.5859 -0.2007
 1588TIP3    H128959   2.319   1.617   9.988 -1.2470 -1.6662  3.0655
 1588TIP3    H228960   2.462   1.573   9.965 -0.8295  0.8643  0.1732
 1589TIP3   OH228961   2.936   0.558   1.005 -0.2428  0.1640 -0.5537
 1589TIP3    H128962   3.021   0.553   1.048 -1.2674 -1.5894  1.4131
 1589TIP3    H228963   2.903   0.645   1.028  0.3229  0.2378  0.0216
 1590TIP3   OH228964   0.055   5.844   1.261 -0.3057  0.4028  0.0037
 1590TIP3    H128965   0.007   5.926   1.251 -0.4156  0.3286 -0.0753
 1590TIP3    H228966   0.132   5.868   1.314 -1.5388  0.0831  2.0244
 1591TIP3   OH228967   5.402   3.774   0.989  0.7666 -0.4000 -0.2445
 1591TIP3    H128968   5.313   3.808   0.978  0.3943 -1.0297  0.6632
 1591TIP3    H228969   5.415   3.772   1.084  2.1194  0.5818 -0.3789
 1592TIP3   OH228970   0.334   3.935   0.367  0.0157 -0.3663  0.1095
 1592TIP3    H128971   0.396   3.951   0.438 -0.2180 -3.4324  1.1313
 1592TIP3    H228972   0.267   4.003   0.378  1.8864  1.5527  0.4086
 1593TIP3   OH228973   0.845   1.179   0.836 -0.2083  0.5451 -0.4170
 1593TIP3    H128974   0.875   1.157   0.747 -0.7343 -0.6247 -0.3278
 1593TIP3    H228975   0.844   1.095   0.882  1.0343  1.2586  1.0232
 1594TIP3   OH228976   6.065   6.619   1.126  0.4860 -0.2765 -0.1855
 1594TIP3    H128977   6.022   6.636   1.043  1.5468 -3.0138 -1.4027
 1594TIP3    H228978   6.007   6.559   1.172  0.5060  0.2307  0.5251
 1595TIP3   OH228979   3.062   7.281   9.861 -0.8743  0.6648 -0.5420
 1595TIP3    H128980   3.027   7.198   9.831  0.8511 -0.8751  1.4213
 1595TIP3    H228981   2.993   7.318   9.916 -0.7667 -0.6736  0.5342
 1596TIP3   OH228982   3.265   1.431   7.328 -0.0416 -0.8761  0.3030
 1596TIP3    H128983   3.294   1.348   7.366  1.1921 -1.1648 -1.1416
 1596TIP3    H228984   3.185   1.409   7.281 -0.5065 -0.9315  1.1137
 1597TIP3   OH228985   2.741   5.193   0.774  0.3704  0.4784  0.5544
 1597TIP3    H128986   2.653   5.215   0.743  0.5177  0.4052  0.0714
 1597TIP3    H228987   2.727   5.131   0.845  0.0374  0.4028  0.4253
 1598TIP3   OH228988   5.658   4.663   9.296 -0.1968 -0.1011  0.3898
 1598TIP3    H128989   5.667   4.758   9.305 -0.5576  0.0204 -0.4536
 1598TIP3    H228990   5.653   4.648   9.202 -0.9898 -0.8779  0.5437
 1599TIP3   OH228991   4.873   2.335   0.712 -0.1879 -0.9415 -0.5172
 1599TIP3    H128992   4.823   2.337   0.631 -0.8047 -0.9128 -0.1371
 1599TIP3    H228993   4.809   2.320   0.780  0.0557  0.8635  0.1756
 1600TIP3   OH228994   4.079   5.592   1.133 -0.3145 -0.0205  0.2589
 1600TIP3    H128995   4.156   5.624   1.179 -0.5227 -0.7090  1.1006
 1600TIP3    H228996   4.007   5.645   1.166 -0.6670 -1.3121  1.6848
 1601TIP3   OH228997   3.769   4.643   1.709 -0.0501  0.2088 -0.0579
 1601TIP3    H128998   3.743   4.553   1.730 -1.2752 -0.0686 -2.4267
 1601TIP3    H228999   3.770   4.646   1.613  2.8185  1.9736 -0.0818
 1602TIP3   OH229000   0.865   3.554   9.612 -0.5935 -0.0735 -0.3394
 1602TIP3    H129001   0.791   3.607   9.639  0.9759  0.8479  2.5577
 1602TIP3    H229002   0.867   3.482   9.675  0.0646 -0.9609 -1.3385
 1603TIP3   OH229003   0.035   7.209   1.074 -0.1482 -0.3553  0.1453
 1603TIP3    H129004   0.068   7.152   1.005 -1.1768 -0.2787 -0.4247
 1603TIP3    H229005   0.030   7.153   1.152 -0.5738 -0.8825 -0.2571
 1604TIP3   OH229006   2.260   5.521   0.597 -0.5671 -0.0411 -0.2346
 1604TIP3    H129007   2.276   5.493   0.687 -0.0433  0.1365 -0.2689
 1604TIP3    H229008   2.238   5.440   0.550  0.1638 -0.2951 -0.1620
 1605TIP3   OH229009   1.037   1.582   1.410 -0.2030  0.3497  0.5739
 1605TIP3    H129010   1.010   1.572   1.501  0.8394 -0.1590  0.8448
 1605TIP3    H229011   0.957   1.610   1.364 -1.7369 -2.8572  0.9904
 1606TIP3   OH229012   1.857   2.916   8.075  0.1725  0.1282 -0.2095
 1606TIP3    H129013   1.818   2.829   8.081 -0.2494  0.3920  1.1745
 1606TIP3    H229014   1.925   2.916   8.142  0.4433  0.7289 -0.4828
 1607TIP3   OH229015   4.592   2.478   9.004 -0.0280  0.3352 -0.7235
 1607TIP3    H129016   4.537   2.555   8.986 -1.3101 -0.3037  0.3346
 1607TIP3    H229017   4.664   2.513   9.058 -1.1199  0.6709  0.5852
 1608TIP3   OH229018   3.198   5.721   1.033  0.0972  0.1648 -0.6523
 1608TIP3    H129019   3.208   5.647   0.974 -0.4047 -1.4627  1.2225
 1608TIP3    H229020   3.287   5.751   1.050  0.3543 -0.5362 -0.7593
 1609TIP3   OH229021   4.468   0.385   9.778 -0.1613  0.1537 -0.2564
 1609TIP3    H129022   4.424   0.464   9.745  1.9779  0.9710 -1.3065
 1609TIP3    H229023   4.471   0.326   9.702 -0.6750 -0.4860  0.2048
 1610TIP3   OH229024   2.399   5.894   1.728 -0.3417 -0.2780  0.0936
 1610TIP3    H129025   2.315   5.938   1.739 -0.0521 -0.1547  2.4388
 1610TIP3    H229026   2.381   5.820   1.671 -2.1741 -0.5368  0.9426
 1611TIP3   OH229027   5.159   0.184   0.996  0.0280  0.1192  0.1304
 1611TIP3    H129028   5.079   0.229   0.969  0.0400 -0.3288 -0.6862
 1611TIP3    H229029   5.208   0.171   0.915  0.9115  0.3384  0.6158
 1612TIP3   OH229030   7.071   5.425   1.674  0.5499  0.1097 -0.4022
 1612TIP3    H129031   7.116   5.356   1.723 -1.5664 -2.2332 -1.5064
 1612TIP3    H229032   7.037   5.484   1.742  2.4581  0.1721  0.5763
 1613TIP3   OH229033   7.276   6.186   8.704  0.0220  0.3116 -0.0832
 1613TIP3    H129034   7.236   6.230   8.629  0.1129  0.5363 -0.0013
 1613TIP3    H229035   7.254   6.093   8.692 -0.7324  0.4558  0.0826
 1614TIP3   OH229036   6.941   2.702   1.063  0.3726  0.0427 -0.1652
 1614TIP3    H129037   7.034   2.681   1.050  0.5591  0.3868  0.6043
 1614TIP3    H229038   6.895   2.638   1.008  1.0452 -0.3864 -0.2444
 1615TIP3   OH229039   3.270   5.925   3.076 -0.1827 -0.1006  0.1702
 1615TIP3    H129040   3.356   5.948   3.040 -0.2419 -1.7074 -1.1287
 1615TIP3    H229041   3.288   5.902   3.168  0.9661 -1.3236 -0.3283
 1616TIP3   OH229042   5.996   4.563   1.893 -0.1133  0.1558 -0.0527
 1616TIP3    H129043   5.909   4.527   1.910  0.5265 -1.7411 -0.6183
 1616TIP3    H229044   6.016   4.536   1.803  1.5958 -0.5655  0.5194
 1617TIP3   OH229045   3.128   6.449   9.391  0.2227  0.2104  0.1373
 1617TIP3    H129046   3.058   6.468   9.454 -0.2332 -0.9766  0.0225
 1617TIP3    H229047   3.206   6.490   9.429 -0.8062  3.0120 -0.5480
 1618TIP3   OH229048   0.364   6.360   7.338  0.1514 -0.2547 -0.1876
 1618TIP3    H129049   0.358   6.275   7.381 -0.7737 -0.4963 -0.7535
 1618TIP3    H229050   0.359   6.341   7.245 -0.4307  0.4260 -0.3149
 1619TIP3   OH229051   3.343   1.341   0.247 -0.0168 -0.2763  0.0671
 1619TIP3    H129052   3.331   1.342   0.342 -1.0584 -0.3742 -0.0466
 1619TIP3    H229053   3.416   1.281   0.232  0.9251  0.6414  0.8727
 1620TIP3   OH229054   1.547   4.915   2.180 -0.1375  0.6773 -0.3255
 1620TIP3    H129055   1.493   4.888   2.105  0.1037  0.0847 -0.2876
 1620TIP3    H229056   1.598   4.990   2.148  0.8366 -0.3065 -1.1197
 1621TIP3   OH229057   5.821   6.847   9.878 -0.5205 -0.1912  0.4270
 1621TIP3    H129058   5.892   6.862   9.815 -0.1552 -0.5894  0.7375
 1621TIP3    H229059   5.805   6.933   9.916  0.2750 -0.2195  0.8524
 1622TIP3   OH229060   6.167   0.717   7.471  0.0710 -0.3392  0.3093
 1622TIP3    H129061   6.137   0.807   7.462  0.4824 -0.1370  0.8733
 1622TIP3    H229062   6.248   0.724   7.522  0.1485 -1.0173  0.2852
 1623TIP3   OH229063   4.412   5.011   1.332  0.6371 -0.4923  0.1919
 1623TIP3    H129064   4.411   4.956   1.253  2.0505 -1.2259  0.6335
 1623TIP3    H229065   4.353   4.967   1.393 -1.7189  0.9208 -0.9158
 1624TIP3   OH229066   0.295   6.068   7.406  0.5547 -0.0713 -0.1230
 1624TIP3    H129067   0.229   6.080   7.337  1.3865  1.5080 -0.7053
 1624TIP3    H229068   0.283   5.978   7.436 -1.7165  0.1142 -0.3472
 1625TIP3   OH229069   0.399   0.024   8.962 -0.2456  0.0734 -0.0401
 1625TIP3    H129070   0.308   0.017   8.933 -0.4220 -1.0549  0.7107
 1625TIP3    H229071   0.434  -0.065   8.952  0.9528  0.6121 -0.8559
 1626TIP3   OH229072   4.115   6.742   7.270  0.1101  0.0652 -0.3082
 1626TIP3    H129073   4.113   6.754   7.175  1.3936 -0.4116 -0.4060
 1626TIP3    H229074   4.144   6.652   7.283  0.4093  0.2746  0.5443
 1627TIP3   OH229075   0.673   1.560   7.753  0.3477 -0.5526 -0.2434
 1627TIP3    H129076   0.585   1.537   7.782 -0.3734  0.1188 -1.8017
 1627TIP3    H229077   0.684   1.515   7.669  1.3156 -0.2683 -0.2858
 1628TIP3   OH229078   3.221   4.901   2.333  0.0318 -0.7984 -0.4221
 1628TIP3    H129079   3.189   4.836   2.397 -0.0847 -0.4853 -0.1614
 1628TIP3    H229080   3.298   4.860   2.294 -0.1907 -1.2050 -0.4407
 1629TIP3   OH229081   6.014   0.694   2.376 -0.0386  0.7233  0.6890
 1629TIP3    H129082   5.924   0.712   2.349 -0.4406  2.5547  2.9461
 1629TIP3    H229083   6.005   0.633   2.450  0.8215 -1.3372 -0.7862
 1630TIP3   OH229084   5.351   4.121   1.312  0.1440 -0.6116  0.0359
 1630TIP3    H129085   5.342   4.202   1.363  0.8514 -0.5540  0.0804
 1630TIP3    H229086   5.281   4.065   1.344  1.0306 -0.8683  1.6249
 1631TIP3   OH229087   1.162   1.399   1.809 -0.1669 -0.3661 -0.0111
 1631TIP3    H129088   1.247   1.384   1.767 -0.1006  0.2364 -0.1089
 1631TIP3    H229089   1.183   1.411   1.902 -0.2844 -1.4379  0.1594
 1632TIP3   OH229090   0.562   1.550   2.708  0.4776 -0.2590 -0.0040
 1632TIP3    H129091   0.494   1.483   2.697  0.4003 -0.4519  1.4942
 1632TIP3    H229092   0.516   1.626   2.744  0.9164 -0.1118  0.2518
 1633TIP3   OH229093   3.081   1.864   8.826 -0.0291 -0.0055  0.4633
 1633TIP3    H129094   3.152   1.805   8.800 -0.4428  0.0282 -0.7983
 1633TIP3    H229095   3.071   1.849   8.920  0.6451 -1.1167  0.3774
 1634TIP3   OH229096   0.587   2.800   3.297  0.5913  0.3348  0.0875
 1634TIP3    H129097   0.582   2.767   3.208  2.0919 -1.9127  0.7498
 1634TIP3    H229098   0.506   2.769   3.338  0.4784  0.2944 -0.1637
 1635TIP3   OH229099   2.813   4.636   2.477 -0.5872  0.2355  0.3194
 1635TIP3    H129100   2.843   4.559   2.429 -0.4395  0.2732  0.3514
 1635TIP3    H229101   2.787   4.698   2.409 -1.9599 -0.3348  0.3005
 1636TIP3   OH229102   0.238   6.768   7.725  0.2351 -0.0581 -0.1068
 1636TIP3    H129103   0.331   6.785   7.736  0.0696  0.2111  1.0094
 1636TIP3    H229104   0.230   6.731   7.637  1.6006 -1.6353  0.3885
 1637TIP3   OH229105   1.606   4.681   9.004 -0.5188  0.1967 -0.2930
 1637TIP3    H129106   1.635   4.619   8.937 -1.0558  0.8898 -1.1769
 1637TIP3    H229107   1.643   4.765   8.977 -0.9125  0.5241  0.1694
 1638TIP3   OH229108   6.658   6.263   8.581 -0.0868 -0.5041 -0.3348
 1638TIP3    H129109   6.641   6.357   8.575  0.1020 -0.4849 -0.6222
 1638TIP3    H229110   6.572   6.223   8.590 -0.1245 -0.2601  0.4511
 1639TIP3   OH229111   1.543   3.046   1.561  0.1735  0.4090 -0.1257
 1639TIP3    H129112   1.526   3.064   1.469  0.5379  0.3040 -0.2153
 1639TIP3    H229113   1.631   3.008   1.562 -0.7594 -1.9304 -0.0137
 1640TIP3   OH229114   1.900   0.188   0.420 -0.1749  0.2409  0.4436
 1640TIP3    H129115   1.909   0.104   0.465 -1.1987 -0.3812 -0.4607
 1640TIP3    H229116   1.862   0.246   0.485 -1.6033 -0.6322  0.4240
 1641TIP3   OH229117   0.365   5.557   1.020  0.0399  0.0101 -0.1055
 1641TIP3    H129118   0.271   5.549   1.004 -0.1821  0.5407  0.8819
 1641TIP3    H229119   0.397   5.611   0.948 -0.0927 -1.5589 -1.4141
 1642TIP3   OH229120   5.816   4.408   9.273 -0.4546 -0.1379 -0.0060
 1642TIP3    H129121   5.824   4.331   9.329  0.3048 -1.6107 -2.0116
 1642TIP3    H229122   5.874   4.473   9.312  0.6403 -1.3808  0.4999
 1643TIP3   OH229123   2.920   1.986   7.447  0.3424  0.0093  0.6340
 1643TIP3    H129124   2.850   2.025   7.498  1.3306  2.4334  0.2866
 1643TIP3    H229125   2.887   1.986   7.357  1.1032  2.0996  0.3159
 1644TIP3   OH229126   1.269   7.342   1.187 -0.1448  0.0299  0.0025
 1644TIP3    H129127   1.312   7.348   1.102 -0.3561  0.4063 -0.0784
 1644TIP3    H229128   1.272   7.249   1.209  0.0952 -0.0389 -0.3200
 1645TIP3   OH229129   6.227   5.491   8.763  0.6218 -0.2853 -0.0577
 1645TIP3    H129130   6.134   5.488   8.789  0.5471  1.8042  0.0834
 1645TIP3    H229131   6.225   5.484   8.667  0.2125  0.7020 -0.1392
 1646TIP3   OH229132   0.818   5.604   7.482  0.2423  0.3829  0.3789
 1646TIP3    H129133   0.741   5.594   7.539  0.6034 -0.3728  0.7537
 1646TIP3    H229134   0.860   5.518   7.484  0.1432  0.2698 -1.2126
 1647TIP3   OH229135   1.146   1.820   1.501  0.0942 -0.3351  0.6906
 1647TIP3    H129136   1.188   1.875   1.566 -1.0410  1.3802  0.0512
 1647TIP3    H229137   1.175   1.731   1.521  1.9984  0.4807  1.7585
 1648TIP3   OH229138   4.811   6.862   0.862  0.3162  0.2012  0.3095
 1648TIP3    H129139   4.851   6.893   0.781 -1.6057  2.1335  0.0076
 1648TIP3    H229140   4.868   6.894   0.931  0.6893  0.6619 -0.2003
 1649TIP3   OH229141   1.278   5.014   2.266  0.1405  0.2827  0.2179
 1649TIP3    H129142   1.247   4.977   2.348 -1.1718 -0.9037 -0.7773
 1649TIP3    H229143   1.357   5.063   2.290  0.3204 -0.8210  2.0126
 1650TIP3   OH229144   6.685   3.384   9.894 -0.5416 -0.0478  0.4493
 1650TIP3    H129145   6.732   3.413   9.972 -0.6903  0.3141  0.4064
 1650TIP3    H229146   6.729   3.302   9.868  0.3119  0.4738  0.1897
 1651TIP3   OH229147   2.405   3.295   2.073 -0.0116  0.0634  0.1688
 1651TIP3    H129148   2.388   3.335   1.988 -0.2219  0.9469  0.6201
 1651TIP3    H229149   2.489   3.331   2.100  1.5112 -2.3552 -0.8986
 1652TIP3   OH229150   4.737   5.789   0.067  0.3930 -0.5882 -0.5720
 1652TIP3    H129151   4.708   5.745   0.147  1.6784 -1.6964 -0.6699
 1652TIP3    H229152   4.790   5.723   0.022  3.4452  1.3824 -0.1415
 1653TIP3   OH229153   3.687   4.716   0.937 -0.2733 -0.0806 -1.0961
 1653TIP3    H129154   3.715   4.659   0.865  1.4538 -0.0078 -0.5172
 1653TIP3    H229155   3.608   4.674   0.971  1.0448 -2.3095 -0.5482
 1654TIP3   OH229156   1.487   4.563   1.811 -0.8259  0.0447 -0.5922
 1654TIP3    H129157   1.568   4.559   1.862 -1.4524  0.1626  0.4428
 1654TIP3    H229158   1.516   4.562   1.720  0.4370  1.9617 -0.2610
 1655TIP3   OH229159   3.154   4.173   7.726 -0.1120  0.1804 -0.6277
 1655TIP3    H129160   3.117   4.207   7.644  1.8081 -0.6640 -1.9082
 1655TIP3    H229161   3.211   4.242   7.758 -0.4629  0.3066 -0.2697
 1656TIP3   OH229162   7.387   5.728   8.605  0.1651  0.2638  0.3623
 1656TIP3    H129163   7.419   5.813   8.635 -2.0044  1.1007  0.5124
 1656TIP3    H229164   7.291   5.736   8.608 -0.1221 -2.4970  1.2414
 1657TIP3   OH229165   1.849   4.392   1.663 -0.6814  0.2071  0.1414
 1657TIP3    H129166   1.870   4.424   1.576  0.7940 -3.0826 -0.8584
 1657TIP3    H229167   1.773   4.335   1.650  0.2797 -1.2686  0.7146
 1658TIP3   OH229168   1.791   6.462   3.104  0.0465 -0.6271 -0.0781
 1658TIP3    H129169   1.762   6.485   3.016 -0.5385  0.5885  0.4067
 1658TIP3    H229170   1.740   6.520   3.162  2.6212  0.8278  0.8893
 1659TIP3   OH229171   6.082   0.683   0.313  0.6748 -0.2384  0.5302
 1659TIP3    H129172   6.082   0.597   0.271  3.6112  0.2583 -0.7646
 1659TIP3    H229173   6.155   0.680   0.375  0.5377  1.1723  0.8008
 1660TIP3   OH229174   5.615   1.524   0.515 -0.1257  0.1184  0.5880
 1660TIP3    H129175   5.649   1.437   0.534 -2.0941 -0.4824  1.6351
 1660TIP3    H229176   5.694   1.578   0.504  1.1465 -1.8652 -0.7030
 1661TIP3   OH229177   7.070   1.264   8.844 -0.4635 -0.1173 -0.6910
 1661TIP3    H129178   7.140   1.198   8.848 -1.2930 -0.9809  3.0170
 1661TIP3    H229179   7.114   1.347   8.860 -0.0622 -0.4824  0.1632
 1662TIP3   OH229180   3.608   7.362   9.328 -0.6570 -0.3390  0.3749
 1662TIP3    H129181   3.656   7.286   9.361 -2.5846 -1.9156 -0.2971
 1662TIP3    H229182   3.594   7.417   9.406 -0.6715 -1.4903  1.2037
 1663TIP3   OH229183   5.662   4.404   7.965  0.0626  0.4341 -0.0084
 1663TIP3    H129184   5.742   4.374   7.922  1.0421  1.8839  0.7169
 1663TIP3    H229185   5.625   4.468   7.905  0.0208  0.5446  0.1352
 1664TIP3   OH229186   0.497   5.620   9.770  0.2767  0.2354  0.2188
 1664TIP3    H129187   0.405   5.613   9.745  1.1881 -2.8934 -3.2191
 1664TIP3    H229188   0.526   5.703   9.733 -1.1193  1.3294  1.4741
 1665TIP3   OH229189   2.519   2.838   2.088  0.0981  0.3940 -0.7393
 1665TIP3    H129190   2.569   2.760   2.110 -1.0112  0.0182  0.5795
 1665TIP3    H229191   2.436   2.806   2.055 -0.3005  1.0139 -0.3647
 1666TIP3   OH229192   4.260   2.722   1.137  0.2432  0.2142 -0.0780
 1666TIP3    H129193   4.216   2.698   1.219 -1.5149  1.3681 -0.6295
 1666TIP3    H229194   4.333   2.661   1.131  0.0495 -0.3197  2.0286
 1667TIP3   OH229195   3.288   5.735   7.916 -0.2228 -0.4915 -0.2040
 1667TIP3    H129196   3.373   5.777   7.932 -1.1160  0.9781  0.9283
 1667TIP3    H229197   3.275   5.678   7.992 -0.2748 -0.6777 -0.3518
 1668TIP3   OH229198   1.357   0.236   2.060  0.1703 -0.4855  0.0853
 1668TIP3    H129199   1.443   0.197   2.045  0.3724  0.6803 -2.1315
 1668TIP3    H229200   1.369   0.287   2.141  1.2102 -1.2854  0.4618
 1669TIP3   OH229201   2.674   4.415   1.967  0.3631 -0.9977  0.5811
 1669TIP3    H129202   2.728   4.382   1.895 -1.6322  0.1978 -1.5861
 1669TIP3    H229203   2.720   4.492   1.999  0.1208 -0.0959 -1.1156
 1670TIP3   OH229204   5.359   0.215   0.467  0.8421 -0.1673 -0.5445
 1670TIP3    H129205   5.436   0.266   0.492 -0.0892 -0.1599  2.8451
 1670TIP3    H229206   5.381   0.126   0.493 -0.1099 -0.2278  0.0813
 1671TIP3   OH229207   5.355   6.385   9.874 -0.3499 -0.2136  0.4365
 1671TIP3    H129208   5.331   6.320   9.808 -0.5778  0.2446  0.0651
 1671TIP3    H229209   5.440   6.356   9.906 -1.8754 -2.7032  2.7948
 1672TIP3   OH229210   0.898   4.981   8.576 -0.3715  0.2495  0.0159
 1672TIP3    H129211   0.904   5.006   8.483 -0.1095 -2.3600 -0.7430
 1672TIP3    H229212   0.988   4.984   8.607 -0.5777  2.2300  0.5745
 1673TIP3   OH229213   2.647   2.212   9.270  0.1014 -0.0494  0.0183
 1673TIP3    H129214   2.687   2.298   9.254 -0.3026  0.2240  0.4695
 1673TIP3    H229215   2.673   2.189   9.359 -1.6323  0.6263  0.7208
 1674TIP3   OH229216   4.292   3.006   1.121 -0.1412  0.0916 -0.1720
 1674TIP3    H129217   4.381   2.973   1.134  0.0615  0.7189  0.0714
 1674TIP3    H229218   4.238   2.927   1.122  0.5005 -0.3857 -1.2523
 1675TIP3   OH229219   4.939   6.768   8.834  0.1359 -0.5729 -0.6589
 1675TIP3    H129220   5.004   6.705   8.803 -1.3326 -1.7356 -1.5199
 1675TIP3    H229221   4.913   6.734   8.920  1.4857  0.5584  0.2322
 1676TIP3   OH229222   4.667   0.132   9.339 -0.4690 -0.4147 -0.9295
 1676TIP3    H129223   4.722   0.206   9.366  0.2709 -1.5361  0.8227
 1676TIP3    H229224   4.728   0.072   9.297 -0.9186 -0.3854 -1.6299
 1677TIP3   OH229225   2.032   4.095   7.560  0.6690 -0.0787 -0.3260
 1677TIP3    H129226   1.965   4.046   7.512  0.4904 -0.1523 -0.0046
 1677TIP3    H229227   2.026   4.062   7.650  3.0031 -2.0683 -0.8133
 1678TIP3   OH229228   2.381   6.985   9.783 -0.8961 -0.5917  0.7152
 1678TIP3    H129229   2.388   6.955   9.874 -0.7776 -0.1589  0.8520
 1678TIP3    H229230   2.424   7.071   9.783  2.0585 -1.9114 -0.4214
 1679TIP3   OH229231   2.233   1.309   9.887  0.1971  0.7091 -0.4289
 1679TIP3    H129232   2.152   1.336   9.843  0.1106  0.9657 -0.1120
 1679TIP3    H229233   2.289   1.387   9.883  0.3956  0.5592 -0.5681
 1680TIP3   OH229234   2.322   5.534   1.156  0.6983  0.5518 -0.6569
 1680TIP3    H129235   2.286   5.461   1.105  0.3435  0.0895  0.2234
 1680TIP3    H229236   2.318   5.503   1.247  3.3623  0.4598 -0.5018
 1681TIP3   OH229237   2.314   5.543   7.537  0.0798 -0.4695  0.0167
 1681TIP3    H129238   2.386   5.503   7.585 -0.3180 -0.1890  0.8628
 1681TIP3    H229239   2.262   5.588   7.604  0.3046  1.1416 -0.8562
 1682TIP3   OH229240   4.164   2.506   9.661  0.3120 -0.0023 -0.8210
 1682TIP3    H129241   4.227   2.443   9.625  1.9387  1.2025 -0.2355
 1682TIP3    H229242   4.148   2.476   9.750 -0.4634 -0.6627 -1.1710
 1683TIP3   OH229243   3.495   0.399   2.124 -0.2625  0.3269  0.0012
 1683TIP3    H129244   3.572   0.387   2.180  0.7043  0.8952 -1.1583
 1683TIP3    H229245   3.421   0.392   2.184  0.7225  0.9010  1.3469
 1684TIP3   OH229246   4.334   0.755   8.430  0.0300  0.1817 -0.0213
 1684TIP3    H129247   4.401   0.736   8.496  2.2750  4.3829 -0.7954
 1684TIP3    H229248   4.348   0.688   8.363  3.3581  0.6936 -0.0059
 1685TIP3   OH229249   3.474   1.991   8.287 -0.1618  0.5358  0.0336
 1685TIP3    H129250   3.391   1.979   8.334  0.4421 -0.6489  0.8456
 1685TIP3    H229251   3.466   1.935   8.209  0.8899 -1.8432  1.5162
 1686TIP3   OH229252   0.956   3.152   0.578 -0.1112  0.0018 -0.1166
 1686TIP3    H129253   1.040   3.134   0.621  1.0805 -1.5342 -2.7812
 1686TIP3    H229254   0.948   3.082   0.513 -3.0575  0.6498 -0.5734
 1687TIP3   OH229255   1.027   0.318   9.991  0.1041 -0.0102  0.4099
 1687TIP3    H129256   1.073   0.302   9.909  2.6992 -0.1537  1.7784
 1687TIP3    H229257   0.934   0.306   9.970  0.6800  0.0167 -2.4642
 1688TIP3   OH229258   5.176   3.933   0.372 -0.0070 -0.2047  0.0672
 1688TIP3    H129259   5.126   3.999   0.323  0.0335  0.2568  0.6414
 1688TIP3    H229260   5.267   3.960   0.364  0.1692 -1.0369 -0.9640
 1689TIP3   OH229261   3.179   3.272   1.828 -0.8602  0.2666 -0.9930
 1689TIP3    H129262   3.213   3.268   1.918 -1.5611  0.3346 -0.7243
 1689TIP3    H229263   3.245   3.226   1.776 -0.4307  0.2568 -0.4497
 1690TIP3   OH229264   5.406   6.187   8.278  0.9667 -0.1093 -0.0853
 1690TIP3    H129265   5.391   6.281   8.291 -0.2914 -0.4148  0.9239
 1690TIP3    H229266   5.319   6.147   8.288  1.5973 -1.4543  0.2906
 1691TIP3   OH229267   2.138   6.368   2.203  0.3175 -0.0329  0.0995
 1691TIP3    H129268   2.187   6.322   2.271  1.0979  0.1066 -0.3516
 1691TIP3    H229269   2.205   6.394   2.139 -0.4686 -0.7237 -1.0453
 1692TIP3   OH229270   1.320   4.322   9.283  0.5523  0.1143 -0.1990
 1692TIP3    H129271   1.277   4.295   9.203  0.7905  0.7660 -0.5588
 1692TIP3    H229272   1.342   4.241   9.328 -1.2866 -0.2311  0.1313
 1693TIP3   OH229273   3.038   6.178   8.555 -0.5995  0.0903 -0.4310
 1693TIP3    H129274   2.956   6.143   8.521 -0.0011  0.1757 -2.0283
 1693TIP3    H229275   3.055   6.126   8.634 -2.6616  0.7464  0.4899
 1694TIP3   OH229276   0.027   6.145   8.064 -0.2155 -0.2115  0.2510
 1694TIP3    H129277   0.079   6.089   8.123  0.0516 -0.5546 -0.3007
 1694TIP3    H229278  -0.063   6.128   8.089 -0.0657  1.5843  2.3073
 1695TIP3   OH229279   4.608   6.975   9.564 -0.1504 -0.1158  0.1391
 1695TIP3    H129280   4.606   6.898   9.622 -0.9361 -0.0204  0.2484
 1695TIP3    H229281   4.568   6.945   9.483  0.2175 -0.0235 -0.0783
 1696TIP3   OH229282   4.647   5.712   0.316  0.0097 -0.3195  0.3438
 1696TIP3    H129283   4.602   5.630   0.337 -0.0765 -0.3959 -0.1137
 1696TIP3    H229284   4.655   5.757   0.400  0.5799 -1.0570  0.7007
 1697TIP3   OH229285   1.257   2.892   0.997  0.3681 -0.6872 -0.0047
 1697TIP3    H129286   1.173   2.848   0.985  0.1988 -0.3447 -0.0937
 1697TIP3    H229287   1.235   2.974   1.042  0.3856  0.3487 -1.7871
 1698TIP3   OH229288   4.792   7.131   1.907  0.3228 -0.4843  0.2499
 1698TIP3    H129289   4.869   7.074   1.917 -0.6081 -1.7499  0.5108
 1698TIP3    H229290   4.740   7.088   1.839 -0.5253 -0.0931  0.6401
 1699TIP3   OH229291   4.226   1.512   9.040  0.1220  0.8970 -0.2492
 1699TIP3    H129292   4.232   1.556   8.956 -0.7651  0.1093 -0.7488
 1699TIP3    H229293   4.137   1.476   9.042  0.6036 -0.3326  0.3832
 1700TIP3   OH229294   6.903   0.129   9.656 -0.2393 -0.4862 -0.2232
 1700TIP3    H129295   6.896   0.093   9.744 -1.7020  0.5628  0.1211
 1700TIP3    H229296   6.974   0.192   9.662  0.3413 -1.1387 -0.0738
 1701TIP3   OH229297   4.865   2.859   1.177  0.3864  0.5031  0.1697
 1701TIP3    H129298   4.796   2.813   1.129  0.2910 -1.4122  1.9815
 1701TIP3    H229299   4.945   2.841   1.127  0.1000 -0.3585 -0.0041
 1702TIP3   OH229300   2.097   6.497   9.338 -0.2976 -0.3260  0.0794
 1702TIP3    H129301   2.154   6.569   9.312 -0.6450 -0.5000 -1.2182
 1702TIP3    H229302   2.019   6.539   9.373 -1.3269  0.0105 -2.4403
 1703TIP3   OH229303   2.938   5.869   1.319  0.1435  0.1725 -0.4228
 1703TIP3    H129304   2.956   5.777   1.298 -1.6456  0.0255 -1.5052
 1703TIP3    H229305   2.893   5.903   1.242 -1.4349  1.2706  0.9174
 1704TIP3   OH229306   2.058   0.208   0.823  0.0189  0.5309 -0.2414
 1704TIP3    H129307   1.992   0.240   0.761 -0.2106  0.9620  0.2190
 1704TIP3    H229308   2.037   0.252   0.905 -0.0697 -0.5373  0.3154
 1705TIP3   OH229309   1.751   4.705   9.746 -0.3476  0.3192 -0.2112
 1705TIP3    H129310   1.741   4.650   9.668 -0.3058 -1.1271  0.7612
 1705TIP3    H229311   1.752   4.643   9.819  0.5314  1.5602  0.8852
 1706TIP3   OH229312   2.191   6.348   1.624  0.0414  0.1125  0.2796
 1706TIP3    H129313   2.255   6.281   1.599 -0.2949 -0.0011 -0.2887
 1706TIP3    H229314   2.207   6.420   1.564 -0.2727  0.1384  0.2280
 1707TIP3   OH229315   3.029   4.884   7.498  0.2785  0.1075 -0.4166
 1707TIP3    H129316   2.940   4.857   7.521  0.3049  0.7320  0.4624
 1707TIP3    H229317   3.020   4.922   7.410 -0.3440  0.2796 -0.2837
 1708TIP3   OH229318   4.964   6.643   9.064  0.2631  0.0810  0.8628
 1708TIP3    H129319   5.021   6.700   9.116  0.4755  0.5917  0.0950
 1708TIP3    H229320   5.024   6.580   9.024  0.2507  0.4101  0.3208
 1709TIP3   OH229321   3.251   6.137   1.582 -0.1298 -0.5536 -0.3400
 1709TIP3    H129322   3.178   6.190   1.550  0.1434 -1.2911 -2.3357
 1709TIP3    H229323   3.208   6.066   1.631 -0.5031  1.2439  2.1284
 1710TIP3   OH229324   1.943   4.488   0.718  0.2750  0.1834  0.3582
 1710TIP3    H129325   1.949   4.567   0.665 -0.4986  1.2058  1.7156
 1710TIP3    H229326   1.850   4.469   0.724  0.3229  0.1778  1.4257
 1711TIP3   OH229327   2.430   6.347   1.342 -0.9745  0.6468  0.9611
 1711TIP3    H129328   2.503   6.403   1.369 -0.4007 -0.0924  0.9911
 1711TIP3    H229329   2.376   6.403   1.287  0.8166  0.6196 -0.9725
 1712TIP3   OH229330   1.796   3.971   0.671  0.9322  0.0029  0.4789
 1712TIP3    H129331   1.796   3.994   0.578  2.2567  1.5746  0.8200
 1712TIP3    H229332   1.874   3.915   0.681  0.4178 -0.7208  0.5499
 1713TIP3   OH229333   4.777   4.524   8.795 -0.1208  0.6161 -0.3887
 1713TIP3    H129334   4.686   4.551   8.786 -0.5808 -1.0484 -0.9421
 1713TIP3    H229335   4.816   4.590   8.853 -1.9872  0.6142  0.9351
 1714TIP3   OH229336   0.888   1.700   9.707 -0.6999  0.5009  0.1085
 1714TIP3    H129337   0.916   1.641   9.637  1.2045  1.6881 -0.2122
 1714TIP3    H229338   0.909   1.653   9.788  1.1490  0.8336 -0.1426
 1715TIP3   OH229339   6.083   6.722   9.766  0.1023 -0.2518 -1.3879
 1715TIP3    H129340   6.164   6.763   9.735  0.9438 -1.5854 -1.0464
 1715TIP3    H229341   6.042   6.686   9.688 -0.7873  1.4184 -1.7322
 1716TIP3   OH229342   1.577   3.089   9.573  0.5280  0.1493  0.2394
 1716TIP3    H129343   1.537   3.015   9.528  1.1332  1.0803 -2.0189
 1716TIP3    H229344   1.631   3.050   9.641  0.4953 -1.4656 -0.6127
 1717TIP3   OH229345   3.452   2.898   8.734  0.4436  0.3110 -0.5534
 1717TIP3    H129346   3.444   2.819   8.787  0.4514  1.2770  0.9812
 1717TIP3    H229347   3.415   2.875   8.649 -1.9390 -0.6429  0.6280
 1718TIP3   OH229348   3.373   7.263   8.751 -0.2371  0.1027 -0.1399
 1718TIP3    H129349   3.310   7.207   8.705  0.6325 -0.9431 -0.0931
 1718TIP3    H229350   3.384   7.222   8.836 -0.6287  1.1396  0.4304
 1719TIP3   OH229351   2.566   1.651   1.243  0.0902 -0.5553  0.3532
 1719TIP3    H129352   2.522   1.711   1.303  2.4353  0.3606  1.2723
 1719TIP3    H229353   2.576   1.570   1.294  0.9395 -0.1993  0.7723
 1720TIP3   OH229354   2.198   3.650   9.663  0.0166 -0.2475  0.3525
 1720TIP3    H129355   2.146   3.621   9.588  0.7191 -0.3055 -0.1233
 1720TIP3    H229356   2.199   3.745   9.657 -0.3761 -0.2242  0.6039
 1721TIP3   OH229357   1.322   2.821   1.484  0.2225 -0.0046  0.0909
 1721TIP3    H129358   1.302   2.898   1.537 -2.7823 -0.8398  0.3253
 1721TIP3    H229359   1.250   2.817   1.420  1.7151 -1.1877 -1.6148
 1722TIP3   OH229360   4.820   6.283   1.312 -0.3143 -1.1587  0.3839
 1722TIP3    H129361   4.813   6.316   1.223 -1.8432  0.2686  0.9784
 1722TIP3    H229362   4.915   6.273   1.327 -0.0492 -1.5969 -1.4261
 1723TIP3   OH229363   4.849   1.834   8.631  0.0008 -0.2687 -0.6872
 1723TIP3    H129364   4.770   1.856   8.581 -0.6781 -2.1392 -0.5420
 1723TIP3    H229365   4.922   1.860   8.576 -0.7286 -1.7302 -2.4513
 1724TIP3   OH229366   6.156   0.205   1.343  0.0018  0.3666  0.3933
 1724TIP3    H129367   6.146   0.128   1.400  2.8175  0.7208  1.5372
 1724TIP3    H229368   6.135   0.279   1.400  0.7035  0.6073  0.3478
 1725TIP3   OH229369   1.457   0.872   1.733  0.6024 -0.2791  0.2195
 1725TIP3    H129370   1.399   0.895   1.805  0.5707 -2.6861  1.0551
 1725TIP3    H229371   1.402   0.877   1.654 -0.5045 -1.5660  0.8762
 1726TIP3   OH229372   4.295   6.154   1.830  0.2662  0.7566 -0.0928
 1726TIP3    H129373   4.284   6.229   1.888 -0.1942  2.4105 -2.1792
 1726TIP3    H229374   4.231   6.168   1.760  1.0963 -0.8638 -1.2510
 1727TIP3   OH229375   0.885   6.924   2.050  0.5448 -0.4203  0.3241
 1727TIP3    H129376   0.858   6.835   2.076 -0.8653 -0.0950  0.0744
 1727TIP3    H229377   0.843   6.937   1.965 -1.7903  1.5472  1.6575
 1728TIP3   OH229378   2.396   4.401   1.398 -0.2446 -0.1616 -0.1879
 1728TIP3    H129379   2.398   4.463   1.324 -1.5506 -0.8442 -0.8281
 1728TIP3    H229380   2.480   4.415   1.443  0.9882 -0.3027 -2.2746
 1729TIP3   OH229381   2.139   1.696   8.230 -0.3410  0.3838  0.1778
 1729TIP3    H129382   2.080   1.772   8.229 -1.0340 -0.1448  0.4555
 1729TIP3    H229383   2.115   1.647   8.308 -0.2086 -0.3715 -0.2430
 1730TIP3   OH229384   6.657   3.471   0.920 -0.5610  0.3832 -0.2563
 1730TIP3    H129385   6.692   3.384   0.941 -2.8803 -1.0045 -1.7161
 1730TIP3    H229386   6.641   3.511   1.005 -0.7645 -1.2070  0.5047
 1731TIP3   OH229387   4.273   5.449   8.424 -0.8315 -0.2521 -0.4493
 1731TIP3    H129388   4.362   5.416   8.410 -1.6410 -2.6724 -0.3404
 1731TIP3    H229389   4.267   5.527   8.368  1.2561 -0.2085 -0.6712
 1732TIP3   OH229390   1.505   3.302   2.163 -0.1720  0.0152 -0.5285
 1732TIP3    H129391   1.572   3.358   2.201 -0.6723  0.2263  0.0570
 1732TIP3    H229392   1.550   3.219   2.146 -0.1841 -0.5011  1.6198
 1733TIP3   OH229393   7.052   4.515   1.178  0.3985 -0.0015 -0.1313
 1733TIP3    H129394   6.968   4.520   1.223  0.2338 -2.0019 -0.1314
 1733TIP3    H229395   7.112   4.477   1.242  0.1681 -2.8631 -1.4528
 1734TIP3   OH229396   6.172   1.864   8.177 -0.2989 -0.1717  0.1838
 1734TIP3    H129397   6.200   1.862   8.086 -0.3362  0.6225  0.1479
 1734TIP3    H229398   6.083   1.900   8.174 -0.0507  0.4968  0.5829
 1735TIP3   OH229399   1.881   6.594   0.138  0.2900 -0.9136 -0.4549
 1735TIP3    H129400   1.892   6.598   0.043 -0.9151  1.5214 -0.5769
 1735TIP3    H229401   1.966   6.620   0.174 -0.2074  1.7629 -1.0100
 1736TIP3   OH229402   3.469   6.526   8.193  0.5247 -0.2672 -0.1483
 1736TIP3    H129403   3.411   6.469   8.142  2.7159 -1.1046 -1.8567
 1736TIP3    H229404   3.421   6.608   8.200 -1.3886 -1.3018 -0.3697
 1737TIP3   OH229405   0.673   2.877   8.164 -0.5547  0.5558  0.0649
 1737TIP3    H129406   0.671   2.880   8.069 -0.3775 -1.9265 -0.0632
 1737TIP3    H229407   0.623   2.955   8.191  1.1445  2.4712 -1.9678
 1738TIP3   OH229408   6.864   2.190   1.021  0.0268 -0.3035  0.8202
 1738TIP3    H129409   6.786   2.191   1.075 -1.5638  0.2631 -1.3480
 1738TIP3    H229410   6.915   2.265   1.051 -0.7756 -0.0538  1.5777
 1739TIP3   OH229411   1.266   4.959   7.289  0.5046 -0.0892  0.2333
 1739TIP3    H129412   1.280   4.992   7.378 -0.1570  1.8414 -0.3324
 1739TIP3    H229413   1.303   4.870   7.290 -0.1244 -0.3949  2.6139
 1740TIP3   OH229414   0.926   4.658   0.484  0.2658 -0.0737  0.0838
 1740TIP3    H129415   0.888   4.580   0.525  1.4229  0.4378  2.2966
 1740TIP3    H229416   0.881   4.731   0.525  1.6783  0.4713  0.7453
 1741TIP3   OH229417   3.078   2.747   9.516  0.0412 -0.5563 -0.1879
 1741TIP3    H129418   3.121   2.675   9.562 -0.3007 -0.2133  0.6860
 1741TIP3    H229419   3.139   2.820   9.525  0.7158 -0.8833 -1.6689
 1742TIP3   OH229420   4.709   6.532   2.048 -0.2785 -0.3616  0.0196
 1742TIP3    H129421   4.796   6.500   2.072  0.1244  0.6268 -0.0738
 1742TIP3    H229422   4.724   6.583   1.968 -1.0440 -0.7117 -0.3538
 1743TIP3   OH229423   0.936   2.601   2.256 -0.1476 -1.0828  0.1541
 1743TIP3    H129424   0.960   2.526   2.310  0.5371 -0.2983  0.9800
 1743TIP3    H229425   1.017   2.651   2.247 -0.3594 -0.9492 -1.2287
 1744TIP3   OH229426   5.217   4.765   0.653 -0.5657 -0.3162 -0.0462
 1744TIP3    H129427   5.205   4.814   0.734 -0.1777  2.3631 -1.4992
 1744TIP3    H229428   5.305   4.790   0.623 -0.8033 -1.0449 -1.4130
 1745TIP3   OH229429   5.780   2.565   8.976  0.3120 -0.2611  1.2538
 1745TIP3    H129430   5.798   2.626   8.905 -1.6743 -0.0296  0.8690
 1745TIP3    H229431   5.858   2.567   9.031  1.0462  1.1520  0.2167
 1746TIP3   OH229432   6.476   3.090   1.671 -0.2753 -0.3644  0.1231
 1746TIP3    H129433   6.445   3.180   1.664  0.7962  0.1178  1.2590
 1746TIP3    H229434   6.403   3.037   1.637 -0.9046  0.9112 -0.5876
 1747TIP3   OH229435   1.514   4.612   8.182  0.2841 -0.4784 -0.6684
 1747TIP3    H129436   1.435   4.649   8.221  0.2982 -1.4414  0.3099
 1747TIP3    H229437   1.490   4.523   8.158  1.1202 -0.8614 -0.1491
 1748TIP3   OH229438   7.141   4.471   7.868  0.1766 -0.2820  0.2941
 1748TIP3    H129439   7.067   4.514   7.912 -0.2727 -0.7750  0.0407
 1748TIP3    H229440   7.100   4.400   7.818  0.6969  0.1415 -0.7587
 1749TIP3   OH229441   1.020   5.301   9.758  0.2498 -0.2795 -0.2505
 1749TIP3    H129442   0.998   5.232   9.820  0.6090  0.1646  0.3834
 1749TIP3    H229443   1.116   5.305   9.760  0.1863  1.5796  1.2338
 1750TIP3   OH229444   4.733   2.902   9.112  0.2498  0.4658  0.0766
 1750TIP3    H129445   4.688   2.979   9.146  0.1523  1.2584 -1.7312
 1750TIP3    H229446   4.820   2.907   9.151 -0.4192  0.2629  1.6788
 1751TIP3   OH229447   4.083   4.580   8.984  0.4667 -0.0072  0.5300
 1751TIP3    H129448   4.066   4.583   9.078  0.8165 -0.6155  0.6173
 1751TIP3    H229449   4.080   4.487   8.962  4.3121 -0.3304  0.6827
 1752TIP3   OH229450   3.369   0.731   1.110 -0.6467  0.1890  0.2156
 1752TIP3    H129451   3.365   0.804   1.172 -0.3882  2.0470 -1.8273
 1752TIP3    H229452   3.297   0.748   1.048 -0.4117 -1.1508 -0.4645
 1753TIP3   OH229453   3.077   3.793   7.416 -0.0095 -0.1211  0.4158
 1753TIP3    H129454   3.154   3.845   7.439 -0.0968 -0.8077  2.4833
 1753TIP3    H229455   3.112   3.718   7.369  0.1859  1.3393 -1.9292
 1754TIP3   OH229456   3.970   2.601   9.121 -0.3859 -0.0089  0.2615
 1754TIP3    H129457   4.003   2.622   9.034 -1.9198  0.5075 -0.2225
 1754TIP3    H229458   3.990   2.679   9.173  1.0334 -0.5340  0.5484
 1755TIP3   OH229459   2.086   1.127   0.902 -0.2918 -0.2843 -0.5307
 1755TIP3    H129460   2.130   1.078   0.832 -2.0988 -0.9267 -1.2776
 1755TIP3    H229461   1.993   1.114   0.885 -0.9123  3.4447 -0.7786
 1756TIP3   OH229462   5.072   4.889   1.292 -0.0804 -0.2430 -0.2839
 1756TIP3    H129463   4.980   4.888   1.318  0.7561 -0.1013  3.1697
 1756TIP3    H229464   5.103   4.801   1.310  0.9735  0.3478  0.9730
 1757TIP3   OH229465   3.120   2.940   8.386  0.5507  0.1568 -0.2240
 1757TIP3    H129466   3.173   2.891   8.448 -0.0293 -0.7904 -0.4551
 1757TIP3    H229467   3.037   2.954   8.431  0.4062  0.1689 -0.4913
 1758TIP3   OH229468   4.965   3.785   7.829 -0.2332  0.4543 -0.6284
 1758TIP3    H129469   4.916   3.752   7.754 -0.8407 -0.1698  0.0330
 1758TIP3    H229470   5.014   3.860   7.794 -1.5824  1.0414 -1.3343
 1759TIP3   OH229471   4.588   5.191   8.991  0.0126 -0.0894  0.1717
 1759TIP3    H129472   4.622   5.256   8.929  0.4495 -0.1440  0.3482
 1759TIP3    H229473   4.569   5.114   8.937  1.7498 -0.6434  0.2872
 1760TIP3   OH229474   6.930   6.712   9.473  0.2631  0.6398 -0.2940
 1760TIP3    H129475   6.910   6.618   9.474  1.3493  0.3865 -0.5543
 1760TIP3    H229476   6.900   6.744   9.558  0.0960  0.0125 -0.1113
 1761TIP3   OH229477   5.747   6.415   2.116  0.6156 -0.6558 -0.2726
 1761TIP3    H129478   5.839   6.441   2.123 -0.2022  2.6000  0.2003
 1761TIP3    H229479   5.721   6.397   2.207  0.1987  1.0227 -0.0248
 1762TIP3   OH229480   1.530   4.799   6.198  0.3231  0.2283 -0.1351
 1762TIP3    H129481   1.482   4.717   6.208 -1.8225  1.4766  0.4868
 1762TIP3    H229482   1.604   4.791   6.258 -0.4279 -0.8563  0.7018
 1763TIP3   OH229483   4.083   6.121   9.410  0.0563 -0.0848  0.3993
 1763TIP3    H129484   4.137   6.148   9.336  1.5358 -0.2554  1.3843
 1763TIP3    H229485   4.109   6.031   9.427 -0.4643 -0.1327  0.9624
 1764TIP3   OH229486   5.565   0.517   8.277 -0.0772  0.0962 -0.6084
 1764TIP3    H129487   5.479   0.475   8.273  0.4162 -1.0325  0.2996
 1764TIP3    H229488   5.587   0.519   8.370  0.9660  0.2208 -0.8501
 1765TIP3   OH229489   1.333   3.571   1.498 -0.0703 -0.1773  0.3595
 1765TIP3    H129490   1.357   3.501   1.437  2.2366 -0.2752  1.2753
 1765TIP3    H229491   1.265   3.533   1.553 -1.9088 -0.2100 -1.8418
 1766TIP3   OH229492   2.796   3.495   8.160 -0.4366 -0.0954 -0.0708
 1766TIP3    H129493   2.708   3.528   8.144 -0.1913  0.5704 -0.1162
 1766TIP3    H229494   2.851   3.574   8.157  0.1433 -0.4925  0.0385
 1767TIP3   OH229495   2.181   0.591   8.636  0.3857  0.2646  0.7109
 1767TIP3    H129496   2.256   0.638   8.600  0.7039  0.0564  1.1002
 1767TIP3    H229497   2.186   0.606   8.730  0.8381 -1.0540  0.9028
 1768TIP3   OH229498   6.385   3.445   8.397  0.4394 -0.2431  0.1764
 1768TIP3    H129499   6.416   3.366   8.441 -0.1470 -0.4619  0.2098
 1768TIP3    H229500   6.294   3.455   8.426  1.4473  2.4198  3.0143
 1769TIP3   OH229501   1.894   6.693   7.572 -0.0208  0.1438 -0.2645
 1769TIP3    H129502   1.966   6.639   7.540 -1.8539 -2.4318 -0.2955
 1769TIP3    H229503   1.884   6.667   7.664 -0.9741  0.3931 -0.2896
 1770TIP3   OH229504   2.735   0.614   7.874  0.1961 -0.3625 -0.1820
 1770TIP3    H129505   2.744   0.674   7.948  0.0327 -0.2608 -0.2445
 1770TIP3    H229506   2.644   0.623   7.846  0.8820  1.4815 -2.0070
 1771TIP3   OH229507   4.961   4.952   8.605 -0.1481  0.1121 -0.0659
 1771TIP3    H129508   5.001   5.021   8.657  2.0497 -1.2183  0.1278
 1771TIP3    H229509   4.920   4.998   8.532  0.5807  1.6658  0.4604
 1772TIP3   OH229510   0.549   4.865   2.757 -0.3944 -0.0309  1.0113
 1772TIP3    H129511   0.472   4.896   2.710 -0.4860 -0.2552  1.0134
 1772TIP3    H229512   0.524   4.867   2.849 -0.6032 -0.6757  0.9697
 1773TIP3   OH229513   1.597   1.422   0.524 -0.0011 -0.4264  0.3032
 1773TIP3    H129514   1.513   1.430   0.478  0.9284  0.6303 -1.3098
 1773TIP3    H229515   1.626   1.333   0.506  0.1170 -0.1803 -0.7968
 1774TIP3   OH229516   0.298   6.225   2.288 -0.2286  0.7170  0.2506
 1774TIP3    H129517   0.267   6.285   2.355 -0.6420  1.5477 -0.6591
 1774TIP3    H229518   0.247   6.248   2.210 -0.5487 -0.9627 -0.0636
 1775TIP3   OH229519   0.995   3.179   2.972  0.4865  0.0511 -0.4847
 1775TIP3    H129520   0.913   3.213   3.008 -0.0552 -0.4374 -1.2498
 1775TIP3    H229521   1.043   3.147   3.049  0.2890  1.0063  0.0516
 1776TIP3   OH229522   6.908   0.348   0.112 -0.1121 -0.7389  0.6299
 1776TIP3    H129523   6.966   0.336   0.187  0.1753  0.1515  0.5609
 1776TIP3    H229524   6.956   0.312   0.038 -0.2546 -1.3148  0.8165
 1777TIP3   OH229525   2.517   4.090   8.137 -0.3049  0.1979 -0.1201
 1777TIP3    H129526   2.530   4.014   8.193 -1.2641 -0.1987 -0.4100
 1777TIP3    H229527   2.463   4.150   8.189  1.2503  1.1305  0.4798
 1778TIP3   OH229528   3.197   3.915   2.653  0.4455 -0.5106  0.4222
 1778TIP3    H129529   3.207   3.983   2.586  0.7480  1.7638  2.6238
 1778TIP3    H229530   3.267   3.852   2.634  0.2982 -0.1350 -1.5587
 1779TIP3   OH229531   0.482   1.345   8.480  0.0375 -0.3373 -0.4013
 1779TIP3    H129532   0.558   1.395   8.450  1.0028 -1.5283 -0.0139
 1779TIP3    H229533   0.412   1.411   8.489  0.9227  0.7244 -1.0703
 1780TIP3   OH229534   7.223   6.640   1.324  0.2993 -0.4119 -0.6777
 1780TIP3    H129535   7.180   6.678   1.247  0.6100 -0.0066 -0.6503
 1780TIP3    H229536   7.198   6.696   1.397  0.7537 -0.2604 -0.6361
 1781TIP3   OH229537   4.663   4.929   0.677 -0.4964  0.0231 -0.3194
 1781TIP3    H129538   4.753   4.960   0.685 -0.6189  0.8717 -1.8686
 1781TIP3    H229539   4.659   4.887   0.591 -1.7929  0.7644 -0.6470
 1782TIP3   OH229540   1.821   0.281   9.269 -0.2215  0.1803 -0.0994
 1782TIP3    H129541   1.727   0.281   9.251 -0.3605 -1.6571  0.3963
 1782TIP3    H229542   1.849   0.191   9.250  1.2274  0.4204  0.7407
 1783TIP3   OH229543   3.609   7.403   0.946  0.0651 -0.5322  0.1753
 1783TIP3    H129544   3.631   7.312   0.962 -2.3845 -1.3066 -0.4777
 1783TIP3    H229545   3.514   7.405   0.943  0.0780  1.7831 -1.2700
 1784TIP3   OH229546   0.738   5.797   9.337 -0.2789 -0.3790 -0.3609
 1784TIP3    H129547   0.652   5.836   9.352  0.2567  0.2190  1.4593
 1784TIP3    H229548   0.720   5.711   9.300 -1.6315 -0.0723 -0.4470
 1785TIP3   OH229549   1.015   7.001   8.077 -0.4502 -0.4410 -0.0869
 1785TIP3    H129550   0.935   7.037   8.115 -0.1713  1.7125 -1.3946
 1785TIP3    H229551   1.079   7.007   8.147 -0.6236  0.9176 -0.0163
 1786TIP3   OH229552   0.334   5.062   7.306  0.7805 -0.1848 -0.1666
 1786TIP3    H129553   0.241   5.083   7.317  0.9815  0.0637  1.2658
 1786TIP3    H229554   0.349   5.069   7.211 -0.4058  0.8495 -0.3088
 1787TIP3   OH229555   2.383   1.764   9.755 -0.2195  0.1909 -0.6671
 1787TIP3    H129556   2.446   1.692   9.756 -0.2475  0.1675  0.1739
 1787TIP3    H229557   2.320   1.742   9.823 -1.2676  0.1176 -1.6267
 1788TIP3   OH229558   1.620   5.701   8.473  0.3072 -0.1001 -0.0789
 1788TIP3    H129559   1.579   5.712   8.387 -1.9271  1.4204  1.0786
 1788TIP3    H229560   1.608   5.785   8.517  0.4294 -1.1266  2.0946
 1789TIP3   OH229561   1.331   0.086   1.338  0.0861  0.5847 -0.0165
 1789TIP3    H129562   1.364   0.047   1.419  0.3295 -0.9929 -0.8308
 1789TIP3    H229563   1.311   0.011   1.282 -0.5033  1.6302 -1.2557
 1790TIP3   OH229564   4.510   5.391   9.285  0.0373 -0.0952 -0.2265
 1790TIP3    H129565   4.421   5.409   9.254  0.5997  2.8303 -0.4190
 1790TIP3    H229566   4.565   5.399   9.208  0.6516 -0.2349  0.1893
 1791TIP3   OH229567   2.238   3.790   9.315 -0.3739  0.6333  0.7319
 1791TIP3    H129568   2.270   3.795   9.225  0.7626  0.9117  1.1298
 1791TIP3    H229569   2.273   3.869   9.357 -0.5094  0.2756  1.5294
 1792TIP3   OH229570   6.799   0.378   0.751 -0.4475 -0.1335 -0.0708
 1792TIP3    H129571   6.719   0.335   0.782 -1.7673  2.3371  0.1845
 1792TIP3    H229572   6.815   0.337   0.665 -4.1016  1.5852 -1.8322
 1793TIP3   OH229573   5.567   1.255   1.219 -0.8543  0.2956 -0.6687
 1793TIP3    H129574   5.498   1.194   1.247 -0.5671  0.1888 -0.1821
 1793TIP3    H229575   5.572   1.244   1.125  0.4050 -1.7251 -0.4100
 1794TIP3   OH229576   1.747   3.643   6.406 -0.0981 -0.0430  0.0540
 1794TIP3    H129577   1.692   3.718   6.379  0.4434  0.2310 -0.3079
 1794TIP3    H229578   1.686   3.570   6.410 -0.7306  0.5138  0.8855
 1795TIP3   OH229579   5.372   3.094   8.408  0.2727 -0.4685  0.4867
 1795TIP3    H129580   5.312   3.019   8.406  0.6561 -0.7731 -0.1056
 1795TIP3    H229581   5.357   3.139   8.325  3.1348 -2.4351 -1.3129
 1796TIP3   OH229582   0.614   7.207   9.713 -0.2110  0.1484 -0.3168
 1796TIP3    H129583   0.682   7.142   9.697 -0.8064 -0.3943 -0.7004
 1796TIP3    H229584   0.661   7.289   9.729  0.6131 -0.6346  1.5544
 1797TIP3   OH229585   1.777   1.744   7.897  0.2426  0.7051  0.6603
 1797TIP3    H129586   1.705   1.780   7.846  1.4699 -2.0850 -3.4751
 1797TIP3    H229587   1.762   1.650   7.898  1.9593  0.3635  2.9552
 1798TIP3   OH229588   0.106   4.089   0.541  0.4800  0.3898  0.0073
 1798TIP3    H129589   0.083   3.997   0.533  2.1343  0.0070 -0.7676
 1798TIP3    H229590   0.154   4.095   0.624  0.1098  0.6267  0.2087
 1799TIP3   OH229591   1.856   2.269   0.758  0.2322 -0.4569  0.7725
 1799TIP3    H129592   1.913   2.253   0.683 -0.4636  0.4160  0.0368
 1799TIP3    H229593   1.793   2.196   0.757 -1.5182  0.9502 -1.2105
 1800TIP3   OH229594   4.776   6.711   9.479  0.7972 -0.5378 -0.4669
 1800TIP3    H129595   4.711   6.748   9.539  0.9165 -1.3986  0.2223
 1800TIP3    H229596   4.840   6.669   9.537  1.8905  0.1707 -1.1363
 1801TIP3   OH229597   3.404   4.716   1.281 -0.6390 -0.1217  0.1193
 1801TIP3    H129598   3.390   4.811   1.279 -0.5635 -0.1159 -1.9828
 1801TIP3    H229599   3.317   4.679   1.294 -0.8130  0.2220 -0.0535
 1802TIP3   OH229600   3.087   4.599   0.037  0.2205 -0.5161 -0.2067
 1802TIP3    H129601   3.090   4.591   0.132 -1.2231 -1.0137 -0.1641
 1802TIP3    H229602   3.162   4.549   0.006 -0.6073 -2.3913  0.6190
 1803TIP3   OH229603   3.724   1.833   9.783  0.7048 -0.3420 -0.1308
 1803TIP3    H129604   3.681   1.831   9.697  0.3548 -1.8407  0.0568
 1803TIP3    H229605   3.803   1.781   9.772 -0.3148 -2.1947  0.9184
 1804TIP3   OH229606   6.860   3.768   9.165  0.4192 -0.1189  0.1320
 1804TIP3    H129607   6.828   3.755   9.076  0.5716 -0.5223  0.1343
 1804TIP3    H229608   6.955   3.765   9.156  0.4389  0.0988  0.2704
 1805TIP3   OH229609   2.996   5.495   0.400 -0.1508 -0.3338 -0.5536
 1805TIP3    H129610   3.055   5.484   0.326  1.9236 -0.0657  0.9667
 1805TIP3    H229611   3.036   5.565   0.452 -1.3574 -0.7285  0.9836
 1806TIP3   OH229612   7.294   6.338   9.815 -0.3616  0.8056 -0.3455
 1806TIP3    H129613   7.357   6.278   9.775 -0.5446 -0.1589  0.7675
 1806TIP3    H229614   7.342   6.378   9.888 -1.4043 -0.9879  1.3929
 1807TIP3   OH229615   1.019   7.437   7.442 -0.0136  0.0319 -0.4252
 1807TIP3    H129616   0.960   7.465   7.512  1.5524  1.1778  0.5047
 1807TIP3    H229617   1.104   7.472   7.468  1.1199 -1.7249 -1.6269
 1808TIP3   OH229618   3.222   6.375   7.763 -0.0231  0.2894 -0.9885
 1808TIP3    H129619   3.313   6.402   7.769 -0.0775  0.2600  0.0573
 1808TIP3    H229620   3.219   6.290   7.807 -0.6126  0.4224 -0.7595
 1809TIP3   OH229621   1.846   2.095   8.271  0.0319 -0.6396  0.0538
 1809TIP3    H129622   1.922   2.038   8.276 -0.9682 -2.0506 -0.2315
 1809TIP3    H229623   1.881   2.181   8.247  1.9033 -0.3748  3.2964
 1810TIP3   OH229624   1.293   4.681   0.057 -0.0509 -0.2376 -0.7861
 1810TIP3    H129625   1.268   4.773   0.046 -0.7898 -0.1723  1.0986
 1810TIP3    H229626   1.318   4.674   0.149  4.3858 -0.9409 -1.8209
 1811TIP3   OH229627   3.532   5.934   1.380 -0.2719 -0.0637 -0.4169
 1811TIP3    H129628   3.480   6.012   1.396 -1.2256 -0.2661 -2.2382
 1811TIP3    H229629   3.541   5.892   1.465  0.4018  2.0900  0.6370
 1812TIP3   OH229630   2.461   5.126   7.168 -0.0552  0.1938  0.1262
 1812TIP3    H129631   2.469   5.216   7.199 -0.2832 -0.2566  1.5689
 1812TIP3    H229632   2.372   5.099   7.194  0.2746 -0.6824  0.3953
 1813TIP3   OH229633   0.672   4.286   1.288 -0.2679 -0.7594  0.4180
 1813TIP3    H129634   0.582   4.255   1.296 -0.9142  0.8808 -0.0825
 1813TIP3    H229635   0.676   4.364   1.345  0.2685  0.3032 -1.0070
 1814TIP3   OH229636   1.893   0.378   8.525  0.1475  0.3503 -0.1576
 1814TIP3    H129637   1.820   0.435   8.550 -0.3299 -0.0754 -0.5626
 1814TIP3    H229638   1.946   0.432   8.467 -0.7997  0.1105 -1.2886
 1815TIP3   OH229639   4.284   4.042   0.741  0.7180  0.2489 -0.5141
 1815TIP3    H129640   4.247   3.956   0.721 -1.4959  1.0981 -0.3248
 1815TIP3    H229641   4.312   4.036   0.832  1.0769 -0.4250 -0.6658
 1816TIP3   OH229642   1.799   4.332   7.694 -0.1720  0.5785 -0.1787
 1816TIP3    H129643   1.748   4.351   7.773 -0.6587 -0.2568 -0.2803
 1816TIP3    H229644   1.765   4.249   7.662  0.8359  0.3093 -0.6105
 1817TIP3   OH229645   4.946   7.382   0.201  0.0628 -0.7822  0.6988
 1817TIP3    H129646   4.982   7.364   0.114  1.0591 -3.2439  1.5312
 1817TIP3    H229647   4.987   7.465   0.227 -0.5465  0.2112 -1.2629
 1818TIP3   OH229648   4.620   4.527   1.597 -1.0075  0.4138 -0.0167
 1818TIP3    H129649   4.690   4.462   1.599 -0.5291  0.9124 -0.2997
 1818TIP3    H229650   4.544   4.480   1.563 -0.6393  0.0206 -0.3028
 1819TIP3   OH229651   3.746   0.073   7.808  0.5007 -0.2834  0.1003
 1819TIP3    H129652   3.838   0.096   7.808  0.4787 -0.0923 -1.7445
 1819TIP3    H229653   3.709   0.122   7.882  1.8778 -0.4813  0.9504
 1820TIP3   OH229654   6.350   0.820   0.921 -0.7533  0.1617  0.1835
 1820TIP3    H129655   6.369   0.764   0.845 -0.6398  0.9891 -0.4193
 1820TIP3    H229656   6.429   0.873   0.931 -1.0059  0.4747  0.5058
 1821TIP3   OH229657   6.594   2.689   0.680  0.1449 -0.5638  0.1681
 1821TIP3    H129658   6.682   2.719   0.657 -0.1116  0.7955  0.8439
 1821TIP3    H229659   6.536   2.739   0.622 -0.2999  0.3679  1.3657
 1822TIP3   OH229660   1.531   3.598   1.735  0.2451  0.2774  0.1577
 1822TIP3    H129661   1.517   3.532   1.667 -0.1244  0.5908 -0.0773
 1822TIP3    H229662   1.566   3.549   1.810  1.7626  0.0821 -0.6246
 1823TIP3   OH229663   1.016   3.032   1.449  0.2744  0.2392 -0.0530
 1823TIP3    H129664   1.058   3.116   1.427  1.1714  0.0312  0.8100
 1823TIP3    H229665   1.060   2.968   1.393  1.0144  0.0469  0.7306
 1824TIP3   OH229666   2.606   3.873   1.645 -0.3000  0.6969 -0.6000
 1824TIP3    H129667   2.589   3.819   1.567 -0.9006  1.6059 -1.1237
 1824TIP3    H229668   2.691   3.843   1.676 -1.1523 -1.4212 -0.1192
 1825TIP3   OH229669   3.362   4.430   7.975  0.2561 -0.3158 -0.0952
 1825TIP3    H129670   3.302   4.496   7.939  3.8454  1.7102 -2.9780
 1825TIP3    H229671   3.399   4.471   8.053  0.0209 -0.3483  0.0342
 1826TIP3   OH229672   4.451   5.113   8.748 -0.2805  0.6447  0.5533
 1826TIP3    H129673   4.513   5.183   8.727  1.0387 -0.6624 -0.1380
 1826TIP3    H229674   4.392   5.110   8.672 -0.0164  0.6777  0.3432
 1827TIP3   OH229675   3.588   5.648   8.323  0.0736  0.4475  0.1256
 1827TIP3    H129676   3.599   5.652   8.418  0.6802  0.1152  0.0715
 1827TIP3    H229677   3.677   5.652   8.288 -0.2041  2.3567 -0.5020
 1828TIP3   OH229678   1.386   2.908   0.238  0.2276 -0.2211 -0.2080
 1828TIP3    H129679   1.403   2.818   0.210 -0.7522 -0.3533 -0.4110
 1828TIP3    H229680   1.458   2.929   0.297  0.0480 -1.4020  0.4499
 1829TIP3   OH229681   4.077   4.688   1.613  0.2303 -0.6056 -0.8502
 1829TIP3    H129682   4.032   4.615   1.569 -1.4379 -0.7791  0.9850
 1829TIP3    H229683   4.066   4.669   1.707 -0.5641  2.1596 -0.3062
 1830TIP3   OH229684   0.565   4.310   3.055  0.1849  0.4650  0.3600
 1830TIP3    H129685   0.520   4.276   2.977 -0.9577 -1.0002  1.5850
 1830TIP3    H229686   0.641   4.252   3.066 -0.0528  0.2188  0.7244
 1831TIP3   OH229687   4.181   1.598   9.571 -0.1225  0.2689  0.1087
 1831TIP3    H129688   4.220   1.537   9.508  0.2665  1.2839 -0.6731
 1831TIP3    H229689   4.254   1.625   9.627 -0.2813  0.0744  0.4135
 1832TIP3   OH229690   3.096   3.608   1.988  0.4721  0.6320  0.1475
 1832TIP3    H129691   3.092   3.525   2.036 -2.4706  0.4299 -0.2076
 1832TIP3    H229692   3.129   3.584   1.902  0.5354 -0.0108  0.3431
 1833TIP3   OH229693   4.255   6.673   9.859 -0.0486 -0.3421 -0.2411
 1833TIP3    H129694   4.282   6.596   9.809  1.1254  0.0995 -0.3266
 1833TIP3    H229695   4.160   6.674   9.853  0.0382  0.5558 -3.8854
 1834TIP3   OH229696   0.371   5.263   9.494  0.2910 -0.2561  0.3599
 1834TIP3    H129697   0.312   5.197   9.530 -0.0777  0.7043  1.5561
 1834TIP3    H229698   0.317   5.316   9.436  0.6405 -1.1091 -0.7961
 1835TIP3   OH229699   6.470   6.654   9.605 -0.0032 -0.0601  0.5031
 1835TIP3    H129700   6.446   6.563   9.621  0.3287 -0.0678  0.9814
 1835TIP3    H229701   6.511   6.653   9.519  1.6470 -0.6924  1.2600
 1836TIP3   OH229702   5.429   1.620   0.672 -0.3470 -0.5041 -0.1392
 1836TIP3    H129703   5.381   1.538   0.663  0.6895 -1.0694 -0.7491
 1836TIP3    H229704   5.512   1.604   0.627 -1.0355  1.6348 -2.4428
 1837TIP3   OH229705   0.622   0.978   2.862  0.2122  0.3595  0.6807
 1837TIP3    H129706   0.572   0.932   2.928 -0.5488  0.8212  0.4412
 1837TIP3    H229707   0.704   0.930   2.855 -0.8480 -1.4330 -0.1197
 1838TIP3   OH229708   4.481   1.734   9.079 -0.2032 -0.0993 -0.4816
 1838TIP3    H129709   4.522   1.767   9.159 -0.6336 -1.6126  0.3998
 1838TIP3    H229710   4.487   1.639   9.087 -1.2203 -0.2889 -1.7426
 1839TIP3   OH229711   2.924   4.870   1.834 -0.1329 -0.7137  0.3339
 1839TIP3    H129712   3.013   4.904   1.826  0.2045 -0.9736  2.3422
 1839TIP3    H229713   2.869   4.939   1.798  0.8500 -0.4402 -0.7154
 1840TIP3   OH229714   3.408   5.062   1.710 -0.0445 -0.1937 -0.6540
 1840TIP3    H129715   3.476   5.077   1.776  0.3497 -1.0983 -0.8466
 1840TIP3    H229716   3.450   5.088   1.627 -0.1953 -0.0261 -0.6781
 1841TIP3   OH229717   3.937   7.359   7.514  0.3708  0.3840 -0.1797
 1841TIP3    H129718   3.862   7.367   7.573  2.6267  1.1507  2.8222
 1841TIP3    H229719   3.946   7.446   7.474  0.0118  0.4491 -0.1183
 1842TIP3   OH229720   5.474   4.464   8.695 -0.4010  0.5371  0.2364
 1842TIP3    H129721   5.379   4.476   8.707 -0.3948  0.0563  0.8083
 1842TIP3    H229722   5.488   4.370   8.705  0.2825  0.7347  1.3375
 1843TIP3   OH229723   5.823   5.638   1.164 -0.5549 -0.1351 -0.3025
 1843TIP3    H129724   5.871   5.678   1.092 -0.1585  1.9658  1.0323
 1843TIP3    H229725   5.740   5.686   1.168 -0.8769 -0.7115  0.1916
 1844TIP3   OH229726   5.618   3.703   8.532  0.2450  0.2319 -0.1689
 1844TIP3    H129727   5.681   3.774   8.547 -1.6272  1.5280  2.2550
 1844TIP3    H229728   5.641   3.638   8.598  0.1632 -0.1114 -0.4817
 1845TIP3   OH229729   6.629   3.819   9.533  0.0965 -0.1981  0.3800
 1845TIP3    H129730   6.647   3.765   9.609  1.7829 -0.5737 -0.2382
 1845TIP3    H229731   6.538   3.847   9.544  0.2011 -0.4756  2.3631
 1846TIP3   OH229732   7.234   1.563   7.052  0.1536 -0.2138  0.2850
 1846TIP3    H129733   7.248   1.488   7.111  2.4699 -0.9074 -1.0381
 1846TIP3    H229734   7.297   1.550   6.981 -1.2917  1.5690 -1.4231
 1847TIP3   OH229735   2.805   0.075   7.741  0.0391 -0.0997  0.2713
 1847TIP3    H129736   2.879   0.046   7.793 -0.8095 -1.0585  0.9915
 1847TIP3    H229737   2.788   0.164   7.770  1.0611  0.2198 -0.0938
 1848TIP3   OH229738   2.997   3.478   8.851  0.2415  0.0368  0.5329
 1848TIP3    H129739   3.073   3.436   8.893  0.9191  1.3697  0.6892
 1848TIP3    H229740   2.926   3.414   8.861  1.1679 -0.9583  0.9792
 1849TIP3   OH229741   0.712   5.490   9.520 -0.0437  0.4609  0.0739
 1849TIP3    H129742   0.801   5.459   9.501  0.4863  2.5959 -1.4253
 1849TIP3    H229743   0.669   5.493   9.434  0.0682  3.8945  0.0027
 1850TIP3   OH229744   1.560   3.896   7.586  0.8752 -0.2333 -0.3363
 1850TIP3    H129745   1.570   3.824   7.523  1.1986 -0.6816  0.2119
 1850TIP3    H229746   1.570   3.854   7.671 -1.0513  0.1000  0.1017
 1851TIP3   OH229747   2.625   0.500   8.225 -0.2035 -0.0173  0.8146
 1851TIP3    H129748   2.570   0.429   8.190  0.6988  0.0589 -0.9068
 1851TIP3    H229749   2.579   0.580   8.200  1.0147  0.0743 -1.4157
 1852TIP3   OH229750   6.414   4.698   8.477 -0.1481 -0.2403 -0.2113
 1852TIP3    H129751   6.474   4.632   8.442 -0.0954 -0.4506  0.2708
 1852TIP3    H229752   6.451   4.781   8.449 -0.4835 -0.4205 -1.2576
 1853TIP3   OH229753   5.406   5.929   1.724  0.1086 -0.4238 -0.0370
 1853TIP3    H129754   5.395   5.834   1.726 -0.5494 -0.3526 -0.0766
 1853TIP3    H229755   5.491   5.942   1.683  0.7352 -1.0256  1.0276
 1854TIP3   OH229756   4.917   3.971   0.728 -0.1055 -0.5584  0.2127
 1854TIP3    H129757   4.850   4.002   0.667  1.1432  2.1065  0.0581
 1854TIP3    H229758   4.941   3.884   0.695 -1.1103 -0.1627 -1.6924
 1855TIP3   OH229759   5.245   0.324   2.535 -0.5545 -0.3996  0.1329
 1855TIP3    H129760   5.266   0.411   2.569 -0.8433  0.7099 -2.3152
 1855TIP3    H229761   5.329   0.278   2.532  0.2895  1.1393 -1.9943
 1856TIP3   OH229762   1.130   2.828   1.293 -0.1520  0.2287  0.1270
 1856TIP3    H129763   1.167   2.797   1.210 -0.7428  1.0377 -0.4504
 1856TIP3    H229764   1.046   2.783   1.300 -0.1760  0.2861  0.2100
 1857TIP3   OH229765   3.310   2.780   8.490 -0.2926 -0.3143  0.0664
 1857TIP3    H129766   3.329   2.697   8.535  0.2912 -0.9003 -1.1949
 1857TIP3    H229767   3.385   2.793   8.432  0.2724  1.7914  1.1617
 1858TIP3   OH229768   7.443   6.291   8.412 -0.4675 -0.3246 -0.5282
 1858TIP3    H129769   7.424   6.197   8.410 -2.1202 -0.0766  0.7883
 1858TIP3    H229770   7.363   6.333   8.380 -0.1222  0.6711 -0.1437
 1859TIP3   OH229771   6.902   2.101   8.355 -0.2052  0.0360 -0.9164
 1859TIP3    H129772   6.922   2.031   8.418  1.2722 -0.1083 -1.5151
 1859TIP3    H229773   6.808   2.114   8.364 -0.2795 -1.0427  0.2301
 1860TIP3   OH229774   6.302   0.610   9.099 -0.8525  0.8551  0.3842
 1860TIP3    H129775   6.383   0.635   9.143 -0.7986 -2.0711  2.2347
 1860TIP3    H229776   6.232   0.634   9.160 -0.9687 -0.9090  0.9971
 1861TIP3   OH229777   2.274   6.154   1.202 -0.2834  0.7231  0.3351
 1861TIP3    H129778   2.186   6.138   1.237 -0.5651 -0.7370 -0.9419
 1861TIP3    H229779   2.327   6.175   1.279 -1.4283  0.1802  1.2999
 1862TIP3   OH229780   6.727   3.367   0.391 -0.6156 -0.2645  0.2100
 1862TIP3    H129781   6.663   3.337   0.326 -0.0072 -0.9141 -0.1021
 1862TIP3    H229782   6.806   3.384   0.341 -0.4364  0.2101  0.6454
 1863TIP3   OH229783   0.634   2.726   9.688  0.2862 -0.2756  0.1032
 1863TIP3    H129784   0.616   2.792   9.755  1.0789 -1.2466  1.3099
 1863TIP3    H229785   0.727   2.709   9.695 -0.1763 -2.8207  1.1018
 1864TIP3   OH229786   3.260   6.798   1.677 -0.3506 -0.2018 -0.3120
 1864TIP3    H129787   3.322   6.836   1.614  0.7498 -0.8346  0.3506
 1864TIP3    H229788   3.219   6.726   1.630 -0.4293  0.0859 -0.6912
 1865TIP3   OH229789   2.909   1.353   7.851  0.4199 -0.4291  0.7578
 1865TIP3    H129790   2.860   1.274   7.871  0.1902 -0.5895 -0.3744
 1865TIP3    H229791   2.988   1.322   7.807  0.0985 -0.0215 -0.1327
 1866TIP3   OH229792   6.797   3.756   8.910  0.1518 -0.3559 -0.5518
 1866TIP3    H129793   6.867   3.813   8.878  0.2570 -0.1377  0.0618
 1866TIP3    H229794   6.729   3.761   8.842 -0.2732  1.2920 -0.0714
 1867TIP3   OH229795   1.024   5.751   9.992  0.7742  0.4590  0.2371
 1867TIP3    H129796   0.997   5.670   9.949  0.3938  0.4081  0.5768
 1867TIP3    H229797   1.059   5.805   9.920  0.8551  0.0726 -0.0170
 1868TIP3   OH229798   1.006   4.357   9.157 -0.1243 -0.1523  0.0642
 1868TIP3    H129799   1.055   4.360   9.240  0.4917  0.8955 -0.3243
 1868TIP3    H229800   0.914   4.353   9.184 -0.0390  1.9996  0.8199
 1869TIP3   OH229801   3.980   1.552   2.581  0.4795 -0.2000 -0.8545
 1869TIP3    H129802   3.982   1.646   2.598  0.4595 -0.4520  0.7209
 1869TIP3    H229803   3.929   1.516   2.653  1.9813 -1.5978 -0.4229
 1870TIP3   OH229804   4.997   4.358   0.107  0.0355  0.4975  0.5346
 1870TIP3    H129805   4.974   4.404   0.027  2.4018  0.5422 -0.2190
 1870TIP3    H229806   5.054   4.419   0.154  0.2906 -0.2900  1.2736
 1871TIP3   OH229807   3.094   3.977   9.811 -0.2140 -0.0190  0.1510
 1871TIP3    H129808   3.175   3.976   9.863 -0.0347  1.6747 -0.0391
 1871TIP3    H229809   3.124   3.991   9.721 -0.6691 -0.5402 -0.0852
 1872TIP3   OH229810   2.083   1.197   8.315 -0.1051 -0.8519  0.2631
 1872TIP3    H129811   2.131   1.116   8.298  0.7643  0.1083 -2.3517
 1872TIP3    H229812   2.148   1.255   8.355 -0.3668 -1.0029  0.9177
 1873TIP3   OH229813   5.689   3.252   9.841  0.3541 -0.7315  0.2682
 1873TIP3    H129814   5.608   3.301   9.857 -0.0523 -0.8549 -1.2100
 1873TIP3    H229815   5.664   3.160   9.853  0.2392 -0.7739 -0.2492
 1874TIP3   OH229816   7.186   6.978   8.461 -0.4565 -0.3140  0.0218
 1874TIP3    H129817   7.092   6.966   8.478 -0.5020 -0.0432 -0.0295
 1874TIP3    H229818   7.229   6.942   8.538 -0.5946 -0.6215 -0.0427
 1875TIP3   OH229819   3.967   3.731   1.834 -0.2598 -0.0794  0.3878
 1875TIP3    H129820   3.950   3.678   1.911 -0.6720 -0.3970  0.0831
 1875TIP3    H229821   3.959   3.821   1.865  2.3334 -0.1007  1.3547
 1876TIP3   OH229822   1.153   6.821   1.984  0.4056 -0.3286 -0.3537
 1876TIP3    H129823   1.099   6.804   1.907 -0.0022  0.4439 -0.2407
 1876TIP3    H229824   1.104   6.886   2.035  1.0455 -0.2359  0.1604
 1877TIP3   OH229825   7.269   6.026   8.160  0.5786  0.4696 -0.3230
 1877TIP3    H129826   7.305   5.987   8.240  2.4967 -1.3831 -1.9810
 1877TIP3    H229827   7.174   6.022   8.173  0.7836 -1.4954  1.1102
 1878TIP3   OH229828   0.106   4.239   7.277  0.2221 -0.6056  0.2144
 1878TIP3    H129829   0.122   4.163   7.333  0.4074  0.3119  1.4603
 1878TIP3    H229830   0.178   4.238   7.214  0.6919 -0.9890  0.7433
 1879TIP3   OH229831   4.948   3.399   8.388 -0.5714 -0.6493  0.1005
 1879TIP3    H129832   4.923   3.451   8.465 -0.4961  1.1111 -0.9957
 1879TIP3    H229833   5.017   3.341   8.420 -0.2163  0.3662  1.2612
 1880TIP3   OH229834   4.363   1.305   2.287 -0.0497  0.1443 -0.0466
 1880TIP3    H129835   4.412   1.323   2.368  0.7224  0.6968 -0.6166
 1880TIP3    H229836   4.273   1.327   2.308  0.4407  2.2677  0.1031
 1881TIP3   OH229837   1.018   6.169   8.191  0.2683 -0.2651  0.2055
 1881TIP3    H129838   1.044   6.136   8.278  0.6500  0.4740  0.3733
 1881TIP3    H229839   1.091   6.224   8.163 -0.3998  0.5159 -0.0368
 1882TIP3   OH229840   4.166   4.112   8.542  0.1915  0.3328  0.1858
 1882TIP3    H129841   4.098   4.116   8.609  1.2900  1.4041  1.2732
 1882TIP3    H229842   4.247   4.134   8.588  1.2573 -0.6408 -1.1321
 1883TIP3   OH229843   5.085   2.681   8.877  0.1404 -0.6968 -0.3597
 1883TIP3    H129844   5.123   2.594   8.867  0.3512 -0.8408  1.3332
 1883TIP3    H229845   5.157   2.735   8.910 -0.5935 -0.5144  1.0373
 1884TIP3   OH229846   5.721   6.646   8.046  0.3576  0.3251  0.4693
 1884TIP3    H129847   5.722   6.687   7.959  1.2658 -0.4022  0.1276
 1884TIP3    H229848   5.663   6.570   8.035  0.5637  0.1679  0.4632
 1885TIP3   OH229849   6.841   7.426   8.735 -0.5867 -0.3288 -0.1009
 1885TIP3    H129850   6.809   7.517   8.738 -0.6440 -0.3724  1.1892
 1885TIP3    H229851   6.917   7.430   8.677 -0.7659  0.4855 -0.3066
 1886TIP3   OH229852   5.459   0.470   7.511  0.1661  0.2800 -0.0593
 1886TIP3    H129853   5.503   0.474   7.426 -0.8344  0.1637 -0.5914
 1886TIP3    H229854   5.413   0.553   7.518 -0.5458 -0.1117 -0.0709
 1887TIP3   OH229855   5.852   4.123   9.023  0.4785  0.4738 -0.0339
 1887TIP3    H129856   5.780   4.162   9.072 -1.7469 -2.7048 -0.4959
 1887TIP3    H229857   5.817   4.108   8.935  1.9586 -0.4449 -0.5211
 1888TIP3   OH229858   5.071   3.276   1.807 -0.3293 -0.4204  0.8231
 1888TIP3    H129859   5.090   3.212   1.876 -0.8661 -1.0828  0.3668
 1888TIP3    H229860   5.010   3.231   1.748  0.7657 -0.1800 -0.5533
 1889TIP3   OH229861   1.965   0.071   8.994 -0.3408  0.2171 -0.0314
 1889TIP3    H129862   1.996   0.007   8.929 -1.0692 -0.4989  0.3054
 1889TIP3    H229863   2.020   0.054   9.071 -1.1307 -0.6440  0.3639
 1890TIP3   OH229864   0.831   3.179   2.502 -0.3886 -0.2196 -0.0567
 1890TIP3    H129865   0.810   3.140   2.587 -2.0183  1.4750  0.3911
 1890TIP3    H229866   0.765   3.145   2.443 -0.2003 -0.1890 -0.2859
 1891TIP3   OH229867   2.546   2.083   7.387  0.1371 -0.1471  0.1690
 1891TIP3    H129868   2.608   2.135   7.335 -0.7862  0.4183 -0.3883
 1891TIP3    H229869   2.578   1.994   7.380  0.5312  0.0483 -0.6433
 1892TIP3   OH229870   2.211   2.361   8.769  0.3582 -0.0020  0.5907
 1892TIP3    H129871   2.230   2.373   8.675 -0.6137 -0.1610  0.3642
 1892TIP3    H229872   2.170   2.275   8.774  0.9475 -0.2458  1.2516
 1893TIP3   OH229873   3.002   2.464   1.892  0.4897  0.3503 -0.2760
 1893TIP3    H129874   2.909   2.457   1.910  0.4916 -0.5801 -0.5943
 1893TIP3    H229875   3.041   2.386   1.933  0.9240 -0.0552 -1.4050
 1894TIP3   OH229876   3.606   3.640   0.645  0.2542  0.8540  0.5373
 1894TIP3    H129877   3.593   3.690   0.564 -2.1918  0.8339  0.8494
 1894TIP3    H229878   3.589   3.703   0.715 -0.1078  0.2556  0.9877
 1895TIP3   OH229879   6.943   3.199   0.226  0.2102 -0.1911  0.3302
 1895TIP3    H129880   6.972   3.273   0.281 -1.9084  0.4247  0.7061
 1895TIP3    H229881   6.966   3.225   0.137  0.1272  0.6211  0.5340
 1896TIP3   OH229882   2.147   2.301   1.819 -0.2326 -0.0699  0.4526
 1896TIP3    H129883   2.086   2.358   1.771 -0.0014  2.2637  2.7338
 1896TIP3    H229884   2.090   2.247   1.874 -0.3409 -0.0544  0.3579
 1897TIP3   OH229885   3.969   5.601   7.999  0.3253  0.1130 -0.3847
 1897TIP3    H129886   3.933   5.629   7.915 -1.3944 -1.7383 -0.3531
 1897TIP3    H229887   4.061   5.626   7.996 -0.1614  1.9366 -1.9381
 1898TIP3   OH229888   4.375   3.616   1.594  0.1373 -0.2327 -0.1652
 1898TIP3    H129889   4.444   3.673   1.562 -0.1011  0.0130 -0.2425
 1898TIP3    H229890   4.293   3.661   1.570 -0.0537 -0.7081 -0.4266
 1899TIP3   OH229891   1.564   6.313   0.331 -0.1247 -0.2793  0.0936
 1899TIP3    H129892   1.489   6.286   0.279 -0.3651  1.3760 -0.4630
 1899TIP3    H229893   1.527   6.341   0.415 -0.0692  0.0156  0.0200
 1900TIP3   OH229894   5.775   1.828   9.063  0.2077  0.2390 -0.2250
 1900TIP3    H129895   5.727   1.816   9.145  0.2761 -0.4847 -0.2865
 1900TIP3    H229896   5.857   1.870   9.089  1.0849 -1.7225  0.3508
 1901TIP3   OH229897   2.511   5.000   9.057  0.3234 -1.0071  1.0451
 1901TIP3    H129898   2.427   4.985   9.013  1.2869 -2.2564 -0.4749
 1901TIP3    H229899   2.489   5.054   9.133 -1.6119  0.1616 -0.2596
 1902TIP3   OH229900   0.241   4.424   7.099 -0.3166  0.8329  0.1171
 1902TIP3    H129901   0.193   4.502   7.128 -0.2139  0.7031  0.6435
 1902TIP3    H229902   0.293   4.397   7.175  2.2007  2.1552 -0.9857
 1903TIP3   OH229903   3.304   6.140   9.670 -0.3755 -0.2160 -0.1350
 1903TIP3    H129904   3.281   6.086   9.745  0.0179 -0.0860  0.0834
 1903TIP3    H229905   3.341   6.220   9.708 -0.7188  0.0999 -0.4565
 1904TIP3   OH229906   1.209   1.317   9.802  0.2568  0.4073  0.0042
 1904TIP3    H129907   1.265   1.244   9.778  0.5533  0.7349 -0.3186
 1904TIP3    H229908   1.188   1.360   9.720 -0.8807  0.0101  0.0722
 1905TIP3   OH229909   7.328   2.843   2.673  0.1523 -0.2554 -0.4039
 1905TIP3    H129910   7.404   2.898   2.689 -0.5087  0.3423  0.7775
 1905TIP3    H229911   7.362   2.753   2.679  0.4509 -0.0328  1.9020
 1906TIP3   OH229912   1.744   2.681   7.582  0.2277 -0.2460  0.7569
 1906TIP3    H129913   1.834   2.648   7.573  0.5328  0.9792 -1.4572
 1906TIP3    H229914   1.754   2.775   7.596 -0.7049 -0.0790  0.3607
 1907TIP3   OH229915   2.684   3.183   9.622  0.0818 -0.2107 -0.1803
 1907TIP3    H129916   2.777   3.167   9.607 -0.0831 -0.1499 -1.3733
 1907TIP3    H229917   2.673   3.174   9.717  1.2618 -0.3957 -0.0448
 1908TIP3   OH229918   6.362   0.835   7.886  0.1471 -0.4476 -0.6488
 1908TIP3    H129919   6.333   0.774   7.819 -0.7658 -0.3339 -0.3810
 1908TIP3    H229920   6.349   0.922   7.847  0.4804 -0.4047 -0.6630
 1909TIP3   OH229921   1.175   6.118   7.319 -0.4176 -1.0874  0.2366
 1909TIP3    H129922   1.209   6.074   7.397  1.2436 -2.3543 -1.1278
 1909TIP3    H229923   1.247   6.175   7.291 -1.7259  0.8881  0.7073
 1910TIP3   OH229924   3.205   2.219   9.476  0.2783 -0.0215 -0.3897
 1910TIP3    H129925   3.216   2.132   9.437 -0.2361 -0.1284 -0.3045
 1910TIP3    H229926   3.124   2.252   9.436 -0.4051 -0.2365  0.7614
 1911TIP3   OH229927   3.063   7.301   0.189 -0.2090  0.4548 -0.6088
 1911TIP3    H129928   3.105   7.348   0.261 -0.7962 -1.1762  0.8528
 1911TIP3    H229929   3.118   7.225   0.175 -0.4057  0.4759 -1.5375
 1912TIP3   OH229930   7.134   5.749   8.691 -0.0192  0.2059 -0.2711
 1912TIP3    H129931   7.132   5.664   8.734 -0.6428 -0.5188 -1.7011
 1912TIP3    H229932   7.075   5.804   8.744 -0.6231 -0.6151 -0.0760
 1913TIP3   OH229933   6.030   5.029   7.970  0.3873  0.3568 -0.3171
 1913TIP3    H129934   6.014   5.085   7.894 -0.0969  0.6569 -0.0027
 1913TIP3    H229935   6.003   5.083   8.045 -2.3688 -1.1076 -0.1323
 1914TIP3   OH229936   2.851   4.238   7.084 -1.0418 -0.0730  0.5670
 1914TIP3    H129937   2.875   4.246   6.992 -0.8930  2.2235  0.7468
 1914TIP3    H229938   2.869   4.324   7.121 -2.8933 -0.3684  2.3279
 1915TIP3   OH229939   2.014   2.890   0.209  0.7784  0.2839  0.7086
 1915TIP3    H129940   1.997   2.919   0.120  0.3464 -0.1545  0.6453
 1915TIP3    H229941   2.023   2.971   0.259 -3.4401  0.7131  1.1414
 1916TIP3   OH229942   4.763   4.378   0.276  0.1120 -0.0409 -0.0623
 1916TIP3    H129943   4.756   4.301   0.331  0.1381  0.5186  0.7386
 1916TIP3    H229944   4.849   4.415   0.297  0.3616 -0.1191 -0.8847
 1917TIP3   OH229945   0.150   2.034   0.297 -0.1632  0.2408 -0.1214
 1917TIP3    H129946   0.101   1.953   0.281 -0.7356  0.8640 -1.6702
 1917TIP3    H229947   0.122   2.062   0.384 -0.3151 -0.9652  0.2339
 1918TIP3   OH229948   5.856   6.514   9.911  0.3333  0.5642 -0.2159
 1918TIP3    H129949   5.948   6.504   9.935  0.1702  0.4594  0.3814
 1918TIP3    H229950   5.849   6.605   9.882  0.6393  0.5495 -0.3389
 1919TIP3   OH229951   4.154   3.985   1.098 -0.1913  0.1408 -0.3051
 1919TIP3    H129952   4.194   3.939   1.172 -2.0975 -0.8009  0.2103
 1919TIP3    H229953   4.225   3.994   1.034  0.8987 -1.1777  0.6472
 1920TIP3   OH229954   5.021   7.067   7.442  0.4073  0.2085  0.0713
 1920TIP3    H129955   5.098   7.015   7.418 -0.4623 -1.1484  0.1269
 1920TIP3    H229956   5.021   7.066   7.538 -1.8569 -3.3542  0.2417
 1921TIP3   OH229957   4.895   2.465   0.016 -0.0028 -0.1170  0.1227
 1921TIP3    H129958   4.822   2.487   0.073 -0.0393 -1.7306  0.7426
 1921TIP3    H229959   4.958   2.536   0.029 -0.0801 -0.3526  2.0563
 1922TIP3   OH229960   4.344   0.980   7.900  0.4285  0.1182  0.0445
 1922TIP3    H129961   4.334   0.994   7.806  0.9763 -0.2842 -0.0742
 1922TIP3    H229962   4.293   1.051   7.940  0.3937  0.4338 -0.5502
 1923TIP3   OH229963   6.274   7.078   2.298 -0.0529  0.9084 -0.8900
 1923TIP3    H129964   6.218   7.001   2.292  0.1141  0.7535 -0.5059
 1923TIP3    H229965   6.216   7.151   2.275 -0.9639  0.9681  1.3528
 1924TIP3   OH229966   3.088   5.853   0.198 -0.5340  0.7152 -0.0399
 1924TIP3    H129967   3.125   5.844   0.286 -1.5907  0.6758  0.4187
 1924TIP3    H229968   3.100   5.945   0.175  1.7161  0.3017 -0.7880
 1925TIP3   OH229969   3.049   5.851   0.737 -0.2810 -0.2271  0.4319
 1925TIP3    H129970   3.000   5.932   0.727  0.1725  0.0172  0.1832
 1925TIP3    H229971   3.099   5.862   0.818  0.8294  0.3023 -0.3005
 1926TIP3   OH229972   5.165   7.227   2.293  0.6804 -0.1202 -0.3356
 1926TIP3    H129973   5.137   7.142   2.259  2.5605 -1.5039  1.3780
 1926TIP3    H229974   5.100   7.248   2.361  0.9585 -0.8680  0.1732
 1927TIP3   OH229975   6.056   1.622   8.809  0.3648  0.7223 -0.1193
 1927TIP3    H129976   6.120   1.627   8.880 -0.1007 -0.2594  0.3839
 1927TIP3    H229977   5.972   1.608   8.852 -0.0394  0.8886 -0.8296
 1928TIP3   OH229978   2.101   0.211   6.614  0.1867 -0.1014  0.1276
 1928TIP3    H129979   2.063   0.140   6.562  0.0675 -0.6771  0.9947
 1928TIP3    H229980   2.045   0.217   6.691 -0.6607  1.8880 -0.5691
 1929TIP3   OH229981   4.150   3.665   0.567  0.1761 -0.5114  0.1992
 1929TIP3    H129982   4.153   3.575   0.537  1.4081 -0.3571 -0.2250
 1929TIP3    H229983   4.193   3.715   0.497 -3.1544  0.8724 -1.0480
 1930TIP3   OH229984   6.027   1.710   0.644  0.3576  0.0841 -0.2772
 1930TIP3    H129985   6.041   1.693   0.737  0.2085 -0.9501 -0.4329
 1930TIP3    H229986   6.096   1.772   0.620  0.9395 -0.3246  0.3298
 1931TIP3   OH229987   1.497   0.376   7.996 -0.3389 -0.3623 -0.0402
 1931TIP3    H129988   1.511   0.292   8.039 -0.5282 -0.3500  0.0466
 1931TIP3    H229989   1.425   0.416   8.045 -0.7769 -0.4855 -0.5673
 1932TIP3   OH229990   1.348   7.221   1.814  0.3391  0.5389 -0.3794
 1932TIP3    H129991   1.259   7.209   1.850 -0.2458  1.9484 -1.2699
 1932TIP3    H229992   1.385   7.133   1.814 -0.8884 -0.0232  0.4380
 1933TIP3   OH229993   3.416   4.104   0.251 -0.1861  0.5122  0.2135
 1933TIP3    H129994   3.408   4.187   0.297  0.7049 -0.0733  1.5060
 1933TIP3    H229995   3.396   4.124   0.160 -0.0435  2.1192  0.5121
 1934TIP3   OH229996   2.081   6.113   0.975  0.2399  0.1812  0.3907
 1934TIP3    H129997   2.079   6.146   0.885 -0.4925  0.2327  0.4219
 1934TIP3    H229998   2.103   6.190   1.028  0.1932  0.2566  0.3007
 1935TIP3   OH229999   3.614   0.078   6.933 -0.1242  0.3055  0.0373
 1935TIP3    H130000   3.667  -0.000   6.950  0.3263  0.5255 -0.3366
 1935TIP3    H230001   3.646   0.142   6.997 -0.7995  0.0513  0.6426
 1936TIP3   OH230002   4.596   5.104   7.773  0.1896  0.3027  0.5090
 1936TIP3    H130003   4.604   5.009   7.781 -1.1565  0.1982  0.8328
 1936TIP3    H230004   4.559   5.117   7.685  1.1044  0.5822  0.1582
 1937TIP3   OH230005   0.867   3.149   0.278  0.6510  0.1682 -0.4751
 1937TIP3    H130006   0.920   3.071   0.292  0.9073  0.5184  0.6167
 1937TIP3    H230007   0.778   3.124   0.304  0.6724  0.1612 -0.4108
 1938TIP3   OH230008   4.523   1.490   1.487  0.1073  0.0278  0.0088
 1938TIP3    H130009   4.504   1.580   1.516  1.2843  0.3731 -0.2447
 1938TIP3    H230010   4.562   1.448   1.563 -0.5741 -0.3221  0.1712
 1939TIP3   OH230011   1.981   3.998   8.626  0.1418 -0.0824 -0.7372
 1939TIP3    H130012   2.009   3.971   8.538 -1.0444 -0.1126 -1.1287
 1939TIP3    H230013   2.061   4.028   8.668  0.9596 -1.2729 -1.3774
 1940TIP3   OH230014   2.632   0.494   9.196  0.2481  0.1231  0.3037
 1940TIP3    H130015   2.639   0.399   9.189 -0.6658  0.1658 -1.9001
 1940TIP3    H230016   2.672   0.515   9.281  1.5160 -2.0969  0.3259
 1941TIP3   OH230017   4.912   1.942   7.884 -0.5277  0.1953  0.3544
 1941TIP3    H130018   4.972   1.947   7.810 -1.3498  1.8516 -0.2369
 1941TIP3    H230019   4.949   1.873   7.940 -0.0980 -1.3584 -1.7339
 1942TIP3   OH230020   5.570   2.027   9.645 -0.2307 -0.2127  0.4998
 1942TIP3    H130021   5.599   1.965   9.578 -0.7465 -1.1764  1.1576
 1942TIP3    H230022   5.572   1.978   9.727  1.3469  1.2076  1.3917
 1943TIP3   OH230023   3.532   2.187   1.835 -0.0297  0.4992  0.6481
 1943TIP3    H130024   3.594   2.119   1.862  1.9742  1.8090 -0.4390
 1943TIP3    H230025   3.489   2.151   1.757 -1.0117 -0.5818  1.6446
 1944TIP3   OH230026   3.187   0.471   0.830 -0.4344 -0.1188 -0.3629
 1944TIP3    H130027   3.140   0.450   0.911 -1.4306 -1.0790 -1.1481
 1944TIP3    H230028   3.207   0.564   0.837 -0.4009 -0.2101  1.0338
 1945TIP3   OH230029   5.954   6.387   1.250  0.0709 -0.2376 -0.2033
 1945TIP3    H130030   5.896   6.403   1.176  0.5219 -0.8220 -0.6854
 1945TIP3    H230031   6.020   6.326   1.217  0.9932  0.4488  0.3142
 1946TIP3   OH230032   6.958   0.110   9.390 -0.4305 -0.3197 -0.2658
 1946TIP3    H130033   6.968   0.201   9.363  0.7699 -0.5644 -0.6874
 1946TIP3    H230034   6.947   0.114   9.485 -0.3157  0.2594 -0.2733
 1947TIP3   OH230035   7.211   6.247   0.187  0.2486  0.1302  0.2133
 1947TIP3    H130036   7.215   6.191   0.265  0.4187 -0.7058 -0.3887
 1947TIP3    H230037   7.285   6.218   0.133  0.6429  1.2694  0.1087
 1948TIP3   OH230038   4.303   7.171   1.520  0.6478  0.3722 -0.8717
 1948TIP3    H130039   4.248   7.247   1.503 -0.5956 -0.4606 -0.6833
 1948TIP3    H230040   4.334   7.183   1.610 -1.0463 -0.2219 -0.1694
 1949TIP3   OH230041   3.825   1.988   0.843  0.1529  0.5714 -0.2300
 1949TIP3    H130042   3.844   2.031   0.759  0.0198 -0.8836 -1.0424
 1949TIP3    H230043   3.755   1.926   0.823 -1.3407  1.6469  1.4386
 1950TIP3   OH230044   0.011   0.997   1.074  0.3274 -0.1215 -0.1091
 1950TIP3    H130045  -0.008   0.988   1.167 -0.6647 -1.8105 -0.4333
 1950TIP3    H230046  -0.074   1.009   1.032  0.5070 -1.5682 -0.9786
 1951TIP3   OH230047   1.927   6.513   1.620 -0.0255 -0.0612 -0.2655
 1951TIP3    H130048   1.969   6.595   1.592  1.8300 -1.3246 -1.4763
 1951TIP3    H230049   1.982   6.481   1.691 -1.6683  0.4721  1.3201
 1952TIP3   OH230050   0.934   6.401   8.706 -0.0085 -0.1064  0.0726
 1952TIP3    H130051   0.859   6.366   8.755  0.4749 -2.8906 -1.0336
 1952TIP3    H230052   0.900   6.481   8.666 -2.0985 -0.7594  0.4000
 1953TIP3   OH230053   5.472   0.722   1.389  0.2530 -0.5850  0.1606
 1953TIP3    H130054   5.415   0.739   1.314 -0.1367 -1.5414  0.2355
 1953TIP3    H230055   5.412   0.722   1.464  0.5016 -0.5953  0.3574
 1954TIP3   OH230056   5.573   6.396   9.695 -0.4663  0.0970 -0.2262
 1954TIP3    H130057   5.564   6.390   9.790  3.1576 -0.3603  0.2110
 1954TIP3    H230058   5.627   6.474   9.681 -0.7862  0.0583 -1.9212
 1955TIP3   OH230059   5.972   1.453   7.989  0.0510 -0.3084 -0.1662
 1955TIP3    H130060   5.925   1.528   8.023  2.3184  0.1591  2.2127
 1955TIP3    H230061   6.055   1.489   7.956  1.0216 -1.6690  0.6871
 1956TIP3   OH230062   7.166   3.280   8.910 -0.5303 -0.2028 -0.2184
 1956TIP3    H130063   7.234   3.216   8.928 -0.5937 -0.0722  0.5340
 1956TIP3    H230064   7.119   3.288   8.993 -0.5178  0.8177 -0.3007
 1957TIP3   OH230065   6.096   1.651   1.348 -0.6151  0.4239  0.0280
 1957TIP3    H130066   6.077   1.625   1.439  2.5612 -0.3106  0.5849
 1957TIP3    H230067   6.116   1.569   1.303  3.2887  1.1250  0.1784
 1958TIP3   OH230068   5.937   6.221   8.537 -0.4792 -0.1829  0.1855
 1958TIP3    H130069   5.939   6.129   8.562 -0.9749 -0.4258 -0.6280
 1958TIP3    H230070   5.844   6.244   8.537 -0.3680  0.2928  0.2858
 1959TIP3   OH230071   5.868   0.615   9.100 -0.1085  0.0530 -0.4128
 1959TIP3    H130072   5.941   0.616   9.162 -0.6864 -0.2748  0.2788
 1959TIP3    H230073   5.905   0.653   9.020  0.9431 -0.4953 -0.2138
 1960TIP3   OH230074   0.230   2.414   9.939  0.0451  0.0311 -0.1072
 1960TIP3    H130075   0.196   2.433   9.852 -0.8073 -0.3079  0.1447
 1960TIP3    H230076   0.217   2.495   9.988  1.1388  0.4428 -0.4688
 1961TIP3   OH230077   1.616   4.139   2.655  0.5669  0.0072  0.0435
 1961TIP3    H130078   1.615   4.182   2.741 -0.9258 -1.4187  0.7864
 1961TIP3    H230079   1.526   4.146   2.623  1.0702  0.3846 -1.3630
 1962TIP3   OH230080   4.886   3.969   2.256  0.1133  0.1949  0.2367
 1962TIP3    H130081   4.795   3.996   2.269 -0.3613 -0.8729 -0.6949
 1962TIP3    H230082   4.917   3.946   2.344 -0.9117 -0.5847  0.4132
 1963TIP3   OH230083   0.972   0.177   0.232 -0.3278  0.3424  0.1070
 1963TIP3    H130084   0.996   0.249   0.174 -0.3256  0.2205 -0.0430
 1963TIP3    H230085   1.039   0.180   0.301 -0.1252  0.2719 -0.0824
 1964TIP3   OH230086   0.513   2.233   0.214 -0.0746 -0.4314 -0.3979
 1964TIP3    H130087   0.455   2.301   0.248 -0.4987 -1.6092  1.4222
 1964TIP3    H230088   0.500   2.234   0.119 -1.0044  1.1400 -0.2819
 1965TIP3   OH230089   1.749   2.345   7.526 -0.2081 -0.8175 -0.0183
 1965TIP3    H130090   1.665   2.300   7.535 -0.8785  0.4296  0.1596
 1965TIP3    H230091   1.735   2.431   7.565 -0.2322  1.1551 -3.9318
 1966TIP3   OH230092   6.985   1.920   0.215  0.1996 -0.7576  0.1388
 1966TIP3    H130093   6.967   1.861   0.289 -0.1432 -1.7708 -0.7158
 1966TIP3    H230094   7.080   1.927   0.213  0.3201 -2.1134 -0.3291
 1967TIP3   OH230095   1.117   2.924   0.286 -0.0216  0.3330 -0.0169
 1967TIP3    H130096   1.092   2.894   0.374 -0.6890 -1.6451 -0.8172
 1967TIP3    H230097   1.209   2.901   0.278 -0.0989  0.0291 -0.0270
 1968TIP3   OH230098   0.718   3.737   0.084  0.2334 -0.2912  0.0099
 1968TIP3    H130099   0.646   3.691   0.040 -0.0978  0.5003 -0.2975
 1968TIP3    H230100   0.685   3.754   0.172 -0.4520  1.1506 -0.5012
 1969TIP3   OH230101   2.734   7.088   1.683  0.6491  0.7805  0.1671
 1969TIP3    H130102   2.724   6.994   1.695 -0.8601  0.5059 -2.4589
 1969TIP3    H230103   2.770   7.098   1.595  0.7335  2.6579  0.3706
 1970TIP3   OH230104   4.144   0.614   7.051 -0.0499 -0.3979 -0.3805
 1970TIP3    H130105   4.100   0.654   7.126 -0.0291 -2.4960  0.8332
 1970TIP3    H230106   4.238   0.627   7.069 -0.0570 -0.3148 -0.3999
 1971TIP3   OH230107   2.687   4.707   9.165 -0.2750 -0.1982  0.5243
 1971TIP3    H130108   2.625   4.731   9.096 -2.0755 -1.1435  1.7158
 1971TIP3    H230109   2.636   4.714   9.246  1.7290  0.7696  1.7870
 1972TIP3   OH230110   4.633   1.482   0.949  0.0582  0.6095  0.0839
 1972TIP3    H130111   4.547   1.522   0.936 -1.0835 -1.5205  0.5921
 1972TIP3    H230112   4.694   1.556   0.950 -1.8263  2.2447  0.3122
 1973TIP3   OH230113   2.360   6.452   0.683  0.2295 -0.1176  0.6978
 1973TIP3    H130114   2.330   6.401   0.607 -0.5892 -1.2670  1.7498
 1973TIP3    H230115   2.453   6.465   0.667 -0.2308  1.1553 -1.3202
 1974TIP3   OH230116   0.638   1.333   9.142 -0.2367  0.0074 -0.1749
 1974TIP3    H130117   0.543   1.339   9.149 -0.1615 -0.1599  1.4537
 1974TIP3    H230118   0.670   1.377   9.221  0.9886 -0.9163 -0.1243
 1975TIP3   OH230119   4.040   2.066   9.036 -0.2196  0.3263 -0.5477
 1975TIP3    H130120   4.111   2.001   9.031 -0.0428  0.4779 -0.0306
 1975TIP3    H230121   3.989   2.050   8.957  0.7108  0.5929 -1.2232
 1976TIP3   OH230122   4.738   6.414   8.874  0.8096  0.2985  0.0849
 1976TIP3    H130123   4.715   6.322   8.867  0.9982  0.2437  0.1575
 1976TIP3    H230124   4.769   6.438   8.787  0.4616  0.3776 -0.0180
 1977TIP3   OH230125   0.780   2.168   9.918  0.2129 -0.0453 -0.5583
 1977TIP3    H130126   0.814   2.248   9.877 -1.6429  0.5507 -1.0194
 1977TIP3    H230127   0.792   2.183  10.012  0.4477  0.5040 -0.6704
 1978TIP3   OH230128   2.732   2.218   7.268 -0.6218  0.4236  0.1264
 1978TIP3    H130129   2.703   2.299   7.227 -0.7815 -0.2538 -1.1491
 1978TIP3    H230130   2.778   2.171   7.198 -0.4250 -0.5288  0.8764
 1979TIP3   OH230131   3.196   0.227   9.812 -0.1968  0.0715 -0.2480
 1979TIP3    H130132   3.242   0.258   9.890  0.2538  0.2918 -0.6020
 1979TIP3    H230133   3.265   0.199   9.753 -0.4902  0.7884 -0.9457
 1980TIP3   OH230134   1.904   2.707   8.578 -0.0908 -0.4361  0.0446
 1980TIP3    H130135   1.903   2.664   8.492 -2.0406 -1.7693  0.6679
 1980TIP3    H230136   1.975   2.664   8.626  0.6080 -0.1069 -0.6650
 1981TIP3   OH230137   0.849   5.546   2.324 -0.4505 -0.3933  0.3026
 1981TIP3    H130138   0.944   5.562   2.319 -0.4494 -0.7935 -2.1636
 1981TIP3    H230139   0.810   5.627   2.291 -0.8384 -1.1885 -1.2695
 1982TIP3   OH230140   6.611   0.377   8.514 -0.0492 -0.4842 -0.7261
 1982TIP3    H130141   6.519   0.396   8.535  0.1523 -1.1874  0.9197
 1982TIP3    H230142   6.645   0.460   8.479 -0.8935  0.2454  0.1332
 1983TIP3   OH230143   2.496   7.308   9.923 -0.2881  0.2297  0.4406
 1983TIP3    H130144   2.468   7.259  10.001 -0.9285 -0.0960  0.0168
 1983TIP3    H230145   2.565   7.367   9.955 -0.6106  0.1719  1.2730
 1984TIP3   OH230146   4.282   2.382   7.111 -0.8030  0.2701 -0.4967
 1984TIP3    H130147   4.224   2.385   7.035 -0.2749 -1.6445 -1.0277
 1984TIP3    H230148   4.250   2.307   7.162  0.0083  0.3849  0.2027
 1985TIP3   OH230149   1.918   5.088   2.863 -0.0349 -0.1851 -0.8678
 1985TIP3    H130150   1.986   5.107   2.799 -0.0317  0.0250 -0.8058
 1985TIP3    H230151   1.956   5.022   2.920 -0.3978 -1.0991 -1.6628
 1986TIP3   OH230152   0.319   6.584   2.073 -0.2601  0.9688 -0.3064
 1986TIP3    H130153   0.318   6.630   2.157 -1.0041  0.2727  0.0758
 1986TIP3    H230154   0.246   6.522   2.078  0.6875 -0.2411 -0.8094
 1987TIP3   OH230155   1.848   2.026   6.239 -0.0995 -0.0010 -0.7654
 1987TIP3    H130156   1.866   2.091   6.307  0.8007  0.4169 -1.3818
 1987TIP3    H230157   1.885   2.064   6.160  0.0559 -1.0815 -1.2231
 1988TIP3   OH230158   6.645   7.289   8.527 -0.4943 -0.1787 -0.1495
 1988TIP3    H130159   6.682   7.204   8.550 -1.2101 -0.0889  1.5453
 1988TIP3    H230160   6.689   7.350   8.587  0.5254  0.7929 -1.8080
 1989TIP3   OH230161   4.331   4.977   2.256 -0.2676  0.1786 -0.8036
 1989TIP3    H130162   4.273   4.905   2.231 -0.1539 -0.3601  0.4515
 1989TIP3    H230163   4.283   5.056   2.232 -2.2084 -0.2008  1.5057
 1990TIP3   OH230164   2.730   0.238   9.784  0.5447 -0.0316  0.1840
 1990TIP3    H130165   2.693   0.249   9.696 -2.0902 -0.8760  1.1111
 1990TIP3    H230166   2.728   0.325   9.823 -1.3380 -0.1874  0.5005
 1991TIP3   OH230167   1.251   4.415   8.447  0.8659  0.5382  0.1671
 1991TIP3    H130168   1.300   4.462   8.380  3.4508 -2.7367 -0.4782
 1991TIP3    H230169   1.291   4.442   8.530 -0.5327  2.5484  0.2476
 1992TIP3   OH230170   4.777   3.751   9.666 -0.2142 -0.4115  0.0354
 1992TIP3    H130171   4.707   3.703   9.711 -0.0806  1.2461  2.1773
 1992TIP3    H230172   4.854   3.696   9.678 -0.5295 -0.7932  0.3801
 1993TIP3   OH230173   6.073   3.013   7.623  0.6435  0.1181  0.4377
 1993TIP3    H130174   5.978   3.012   7.630  0.7750 -1.0636  3.1383
 1993TIP3    H230175   6.100   2.925   7.647  2.4359  0.2433 -0.8979
 1994TIP3   OH230176   0.922   7.062   9.138 -0.2707  0.2836 -0.0914
 1994TIP3    H130177   0.995   7.121   9.160 -0.3778  0.0743  0.8620
 1994TIP3    H230178   0.844   7.112   9.159 -0.3780  0.0352  0.0927
 1995TIP3   OH230179   2.158   2.636   1.837  0.1720 -0.1195 -0.6401
 1995TIP3    H130180   2.112   2.575   1.779  0.0562  0.0417 -0.7166
 1995TIP3    H230181   2.247   2.641   1.802  0.0862  0.0215 -0.8361
 1996TIP3   OH230182   4.428   0.377   8.392  0.1257  0.6443  0.1801
 1996TIP3    H130183   4.397   0.405   8.306 -1.1866  0.2371  0.4944
 1996TIP3    H230184   4.474   0.453   8.427  0.8758  0.7334 -0.9643
 1997TIP3   OH230185   1.700   5.801   0.633 -0.2362 -0.3967 -0.2315
 1997TIP3    H130186   1.633   5.858   0.670 -0.1913 -1.6757  2.0758
 1997TIP3    H230187   1.768   5.860   0.602 -0.3421  0.8712  1.7415
 1998TIP3   OH230188   7.055   5.097   0.875 -0.1502  0.1978  0.2547
 1998TIP3    H130189   7.083   5.148   0.799 -0.8087  0.6798  0.3212
 1998TIP3    H230190   7.006   5.024   0.839  0.1670  0.0214  0.1852
 1999TIP3   OH230191   3.100   5.530   1.642  0.7041 -0.6220  0.8648
 1999TIP3    H130192   3.057   5.476   1.576 -0.8559  0.1134  1.2377
 1999TIP3    H230193   3.145   5.598   1.591 -1.0549  0.3509  0.5247
 2000TIP3   OH230194   1.852   2.297   2.775 -0.1517  0.2882 -0.9321
 2000TIP3    H130195   1.944   2.309   2.751 -0.2346  0.0725 -1.3672
 2000TIP3    H230196   1.814   2.250   2.701 -0.4235 -0.3750 -0.3849
 2001TIP3   OH230197   2.061   4.389   7.801 -0.4086 -0.1342 -0.4188
 2001TIP3    H130198   2.147   4.418   7.768 -0.0065 -0.6423  0.1589
 2001TIP3    H230199   2.019   4.349   7.725  0.1436 -0.4880 -0.5466
 2002TIP3   OH230200   6.557   3.928   0.378 -0.0527  0.4152 -0.0634
 2002TIP3    H130201   6.490   3.936   0.309  0.1961  1.0530 -0.2381
 2002TIP3    H230202   6.507   3.932   0.460 -0.4488 -1.2565 -0.1910
 2003TIP3   OH230203   6.792   0.434   8.903  0.1994  0.4887 -0.4133
 2003TIP3    H130204   6.755   0.390   8.980 -0.6096  0.1483 -0.9794
 2003TIP3    H230205   6.782   0.371   8.832 -1.2522  1.6467 -1.3039
 2004TIP3   OH230206   4.927   6.333   8.163 -1.0941  0.2745  0.7717
 2004TIP3    H130207   4.900   6.297   8.247 -0.8791  0.4074  0.8978
 2004TIP3    H230208   4.847   6.372   8.127 -1.3120 -0.2621  0.6643
 2005TIP3   OH230209   4.279   4.831   8.211 -0.1099 -0.1654  0.1335
 2005TIP3    H130210   4.206   4.889   8.230 -0.5320 -0.4443 -0.6183
 2005TIP3    H230211   4.345   4.888   8.170 -1.2570 -0.5188 -2.3591
 2006TIP3   OH230212   2.745   7.374   6.977 -0.5790  0.2668 -0.4752
 2006TIP3    H130213   2.705   7.294   6.942  0.5086  0.0298 -1.2238
 2006TIP3    H230214   2.762   7.354   7.069 -0.4409 -0.3291 -0.6231
 2007TIP3   OH230215   2.828   3.013   7.061 -0.1959  0.2622  0.8351
 2007TIP3    H130216   2.834   2.923   7.031 -0.4787  0.3287  0.5803
 2007TIP3    H230217   2.801   3.063   6.984  1.4139  0.8026  0.5680
 2008TIP3   OH230218   3.241   6.433   2.008  0.4890 -0.1907 -0.6188
 2008TIP3    H130219   3.320   6.418   1.956  0.6729  2.0051 -1.0566
 2008TIP3    H230220   3.217   6.524   1.990 -1.5586 -0.4939  0.3202
 2009TIP3   OH230221   2.042   2.034   2.365  0.2868  0.5104  0.0322
 2009TIP3    H130222   2.042   2.009   2.458  3.6592  1.1724  0.3415
 2009TIP3    H230223   2.104   1.974   2.324 -0.0462  1.1766 -1.5229
 2010TIP3   OH230224   5.259   1.455   0.908  0.5453  0.1360  0.7619
 2010TIP3    H130225   5.263   1.426   0.816  0.0126  0.7502  0.5384
 2010TIP3    H230226   5.202   1.392   0.951 -1.0872  1.1481  0.1485
 2011TIP3   OH230227   0.925   1.223   7.592  0.3597 -0.0232  0.2064
 2011TIP3    H130228   0.971   1.250   7.512  0.3021 -0.6060 -0.0277
 2011TIP3    H230229   0.873   1.147   7.566  0.9605 -0.7196  0.9827
 2012TIP3   OH230230   0.825   6.290   0.180 -0.2745 -0.2908 -0.0922
 2012TIP3    H130231   0.867   6.212   0.143  0.0922 -0.0968 -0.0790
 2012TIP3    H230232   0.895   6.337   0.225 -0.5619 -0.1222  0.1859
 2013TIP3   OH230233   1.634   3.896   1.718 -0.6679  0.4057  0.1930
 2013TIP3    H130234   1.557   3.857   1.677  0.2755 -1.5510  0.1679
 2013TIP3    H230235   1.682   3.822   1.754  0.3273  1.7401  1.7698
 2014TIP3   OH230236   3.327   6.165   1.115  0.1234  0.2300  0.0244
 2014TIP3    H130237   3.335   6.241   1.058  0.8538 -1.0467 -1.6465
 2014TIP3    H230238   3.417   6.138   1.132 -0.1478 -0.9034 -0.2983
 2015TIP3   OH230239   4.538   2.942   8.497 -0.0855 -0.2464  0.1115
 2015TIP3    H130240   4.607   2.939   8.430  0.4503  1.2665  0.5496
 2015TIP3    H230241   4.497   3.027   8.484 -0.8942 -0.5258  0.8214
 2016TIP3   OH230242   3.191   4.462   0.281 -0.2161 -0.6310  0.3902
 2016TIP3    H130243   3.161   4.371   0.283 -0.6140 -0.4925  1.6328
 2016TIP3    H230244   3.195   4.487   0.373  2.0520 -0.0947  0.2140
 2017TIP3   OH230245   2.124   0.700   8.215  0.2213 -0.1865 -0.4420
 2017TIP3    H130246   2.157   0.611   8.204 -1.0663 -0.4589 -2.6682
 2017TIP3    H230247   2.203   0.754   8.222  1.0596 -1.2653 -1.3143
 2018TIP3   OH230248   5.533   5.779   8.102  0.2733 -0.1451 -0.0984
 2018TIP3    H130249   5.546   5.746   8.013 -0.8738 -0.2158 -0.2592
 2018TIP3    H230250   5.515   5.701   8.154  0.9689 -0.1053  0.2055
 2019TIP3   OH230251   0.398   0.475   2.167  0.1375  0.1489 -0.0306
 2019TIP3    H130252   0.420   0.476   2.074 -2.0548 -2.5206 -0.7160
 2019TIP3    H230253   0.439   0.395   2.200 -2.2740 -1.0599  0.2786
 2020TIP3   OH230254   1.054   5.666   7.109 -0.1895  0.1670  0.1864
 2020TIP3    H130255   1.107   5.687   7.186  1.8248  0.4773 -1.2096
 2020TIP3    H230256   1.111   5.612   7.054 -2.2212 -1.6174 -0.3017
 2021TIP3   OH230257   1.091   0.401   8.939  0.7456  0.3594 -0.3040
 2021TIP3    H130258   1.091   0.314   8.979 -1.6930  0.6907  0.5912
 2021TIP3    H230259   1.157   0.450   8.988  0.4567 -0.3228  0.8006
 2022TIP3   OH230260   6.974   6.118   9.694  0.3187  0.6735  0.1584
 2022TIP3    H130261   6.953   6.048   9.755  0.8877  0.1273 -0.2585
 2022TIP3    H230262   7.001   6.073   9.614 -0.1525  1.3760 -0.4082
 2023TIP3   OH230263   5.226   3.999   2.074 -0.0542 -0.0417 -0.4249
 2023TIP3    H130264   5.292   3.940   2.108 -1.1463 -0.8832  0.3137
 2023TIP3    H230265   5.244   4.004   1.980  0.0142 -1.6549 -0.5243
 2024TIP3   OH230266   6.829   5.355   0.836  0.1152  0.0900 -0.1368
 2024TIP3    H130267   6.910   5.356   0.887  0.4840  0.5256 -0.7125
 2024TIP3    H230268   6.796   5.266   0.845  1.3369 -0.4729 -0.9442
 2025TIP3   OH230269   6.027   0.323   1.564  0.5608 -0.6152  0.1808
 2025TIP3    H130270   6.002   0.409   1.531  2.8999 -0.8555 -2.6417
 2025TIP3    H230271   5.945   0.284   1.594 -0.9116  1.7812 -0.4732
 2026TIP3   OH230272   7.334   4.758   1.316 -0.6052  0.1396  0.2978
 2026TIP3    H130273   7.351   4.688   1.379  0.1416  1.5326  1.7155
 2026TIP3    H230274   7.241   4.778   1.326 -0.7469 -0.4062  0.1185
 2027TIP3   OH230275   1.718   0.235   2.274  0.3724  0.0728  0.0983
 2027TIP3    H130276   1.718   0.139   2.275  1.0003  0.0122 -1.8635
 2027TIP3    H230277   1.729   0.259   2.366  2.1680 -1.7593  0.4405
 2028TIP3   OH230278   1.764   3.316   0.378 -0.4564 -0.3461  0.6128
 2028TIP3    H130279   1.763   3.233   0.330  1.3800 -0.8998  1.4666
 2028TIP3    H230280   1.832   3.367   0.337  0.8702 -0.6716  2.2967
 2029TIP3   OH230281   1.563   0.885   1.015  0.8972 -0.5118 -0.5289
 2029TIP3    H130282   1.585   0.810   0.960  2.7769  0.1310 -0.7177
 2029TIP3    H230283   1.647   0.922   1.041  0.0261  0.9897  0.3326
 2030TIP3   OH230284   5.490   1.040   2.245 -1.1019  0.2648 -0.1104
 2030TIP3    H130285   5.552   1.114   2.250 -0.3630 -0.3471 -0.0229
 2030TIP3    H230286   5.430   1.054   2.318  0.2126 -0.2545  1.1128
 2031TIP3   OH230287   2.329   0.823   0.202 -0.0748  0.5503  0.3707
 2031TIP3    H130288   2.377   0.905   0.211  0.5228  0.3761 -1.0032
 2031TIP3    H230289   2.261   0.841   0.137  0.3185 -0.1346 -0.2490
 2032TIP3   OH230290   1.053   6.581   0.489  0.0729  0.1106 -0.6398
 2032TIP3    H130291   0.993   6.642   0.447  0.5699  0.8939 -0.2400
 2032TIP3    H230292   1.040   6.498   0.443 -1.1142  0.3338 -0.7336
 2033TIP3   OH230293   3.822   4.913   8.388  0.2520  0.1690  0.0020
 2033TIP3    H130294   3.863   4.934   8.304 -0.7942 -0.1515 -0.6040
 2033TIP3    H230295   3.879   4.846   8.427  0.1760 -0.4438 -0.9272
 2034TIP3   OH230296   2.803   6.345   8.260  0.2919  0.5078  0.5874
 2034TIP3    H130297   2.763   6.395   8.188  0.4797 -0.3364 -0.1308
 2034TIP3    H230298   2.863   6.284   8.215  1.1123  0.5946  1.5297
 2035TIP3   OH230299   7.002   5.172   9.303  0.5875  0.6224  0.3110
 2035TIP3    H130300   7.068   5.103   9.306  0.3328  0.3503 -0.2536
 2035TIP3    H230301   6.995   5.202   9.394  1.5614  0.7335  0.3543
 2036TIP3   OH230302   6.913   4.452   9.503  0.0398 -0.1649 -0.2210
 2036TIP3    H130303   6.963   4.532   9.516  0.3269 -0.3441 -0.2184
 2036TIP3    H230304   6.902   4.444   9.409 -3.3889  1.9698 -0.1730
 2037TIP3   OH230305   4.493   1.200   0.811 -0.3651  0.2674  0.4317
 2037TIP3    H130306   4.577   1.202   0.766 -0.1278  1.0528  0.8833
 2037TIP3    H230307   4.469   1.108   0.813  2.1376 -0.4708  3.3058
 2038TIP3   OH230308   1.817   0.361   8.078  0.1906  0.3318  0.3232
 2038TIP3    H130309   1.781   0.439   8.035  0.2741 -0.9399 -2.2006
 2038TIP3    H230310   1.741   0.317   8.115 -0.0696  0.6779  0.2086
 2039TIP3   OH230311   2.857   4.729   9.487  0.6058  0.1396  0.0520
 2039TIP3    H130312   2.843   4.636   9.503  0.7560  0.0743 -0.1971
 2039TIP3    H230313   2.804   4.773   9.554  2.3148 -0.1413  1.6671
 2040TIP3   OH230314   0.120   0.821   9.046 -0.1878  0.1732  0.7503
 2040TIP3    H130315   0.200   0.834   9.097  0.0926 -0.0214  0.3659
 2040TIP3    H230316   0.074   0.752   9.092  2.0578 -3.1379 -1.5016
 2041TIP3   OH230317   3.252   4.811   7.662 -0.4093 -0.1951 -0.2674
 2041TIP3    H130318   3.194   4.758   7.717  0.1726 -1.2391 -0.6380
 2041TIP3    H230319   3.200   4.831   7.584 -0.1043 -1.5980 -0.8484
 2042TIP3   OH230320   5.149   2.599   7.696  0.2730 -0.2371 -0.4678
 2042TIP3    H130321   5.152   2.539   7.621 -0.8892 -0.0826 -0.6539
 2042TIP3    H230322   5.097   2.673   7.665  0.2088  0.0573  0.3291
 2043TIP3   OH230323   0.711   2.862   9.884  0.4284 -0.1059 -0.7934
 2043TIP3    H130324   0.742   2.952   9.881  0.3259 -0.0059  0.4302
 2043TIP3    H230325   0.697   2.845   9.978 -0.4621 -1.0777 -1.0824
 2044TIP3   OH230326   0.731   5.000   0.057  0.3686 -0.2772 -0.3031
 2044TIP3    H130327   0.659   4.949   0.095  0.6511 -0.8793 -0.5544
 2044TIP3    H230328   0.810   4.955   0.087  0.7500  1.4621  1.5389
 2045TIP3   OH230329   2.539   0.222   7.313  0.5034 -0.5871 -0.1800
 2045TIP3    H130330   2.629   0.224   7.344  0.4834 -0.4434 -0.1303
 2045TIP3    H230331   2.515   0.130   7.314  0.6858 -0.6365 -0.2970
 2046TIP3   OH230332   3.028   6.832   8.392 -0.2024 -0.6990 -0.0877
 2046TIP3    H130333   3.074   6.824   8.309 -0.2671  1.3251 -0.3594
 2046TIP3    H230334   3.091   6.801   8.458  0.3947 -0.8602 -0.7305
 2047TIP3   OH230335   6.368   0.453   1.432  0.0871 -0.2008 -0.0154
 2047TIP3    H130336   6.299   0.390   1.453  0.8254 -0.9103  0.3623
 2047TIP3    H230337   6.324   0.537   1.428 -0.8554 -0.6938 -0.1213
 2048TIP3   OH230338   5.979   2.050   8.203 -0.2707 -0.4242  0.1627
 2048TIP3    H130339   5.925   2.070   8.280  2.5085  3.8598  1.3593
 2048TIP3    H230340   5.933   2.091   8.130 -0.2171  0.3667  0.5678
 2049TIP3   OH230341   6.679   5.597   9.839  0.4443  0.5394  0.5574
 2049TIP3    H130342   6.708   5.636   9.922  1.2336 -2.7687  2.0387
 2049TIP3    H230343   6.588   5.571   9.856  0.7049 -0.4283  0.5841
 2050TIP3   OH230344   4.812   0.738   7.804 -0.0793  0.0265  0.6142
 2050TIP3    H130345   4.726   0.700   7.785  1.5748 -1.8003 -4.9676
 2050TIP3    H230346   4.858   0.669   7.852 -0.3997 -0.7696 -0.1930
 2051TIP3   OH230347   6.672   3.647   9.751 -0.2152  0.0835 -0.0874
 2051TIP3    H130348   6.763   3.672   9.768  0.5677 -1.9835 -0.9864
 2051TIP3    H230349   6.668   3.554   9.771 -2.2449  0.2064  0.2591
 2052TIP3   OH230350   0.834   7.274   8.947 -0.1248 -0.4693  0.5937
 2052TIP3    H130351   0.928   7.268   8.963  0.1440 -1.3542 -1.1225
 2052TIP3    H230352   0.798   7.194   8.987 -0.0448 -0.5342  0.5342
 2053TIP3   OH230353   5.444   3.480   8.876 -0.4419 -0.7266 -0.3704
 2053TIP3    H130354   5.485   3.562   8.850 -0.7157 -0.4919 -0.0622
 2053TIP3    H230355   5.393   3.453   8.799 -1.5639  0.1642  0.0404
 2054TIP3   OH230356   3.667   4.476   9.880 -0.7508 -0.1303  0.3224
 2054TIP3    H130357   3.649   4.526   9.801  1.8731 -1.0645 -0.9976
 2054TIP3    H230358   3.581   4.445   9.909 -2.0123  1.9442 -0.9328
 2055TIP3   OH230359   1.474   1.022   8.725  0.1109  0.0503  0.0687
 2055TIP3    H130360   1.453   1.079   8.651 -1.0667  1.5281  1.4918
 2055TIP3    H230361   1.410   1.043   8.792  0.6574 -1.8113  1.2748
 2056TIP3   OH230362   0.047   6.132   7.284  0.5341 -0.2315 -0.0910
 2056TIP3    H130363  -0.020   6.187   7.325  0.0059 -1.5061  0.8307
 2056TIP3    H230364   0.000   6.053   7.259  1.6109 -0.9638  0.1571
 2057TIP3   OH230365   4.276   3.927   7.189 -0.3501 -0.1862  0.5706
 2057TIP3    H130366   4.260   3.834   7.175  0.6402 -0.0873 -1.5740
 2057TIP3    H230367   4.326   3.955   7.112 -0.6062  2.1163  1.1654
 2058TIP3   OH230368   4.575   0.884   8.758  0.7010  0.2875  0.1705
 2058TIP3    H130369   4.489   0.918   8.733  0.5833  0.1146  0.3311
 2058TIP3    H230370   4.560   0.842   8.843  0.5238 -1.3999 -0.6504
 2059TIP3   OH230371   1.726   7.213   7.393 -0.7406 -0.1282 -0.2298
 2059TIP3    H130372   1.804   7.265   7.413  0.2767 -1.1894 -1.2513
 2059TIP3    H230373   1.652   7.272   7.410  0.3453  1.6504 -1.3393
 2060TIP3   OH230374   1.824   4.682   7.165  0.1295  0.4010 -0.5494
 2060TIP3    H130375   1.769   4.644   7.097  1.0521  0.0714 -1.1387
 2060TIP3    H230376   1.800   4.775   7.167 -1.9955 -0.1208  0.7571
 2061TIP3   OH230377   3.633   5.227   7.826 -0.0389 -0.0416 -0.9740
 2061TIP3    H130378   3.587   5.300   7.865  0.6401  0.4376 -1.0523
 2061TIP3    H230379   3.618   5.154   7.886  1.4994  0.8183  0.5512
 2062TIP3   OH230380   6.844   6.955   8.171 -0.5985  0.2749 -0.4455
 2062TIP3    H130381   6.771   6.906   8.210  0.9984 -1.5542  0.3696
 2062TIP3    H230382   6.879   6.897   8.104  1.6559  0.0001  0.8837
 2063TIP3   OH230383   0.891   4.342   7.026  0.6295  0.4155  0.1957
 2063TIP3    H130384   0.979   4.338   6.987  0.7011 -5.1749  0.0937
 2063TIP3    H230385   0.907   4.344   7.121  1.1899 -2.9962  0.3001
 2064TIP3   OH230386   6.516   2.273   9.815  0.1949  0.6885  0.4195
 2064TIP3    H130387   6.430   2.309   9.792  1.3174  2.0783 -2.1389
 2064TIP3    H230388   6.554   2.337   9.874 -0.1810  0.5328  0.8300
 2065TIP3   OH230389   5.199   5.424   0.140 -0.1185  0.3632 -0.0604
 2065TIP3    H130390   5.179   5.508   0.181  0.4572  0.8533 -0.7508
 2065TIP3    H230391   5.196   5.441   0.046 -3.8665 -1.2909 -0.4017
 2066TIP3   OH230392   5.782   6.454   1.051  0.6842 -0.1428 -0.6818
 2066TIP3    H130393   5.786   6.358   1.043  1.2997 -0.0963 -0.9564
 2066TIP3    H230394   5.828   6.486   0.974  0.5886  0.3764 -0.5230
 2067TIP3   OH230395   2.605   3.401   8.413  0.2684 -0.8919  0.3144
 2067TIP3    H130396   2.547   3.408   8.489 -1.6092  0.1527 -1.1236
 2067TIP3    H230397   2.552   3.354   8.348  1.3055 -0.5150 -0.8261
 2068TIP3   OH230398   4.073   4.082   9.170  0.7646  0.3554  0.5435
 2068TIP3    H130399   4.023   4.064   9.250  0.6597  3.1474  1.2106
 2068TIP3    H230400   4.056   4.007   9.113 -1.3924 -0.4016  2.0701
 2069TIP3   OH230401   7.105   4.503   2.861  0.0557  0.0096  0.2549
 2069TIP3    H130402   7.177   4.565   2.850  0.7666 -0.8900 -0.2883
 2069TIP3    H230403   7.027   4.558   2.873  0.8226  0.9927  0.8107
 2070TIP3   OH230404   6.875   0.551   8.427 -0.2167  0.1730  0.0279
 2070TIP3    H130405   6.918   0.614   8.369  0.6048  1.9645  2.4430
 2070TIP3    H230406   6.781   0.565   8.412 -0.0246  1.2689 -0.1955
 2071TIP3   OH230407   6.701   3.633   0.513 -0.6620 -0.2803  0.0579
 2071TIP3    H130408   6.688   3.549   0.470  1.7793 -1.6047  1.7165
 2071TIP3    H230409   6.720   3.694   0.441  0.4420 -1.7768 -0.9742
 2072TIP3   OH230410   6.916   1.719   9.976  0.3334  0.7594  0.0262
 2072TIP3    H130411   6.963   1.704  10.058 -0.7900 -1.4879  0.3452
 2072TIP3    H230412   6.831   1.753  10.004  0.5876  1.7203 -0.3424
 2073TIP3   OH230413   3.459   2.024   0.732 -0.0672  0.0451  0.2102
 2073TIP3    H130414   3.510   1.943   0.742  0.4872  0.5064  1.4617
 2073TIP3    H230415   3.496   2.067   0.655  0.2409 -0.4728  0.0651
 2074TIP3   OH230416   3.149   3.973   6.788 -0.9669 -0.3442 -0.2650
 2074TIP3    H130417   3.132   4.062   6.821 -2.3748 -0.8760  0.4999
 2074TIP3    H230418   3.086   3.918   6.834 -0.5679 -1.6558 -1.2411
 2075TIP3   OH230419   1.633   6.599   9.901  0.4497  0.1303  0.3060
 2075TIP3    H130420   1.657   6.511   9.872  2.9205  0.9231 -0.2529
 2075TIP3    H230421   1.656   6.600   9.994 -0.0322  0.0541  0.4293
 2076TIP3   OH230422   5.785   3.084   8.323  0.0191 -0.4161  0.1641
 2076TIP3    H130423   5.765   3.042   8.239 -2.6868 -1.1183  1.0633
 2076TIP3    H230424   5.826   3.167   8.300  0.8987 -1.3314 -1.7807
 2077TIP3   OH230425   1.646   0.032   1.513  0.0196 -0.3289  0.5087
 2077TIP3    H130426   1.600  -0.018   1.581  0.2765 -1.7184 -0.3024
 2077TIP3    H230427   1.736   0.002   1.517  0.1023 -0.2149 -0.2434
 2078TIP3   OH230428   6.104   1.163   0.992 -0.0663 -0.3874  0.6096
 2078TIP3    H130429   6.161   1.185   0.919  1.5673 -4.5293  0.3540
 2078TIP3    H230430   6.034   1.110   0.953 -0.6480 -0.4526  1.6989
 2079TIP3   OH230431   1.869   5.330   0.614 -0.2515  0.1833 -0.0455
 2079TIP3    H130432   1.893   5.414   0.576  0.0065 -0.3297 -1.0589
 2079TIP3    H230433   1.839   5.278   0.540  0.3388 -0.8798  0.4374
 2080TIP3   OH230434   6.674   1.931   8.593 -0.2452 -0.0451 -0.3479
 2080TIP3    H130435   6.648   1.948   8.503 -1.2586  2.3628  0.3333
 2080TIP3    H230436   6.593   1.913   8.639  0.0988  0.2106  0.3708
 2081TIP3   OH230437   2.738   3.648   2.824 -0.2030 -0.5385 -0.1736
 2081TIP3    H130438   2.662   3.702   2.800 -1.6315 -1.4218  2.0201
 2081TIP3    H230439   2.717   3.561   2.789  0.5582 -0.4400 -0.8971
 2082TIP3   OH230440   5.537   5.830   0.605  0.3991  0.5158  0.2476
 2082TIP3    H130441   5.514   5.784   0.525  1.2086  0.4667  0.0320
 2082TIP3    H230442   5.523   5.923   0.585 -0.1579  0.4478  0.3142
 2083TIP3   OH230443   0.323   5.044   9.954 -0.2458  0.2548  0.5470
 2083TIP3    H130444   0.281   5.073   9.873 -1.3805  0.0095  1.0407
 2083TIP3    H230445   0.365   5.123   9.988 -1.0381  0.7082  0.4968
 2084TIP3   OH230446   2.969   5.502   8.927  0.4206  0.2441  0.5911
 2084TIP3    H130447   2.874   5.492   8.916  0.5998  0.2151 -1.1563
 2084TIP3    H230448   2.992   5.576   8.870  1.3933  0.5486  1.3604
 2085TIP3   OH230449   2.890   3.302   7.974 -0.2856  0.6857  0.3660
 2085TIP3    H130450   2.836   3.366   8.019 -1.6361 -1.4389  1.8990
 2085TIP3    H230451   2.829   3.248   7.925  0.9686  1.5398 -2.3521
 2086TIP3   OH230452   5.047   0.473   8.543  0.8814  0.2133  0.2176
 2086TIP3    H130453   4.991   0.473   8.621 -0.4493 -0.2426 -0.6853
 2086TIP3    H230454   5.016   0.549   8.492  0.1808 -0.7818 -0.8859
 2087TIP3   OH230455   1.392   5.581   9.771 -0.1703 -0.1926 -0.0795
 2087TIP3    H130456   1.330   5.549   9.706  0.2605 -1.4459  0.0841
 2087TIP3    H230457   1.478   5.553   9.738 -0.0085 -1.6368  1.4079
 2088TIP3   OH230458   0.971   3.541   6.775 -0.3305 -0.5902 -0.0849
 2088TIP3    H130459   0.947   3.463   6.825 -0.3405 -1.2448 -1.0800
 2088TIP3    H230460   1.002   3.603   6.841  1.2794 -2.0289  0.5932
 2089TIP3   OH230461   6.317   6.271   1.274 -0.4291 -0.1890  0.4636
 2089TIP3    H130462   6.316   6.366   1.277 -0.6028 -0.1178 -1.1546
 2089TIP3    H230463   6.260   6.249   1.200  1.2682 -1.4722 -0.5175
 2090TIP3   OH230464   3.388   1.088   8.428  0.5374  0.1038  0.4413
 2090TIP3    H130465   3.408   1.028   8.501 -0.1172 -0.2695  0.3291
 2090TIP3    H230466   3.320   1.042   8.379  0.0959  0.9109  0.2966
 2091TIP3   OH230467   0.422   5.751   8.510  0.0826  0.5254 -0.2921
 2091TIP3    H130468   0.488   5.738   8.442 -1.7647  1.3622 -2.3301
 2091TIP3    H230469   0.375   5.667   8.515  0.6272  0.2463  0.4835
 2092TIP3   OH230470   3.937   7.010   1.968  0.2651 -0.6202 -0.3753
 2092TIP3    H130471   3.878   7.050   2.032  1.3296 -0.0443  0.2638
 2092TIP3    H230472   3.896   7.029   1.883 -0.8158 -0.8236  0.0875
 2093TIP3   OH230473   0.288   2.055   1.863  1.1089  0.2671 -0.0659
 2093TIP3    H130474   0.283   2.144   1.898 -0.2131 -0.1821  0.9626
 2093TIP3    H230475   0.254   2.062   1.774 -1.3408  0.4247  0.8149
 2094TIP3   OH230476   6.079   3.507   1.267  0.3220  0.2810 -0.5272
 2094TIP3    H130477   5.995   3.518   1.312 -1.0126 -0.1294 -2.7373
 2094TIP3    H230478   6.126   3.589   1.283 -0.5852  0.6219  0.5606
 2095TIP3   OH230479   0.889   3.444   8.649 -0.1626 -0.1704  0.0025
 2095TIP3    H130480   0.834   3.378   8.691  0.5698  1.0750  3.1849
 2095TIP3    H230481   0.974   3.435   8.693  0.2470  2.1621 -0.1899
 2096TIP3   OH230482   0.423   4.326   2.599  0.1651 -0.2316 -0.1941
 2096TIP3    H130483   0.393   4.237   2.580  2.1634 -1.1664  0.7443
 2096TIP3    H230484   0.369   4.381   2.543 -0.6704 -2.0734 -1.3210
 2097TIP3   OH230485   2.054   0.359   8.910 -0.1887 -0.8511  0.4219
 2097TIP3    H130486   2.057   0.303   8.832 -1.7223 -0.6712  0.1898
 2097TIP3    H230487   2.009   0.305   8.976 -0.7328 -0.2823  0.5231
 2098TIP3   OH230488   2.047   5.702   6.947  0.0091 -0.0655 -0.1340
 2098TIP3    H130489   1.992   5.733   6.874  1.5936  0.1775 -1.2640
 2098TIP3    H230490   2.112   5.771   6.958  0.2233 -0.4463  1.0481
 2099TIP3   OH230491   4.918   6.320   1.619  0.3139 -0.1490  0.0742
 2099TIP3    H130492   4.933   6.413   1.605 -0.6700 -0.0886 -0.7115
 2099TIP3    H230493   4.857   6.316   1.692  1.2807 -0.2418  0.8953
 2100TIP3   OH230494   0.257   1.901   1.087  0.2149  0.3064  0.5160
 2100TIP3    H130495   0.311   1.831   1.050 -2.3468 -1.2051 -0.7489
 2100TIP3    H230496   0.281   1.979   1.037  1.1822 -0.3235 -0.0332
 2101TIP3   OH230497   4.054   5.893   0.892  0.1931  0.3214 -0.3002
 2101TIP3    H130498   4.106   5.903   0.971 -0.5040  0.0127  0.2116
 2101TIP3    H230499   3.976   5.947   0.907  1.0159  1.9781 -1.6671
 2102TIP3   OH230500   4.555   5.503   9.855  0.3451  0.0406 -0.0259
 2102TIP3    H130501   4.494   5.570   9.886  0.4425 -0.3970  1.1583
 2102TIP3    H230502   4.533   5.492   9.763 -3.0343 -1.7791  0.8318
 2103TIP3   OH230503   4.165   1.805   8.554  0.1769 -0.3786 -0.4132
 2103TIP3    H130504   4.146   1.782   8.645 -0.3118 -0.8743 -0.6321
 2103TIP3    H230505   4.220   1.733   8.522  0.7221  0.0179 -0.3860
 2104TIP3   OH230506   5.624   3.690   9.956  0.1731 -0.6308 -0.0240
 2104TIP3    H130507   5.608   3.778   9.992 -0.5065 -0.5839 -0.4196
 2104TIP3    H230508   5.716   3.673   9.975 -0.0946 -0.5056  1.5321
 2105TIP3   OH230509   6.492   4.248   9.317 -0.4396  0.3417 -0.0525
 2105TIP3    H130510   6.434   4.191   9.368 -0.7909 -0.2370 -1.0770
 2105TIP3    H230511   6.500   4.205   9.232  2.7664 -0.4291  0.5306
 2106TIP3   OH230512   6.858   5.615   8.761  0.4035 -0.0189  1.0942
 2106TIP3    H130513   6.931   5.554   8.755 -0.9396 -1.5852 -0.6098
 2106TIP3    H230514   6.790   5.568   8.808 -0.6989  0.0392 -0.3381
 2107TIP3   OH230515   4.826   7.324   8.955 -0.1154  0.4937  0.6999
 2107TIP3    H130516   4.823   7.383   9.029  2.0400  1.6751 -0.0698
 2107TIP3    H230517   4.789   7.374   8.882 -0.0763  0.1878  0.4645
 2108TIP3   OH230518   3.792   2.543   0.315 -0.3081  0.8038 -0.0650
 2108TIP3    H130519   3.860   2.610   0.321  1.1793 -0.6721  0.6215
 2108TIP3    H230520   3.839   2.464   0.288 -2.2460  0.3522 -2.5897
 2109TIP3   OH230521   2.804   0.671   9.359  0.2196 -0.0948  0.0975
 2109TIP3    H130522   2.739   0.729   9.319  0.5070 -0.6392 -1.1916
 2109TIP3    H230523   2.776   0.663   9.450 -1.9899 -0.9497 -0.5957
 2110TIP3   OH230524   4.142   0.840   0.265 -0.4811 -0.4228 -0.1243
 2110TIP3    H130525   4.224   0.794   0.243  0.4930  1.2811 -0.1764
 2110TIP3    H230526   4.073   0.777   0.241  0.7956 -2.6442  1.5868
 2111TIP3   OH230527   4.774   6.017   1.099 -0.6736  0.7539 -0.1995
 2111TIP3    H130528   4.867   6.010   1.079 -0.9573  0.1507 -1.4010
 2111TIP3    H230529   4.770   6.015   1.195  0.4309 -1.0411 -0.1461
 2112TIP3   OH230530   4.003   4.033   0.579 -0.0905  0.3371  0.3455
 2112TIP3    H130531   4.092   4.058   0.557  0.4052 -1.2379  0.4349
 2112TIP3    H230532   4.002   3.937   0.569 -2.5154  0.5052 -2.4053
 2113TIP3   OH230533   1.558   4.606   2.734 -0.7331 -0.0058 -0.1606
 2113TIP3    H130534   1.635   4.552   2.718 -0.8274 -0.4928  0.9667
 2113TIP3    H230535   1.555   4.617   2.829 -2.0151  0.0421 -0.1859
 2114TIP3   OH230536   2.462   3.164   1.465  0.1163  0.2289 -0.1636
 2114TIP3    H130537   2.380   3.117   1.451 -0.5669  1.3426 -0.0155
 2114TIP3    H230538   2.503   3.168   1.379 -1.1505  1.7456 -0.7524
 2115TIP3   OH230539   1.315   7.448   6.707  0.7693  0.0239 -0.3560
 2115TIP3    H130540   1.239   7.499   6.678 -0.7831 -1.3306  1.0661
 2115TIP3    H230541   1.298   7.360   6.671  1.4433 -0.4023  0.3583
 2116TIP3   OH230542   0.618   0.551   9.599 -0.6258 -0.2207  0.0055
 2116TIP3    H130543   0.666   0.478   9.639 -0.1872 -0.2756 -0.6058
 2116TIP3    H230544   0.662   0.565   9.515 -3.0233 -1.6790 -1.5862
 2117TIP3   OH230545   3.457   4.423   7.663  0.3381 -0.0788  0.1137
 2117TIP3    H130546   3.481   4.503   7.711 -0.2049 -0.1169  0.4559
 2117TIP3    H230547   3.537   4.370   7.663  0.6065  0.3209  0.1740
 2118TIP3   OH230548   7.227   5.687   8.161  0.0599 -0.0070  0.0495
 2118TIP3    H130549   7.167   5.716   8.231 -1.2170  0.8597 -1.3292
 2118TIP3    H230550   7.288   5.760   8.151  0.9936 -0.6307  1.0347
 2119TIP3   OH230551   1.420   2.244   1.440  0.3833 -0.7198 -0.0240
 2119TIP3    H130552   1.367   2.310   1.395 -0.5703 -1.0231  0.6296
 2119TIP3    H230553   1.427   2.172   1.377  1.5024  0.0115 -0.7743
 2120TIP3   OH230554   1.833   4.835   0.404  0.1540 -0.0919  0.3984
 2120TIP3    H130555   1.839   4.898   0.475  1.1022  1.3871 -0.9351
 2120TIP3    H230556   1.923   4.806   0.390 -0.3256 -2.4170  1.4872
 2121TIP3   OH230557   3.662   0.976   7.506 -0.4065 -0.5029 -0.1162
 2121TIP3    H130558   3.622   0.983   7.420 -0.8025 -3.6672 -0.3194
 2121TIP3    H230559   3.750   0.942   7.489 -0.0599 -0.0441  0.6846
 2122TIP3   OH230560   3.821   3.476   0.540 -0.1717 -0.1339 -0.8479
 2122TIP3    H130561   3.765   3.520   0.604  0.1145 -1.2143  0.1798
 2122TIP3    H230562   3.760   3.434   0.480 -0.4603 -0.1470 -0.5496
 2123TIP3   OH230563   3.292   7.138   1.367  0.0504  0.0061 -0.4987
 2123TIP3    H130564   3.290   7.219   1.418  1.6377 -0.3704  0.2215
 2123TIP3    H230565   3.201   7.110   1.363 -0.1702  0.2176  1.8607
 2124TIP3   OH230566   0.789   1.915   0.777  0.1965  0.3946  0.5242
 2124TIP3    H130567   0.786   1.825   0.744  0.5817  0.5564  0.0305
 2124TIP3    H230568   0.844   1.910   0.855 -0.1523  0.1251  0.7529
 2125TIP3   OH230569   1.258   4.951   9.979 -0.3395  0.2184 -0.4065
 2125TIP3    H130570   1.338   4.975  10.027  0.0204 -0.6844 -0.5320
 2125TIP3    H230571   1.280   4.967   9.887 -0.0785 -0.6328 -0.4953
 2126TIP3   OH230572   3.035   0.616   9.649  0.0235  0.0467  0.2271
 2126TIP3    H130573   3.086   0.687   9.610  0.2346  0.3537  1.0462
 2126TIP3    H230574   2.958   0.608   9.592  1.2137 -0.7765 -1.3285
 2127TIP3   OH230575   7.154   2.442   1.927  0.3314  0.1852 -0.1945
 2127TIP3    H130576   7.201   2.498   1.988  1.0292 -0.4241 -0.1584
 2127TIP3    H230577   7.164   2.485   1.842  0.2404  0.4922 -0.0516
 2128TIP3   OH230578   1.608   0.982   6.973 -0.5441  0.2946 -0.1680
 2128TIP3    H130579   1.591   1.044   6.902 -1.1007  1.9004  1.2896
 2128TIP3    H230580   1.664   1.030   7.034  1.6350 -1.7445 -0.4149
 2129TIP3   OH230581   1.482   2.242   8.497 -0.3016  0.1940  0.4959
 2129TIP3    H130582   1.422   2.171   8.477  0.2936 -0.2914  0.4323
 2129TIP3    H230583   1.435   2.321   8.469 -1.4728 -0.0430  1.6712
 2130TIP3   OH230584   3.087   6.017   8.815 -0.3548 -0.2800 -0.5199
 2130TIP3    H130585   3.149   6.016   8.888 -1.4524  0.1100  0.4448
 2130TIP3    H230586   3.002   6.000   8.856 -1.0087  0.1164 -1.6868
 2131TIP3   OH230587   7.168   0.214   7.114 -0.4580 -0.1813 -0.1341
 2131TIP3    H130588   7.250   0.167   7.128 -0.9471 -1.0926 -0.2800
 2131TIP3    H230589   7.196   0.303   7.090  0.4775 -0.4114  0.0474
 2132TIP3   OH230590   7.361   5.526   9.324 -0.3657  0.6640 -0.6596
 2132TIP3    H130591   7.322   5.530   9.411 -0.6678  1.9612 -0.8278
 2132TIP3    H230592   7.295   5.485   9.269 -1.1351  1.9640 -0.7427
 2133TIP3   OH230593   5.051   6.923   9.169  0.7441  0.4002  0.4964
 2133TIP3    H130594   5.078   6.889   9.255 -0.5826  0.8800  1.1272
 2133TIP3    H230595   4.989   6.993   9.190  1.3925  1.4158 -0.8385
 2134TIP3   OH230596   2.962   0.571   0.542  0.0553  0.6159  0.2011
 2134TIP3    H130597   3.046   0.596   0.581  1.1069 -0.2248 -1.4419
 2134TIP3    H230598   2.971   0.591   0.449 -1.0483 -0.7476 -0.2423
 2135TIP3   OH230599   0.320   5.901   1.365 -0.0823 -0.6814 -0.1904
 2135TIP3    H130600   0.350   5.960   1.295  0.6433  0.9053  1.3752
 2135TIP3    H230601   0.374   5.924   1.440 -1.0702 -2.0992  1.0123
 2136TIP3   OH230602   4.796   3.544   9.036  0.6578  0.1035  0.4126
 2136TIP3    H130603   4.768   3.579   8.951 -0.0148  0.6019  0.8190
 2136TIP3    H230604   4.718   3.552   9.091  1.5416  1.3738  1.5522
 2137TIP3   OH230605   3.202   0.229   7.944 -0.1246  0.3748  0.1734
 2137TIP3    H130606   3.144   0.190   8.009  0.6301  0.3154  0.8259
 2137TIP3    H230607   3.267   0.276   7.995  0.7951 -0.1059 -0.5244
 2138TIP3   OH230608   2.779   1.002   0.804 -0.2264 -0.0521  0.8163
 2138TIP3    H130609   2.758   0.924   0.753  2.5098 -0.4313  0.1662
 2138TIP3    H230610   2.773   1.074   0.742 -0.2270 -0.0753  0.7894
 2139TIP3   OH230611   6.238   5.803   2.349  0.2976  0.1104 -0.6798
 2139TIP3    H130612   6.321   5.781   2.391 -0.9246 -1.5023  1.0806
 2139TIP3    H230613   6.257   5.801   2.256  2.2610 -0.0711 -0.3220
 2140TIP3   OH230614   4.564   1.928   2.305 -0.1064 -0.2901 -0.3162
 2140TIP3    H130615   4.614   1.956   2.382  0.4421  0.9160 -1.0842
 2140TIP3    H230616   4.568   1.833   2.308  0.4218 -0.2564  0.8125
 2141TIP3   OH230617   2.815   6.973   2.033 -0.0609  0.0699 -0.7344
 2141TIP3    H130618   2.757   7.012   1.968  0.8124 -0.0063 -1.5720
 2141TIP3    H230619   2.797   6.879   2.029 -0.1623  0.0874 -0.7025
 2142TIP3   OH230620   0.123   3.142   0.346  0.3467 -0.1568 -0.5745
 2142TIP3    H130621   0.032   3.144   0.375  0.5715 -0.7609  0.1748
 2142TIP3    H230622   0.146   3.235   0.334 -0.4366 -0.0114 -1.0321
 2143TIP3   OH230623   5.210   1.734   1.322  0.2443 -0.1924 -0.7321
 2143TIP3    H130624   5.243   1.716   1.234 -0.9245 -0.0321 -1.2170
 2143TIP3    H230625   5.180   1.649   1.354  0.8280 -0.2828 -0.4098
 2144TIP3   OH230626   7.143   4.921   9.312  0.4038  0.1493 -0.1582
 2144TIP3    H130627   7.215   4.866   9.281  0.3828  0.3180 -0.5097
 2144TIP3    H230628   7.067   4.891   9.261  0.7262  1.6113 -1.5450
 2145TIP3   OH230629   4.782   5.291   9.706  0.2236 -0.3555 -0.1815
 2145TIP3    H130630   4.854   5.275   9.645  0.3325 -1.1349  0.1415
 2145TIP3    H230631   4.774   5.210   9.756  0.9517  0.6699  1.7047
 2146TIP3   OH230632   5.584   5.767   1.183  0.1497 -0.4120 -0.0691
 2146TIP3    H130633   5.503   5.750   1.230 -0.5205 -1.7166 -1.6261
 2146TIP3    H230634   5.562   5.757   1.091  1.5175  1.6590 -0.7061
 2147TIP3   OH230635   0.066   3.109   1.344  0.3239 -0.3177  0.3120
 2147TIP3    H130636   0.158   3.127   1.326 -0.5212  1.3990 -3.0367
 2147TIP3    H230637   0.018   3.152   1.274 -3.1654 -0.2860  2.4475
 2148TIP3   OH230638   4.540   6.938   8.007  0.2640  0.5001  0.3085
 2148TIP3    H130639   4.527   6.997   8.082 -0.4790  0.3924  0.2694
 2148TIP3    H230640   4.458   6.890   8.000 -0.3844  1.7658 -1.6848
 2149TIP3   OH230641   3.497   4.896   0.518  0.1311  0.0412 -0.3449
 2149TIP3    H130642   3.472   4.988   0.530  0.7052  0.1622 -0.0218
 2149TIP3    H230643   3.587   4.900   0.484  0.4835 -0.4051  0.5030
 2150TIP3   OH230644   2.473   3.600   7.620 -0.7525 -0.0148 -0.0083
 2150TIP3    H130645   2.516   3.598   7.705  0.2210  1.4488 -0.4235
 2150TIP3    H230646   2.385   3.632   7.638 -2.0670 -3.6311  0.9397
 2151TIP3   OH230647   4.073   0.570   1.602 -0.0534  0.1853  0.3851
 2151TIP3    H130648   4.070   0.565   1.698 -0.5813 -1.2218  0.3183
 2151TIP3    H230649   4.008   0.506   1.573 -0.6681  1.3655 -0.9147
 2152TIP3   OH230650   5.806   5.953   1.312 -0.5168 -0.3596  0.4639
 2152TIP3    H130651   5.791   6.047   1.324 -1.1302 -0.3386 -0.3304
 2152TIP3    H230652   5.719   5.915   1.309 -0.3838 -0.6147 -1.5852
 2153TIP3   OH230653   0.421   6.177   0.157  0.2020 -0.6140 -0.2798
 2153TIP3    H130654   0.392   6.219   0.076 -0.4148  0.7634  0.5928
 2153TIP3    H230655   0.431   6.085   0.135 -0.3046 -0.3309 -1.8203
 2154TIP3   OH230656   2.447   3.926   9.486 -0.7454  0.1869  0.0567
 2154TIP3    H130657   2.509   3.929   9.560 -1.5310  1.3961  0.6888
 2154TIP3    H230658   2.500   3.895   9.412  0.2048 -0.4561  0.9739
 2155TIP3   OH230659   3.647   0.873   1.496 -0.0212  0.2689 -0.7603
 2155TIP3    H130660   3.662   0.965   1.516 -0.3049  0.1840 -0.1180
 2155TIP3    H230661   3.651   0.829   1.581  0.6891 -0.3957 -1.1274
 2156TIP3   OH230662   3.357   1.169   7.401  0.6253 -0.7190 -0.4275
 2156TIP3    H130663   3.421   1.123   7.346  0.1770 -1.3147 -0.4693
 2156TIP3    H230664   3.299   1.099   7.433 -1.1080 -0.0287 -1.8358
 2157TIP3   OH230665   4.034   7.319   1.148 -0.5105  0.1763  0.4713
 2157TIP3    H130666   3.977   7.252   1.185  0.2469 -0.5949  0.2676
 2157TIP3    H230667   3.974   7.387   1.118 -1.4023 -1.0129 -0.5589
 2158TIP3   OH230668   1.734   3.413   2.241  0.2096 -0.8711 -0.0108
 2158TIP3    H130669   1.815   3.394   2.195 -0.3990 -1.0430 -1.0492
 2158TIP3    H230670   1.756   3.405   2.333  2.1778  2.1769 -0.0706
 2159TIP3   OH230671   2.132   2.060   8.288 -0.4138  0.9710 -0.1471
 2159TIP3    H130672   2.116   2.020   8.203  3.2883 -0.9935 -0.1564
 2159TIP3    H230673   2.199   2.126   8.271  2.3343 -1.1936  1.3629
 2160TIP3   OH230674   2.135   4.146   9.817 -0.8478  0.3040  0.3088
 2160TIP3    H130675   2.215   4.173   9.864 -0.8583  0.3898  0.2770
 2160TIP3    H230676   2.075   4.219   9.828 -0.0786  1.3301 -1.7365
 2161TIP3   OH230677   0.837   4.633   0.911 -0.3047  0.0509  0.1894
 2161TIP3    H130678   0.905   4.696   0.936 -0.4647  0.9656 -1.5064
 2161TIP3    H230679   0.780   4.627   0.987  2.5846 -2.1166  2.3958
 2162TIP3   OH230680   3.241   5.608   2.119 -0.6062 -0.5177 -0.2386
 2162TIP3    H130681   3.315   5.593   2.177  0.9528  1.5745 -1.5733
 2162TIP3    H230682   3.184   5.668   2.168 -0.6606 -0.8806  0.1543
 2163TIP3   OH230683   5.474   5.775   9.437 -0.0598  0.2767 -0.1913
 2163TIP3    H130684   5.419   5.816   9.370 -1.9576 -3.0760 -0.8902
 2163TIP3    H230685   5.421   5.779   9.517 -0.3276 -0.8364 -0.2974
 2164TIP3   OH230686   2.615   7.066   9.397  0.2290 -0.5129  0.5564
 2164TIP3    H130687   2.551   7.135   9.414  1.2103  0.7073 -0.5164
 2164TIP3    H230688   2.648   7.085   9.310  2.1617 -1.0169  1.1421
 2165TIP3   OH230689   6.998   3.704   1.754  0.0157  0.3170 -0.3144
 2165TIP3    H130690   7.022   3.620   1.714 -1.5846 -0.9452  1.2047
 2165TIP3    H230691   7.070   3.722   1.815 -0.0217 -0.3955 -0.0492
 2166TIP3   OH230692   2.036   0.901   1.441  0.1094  0.2093  0.1086
 2166TIP3    H130693   2.131   0.902   1.426  0.2439  0.9036  0.9366
 2166TIP3    H230694   2.001   0.955   1.370  0.5609  1.8493  1.0808
 2167TIP3   OH230695   6.500   5.341   1.266 -0.1445 -0.2937  0.5835
 2167TIP3    H130696   6.477   5.277   1.333 -0.2138  1.8224  2.7382
 2167TIP3    H230697   6.424   5.400   1.263  0.8899  1.0792  0.4992
 2168TIP3   OH230698   4.979   4.043   9.321 -0.4489 -0.4384  0.2232
 2168TIP3    H130699   4.898   4.004   9.288 -0.1704 -1.7201  0.9849
 2168TIP3    H230700   4.993   4.120   9.266 -1.5575 -0.8615 -0.6853
 2169TIP3   OH230701   6.919   2.246   8.960  0.0760  0.2924 -0.2238
 2169TIP3    H130702   6.890   2.309   8.894 -2.4856 -0.5255  0.0278
 2169TIP3    H230703   6.869   2.167   8.942 -0.7709  0.0394  2.6659
 2170TIP3   OH230704   0.941   3.025   7.572 -0.3568 -0.4803 -0.0879
 2170TIP3    H130705   1.022   2.975   7.578 -0.1000 -0.2870 -1.4480
 2170TIP3    H230706   0.968   3.116   7.583 -0.0275 -0.2196 -2.4689
 2171TIP3   OH230707   0.629   3.770   0.342 -0.1918 -0.1407 -0.1151
 2171TIP3    H130708   0.616   3.860   0.313 -1.1031 -0.0747  0.4419
 2171TIP3    H230709   0.719   3.768   0.375  0.4538  0.0773 -1.7832
 2172TIP3   OH230710   1.530   2.129   2.487  0.3445  0.1520  0.0492
 2172TIP3    H130711   1.464   2.136   2.418 -0.0999  0.4070  0.4923
 2172TIP3    H230712   1.486   2.083   2.558  0.4420  0.8530  0.5801
 2173TIP3   OH230713   1.995   4.274   6.843 -0.3538  0.7352  0.8466
 2173TIP3    H130714   1.926   4.239   6.787  0.8843 -0.1728 -0.1608
 2173TIP3    H230715   2.076   4.242   6.804  0.6526  1.8482  1.9488
 2174TIP3   OH230716   1.612   3.314   1.517 -0.1098 -0.5529 -0.3186
 2174TIP3    H130717   1.525   3.341   1.546 -0.8034 -1.6241 -1.3037
 2174TIP3    H230718   1.645   3.259   1.588  0.8058  1.7508  1.1382
 2175TIP3   OH230719   5.228   1.345   9.981  0.4714  0.0756 -0.0971
 2175TIP3    H130720   5.309   1.386  10.011  1.1876 -1.0839 -0.3739
 2175TIP3    H230721   5.162   1.414   9.988  1.1731  0.6246  1.5207
 2176TIP3   OH230722   4.643   3.234   8.962 -0.4416 -0.5368  0.2781
 2176TIP3    H130723   4.621   3.157   8.909 -0.1624  0.2733 -1.0824
 2176TIP3    H230724   4.638   3.307   8.900  2.7098  0.1294  0.6285
 2177TIP3   OH230725   3.894   3.962   9.338  0.0111 -0.3790 -0.2253
 2177TIP3    H130726   3.960   3.894   9.349 -0.7374 -1.2675 -1.0301
 2177TIP3    H230727   3.823   3.935   9.397 -1.4744 -1.8877 -2.5579
 2178TIP3   OH230728   7.314   7.333   8.872  0.5274 -0.4332  0.5101
 2178TIP3    H130729   7.328   7.239   8.880 -0.6278 -0.6439  0.1770
 2178TIP3    H230730   7.222   7.347   8.893  0.8167  0.7128  1.1455
 2179TIP3   OH230731   6.032   7.346   1.201 -0.0344  0.1298  0.8883
 2179TIP3    H130732   6.083   7.418   1.163 -0.7001  0.8918  1.4223
 2179TIP3    H230733   6.095   7.274   1.207  0.8980  0.9407  1.2039
 2180TIP3   OH230734   0.098   3.438   0.673  0.0283 -0.7294 -0.2015
 2180TIP3    H130735   0.157   3.412   0.602 -0.0031 -0.4515 -0.3309
 2180TIP3    H230736   0.149   3.497   0.727  0.0797 -1.0124  0.0588
 2181TIP3   OH230737   5.677   6.940   8.930 -0.1205  0.2175  0.1722
 2181TIP3    H130738   5.757   6.935   8.878  0.0973 -2.5279  0.6248
 2181TIP3    H230739   5.685   6.869   8.993 -2.3162  0.7471  1.1300
 2182TIP3   OH230740   1.664   5.232   9.304  0.5271 -0.0601 -0.1137
 2182TIP3    H130741   1.618   5.217   9.221  0.5993  0.4341 -0.2432
 2182TIP3    H230742   1.653   5.326   9.321  0.5088 -0.1607  0.4369
 2183TIP3   OH230743   2.631   3.383   2.211  0.4682 -0.1550 -0.1087
 2183TIP3    H130744   2.698   3.420   2.268 -1.0374  0.7611  1.1727
 2183TIP3    H230745   2.558   3.364   2.270 -2.1456  3.1521 -1.8860
 2184TIP3   OH230746   4.481   4.915   0.265  0.1757 -0.0671 -0.3949
 2184TIP3    H130747   4.453   5.005   0.246  0.5190 -0.1529 -1.3953
 2184TIP3    H230748   4.438   4.862   0.198  1.0618 -0.4628 -0.6625
 2185TIP3   OH230749   2.416   0.545   0.255  0.2365  0.5568  0.3134
 2185TIP3    H130750   2.479   0.578   0.319 -1.4886  1.1516  1.8016
 2185TIP3    H230751   2.355   0.618   0.241  0.2372  0.2324 -1.5991
 2186TIP3   OH230752   5.463   2.737   8.741 -0.4517  0.1334  0.6010
 2186TIP3    H130753   5.438   2.798   8.672  2.5351  0.3546 -0.4205
 2186TIP3    H230754   5.470   2.792   8.819  0.7743  0.8383  0.0143
 2187TIP3   OH230755   1.794   1.092   2.693  0.3887 -0.0847 -0.2576
 2187TIP3    H130756   1.856   1.100   2.621  1.2391 -0.6400  0.3952
 2187TIP3    H230757   1.812   1.168   2.749  0.4902 -0.2558 -0.0577
 2188TIP3   OH230758   2.104   0.786   0.020  0.0146  0.4145 -0.0461
 2188TIP3    H130759   2.106   0.691   0.034  1.7553  0.3765 -0.3246
 2188TIP3    H230760   2.072   0.795  -0.070 -2.3135  0.2470  0.6871
 2189TIP3   OH230761   3.024   5.199   2.503  0.2894  0.3466  0.1792
 2189TIP3    H130762   2.981   5.113   2.507 -0.2515  0.4990 -1.6099
 2189TIP3    H230763   3.115   5.181   2.527 -0.1673 -0.4350  1.4212
 2190TIP3   OH230764   5.663   0.153   9.863 -0.1006  0.0639 -0.0744
 2190TIP3    H130765   5.747   0.133   9.905 -0.2531  0.6960  0.5362
 2190TIP3    H230766   5.661   0.248   9.856 -0.1455 -0.0096 -1.4070
 2191TIP3   OH230767   1.940   5.875   7.638 -0.2491 -0.2275 -0.2645
 2191TIP3    H130768   2.004   5.896   7.706  0.5218  1.1574 -1.3414
 2191TIP3    H230769   1.962   5.935   7.566 -1.2955 -1.3415 -1.5653
 2192TIP3   OH230770   5.760   4.955   0.495 -0.2168  0.2098 -0.3232
 2192TIP3    H130771   5.793   5.037   0.531 -0.6666  0.0195  0.5594
 2192TIP3    H230772   5.760   4.968   0.400 -0.6024  1.3584 -0.1813
 2193TIP3   OH230773   2.166   7.141   1.822 -0.4688  0.2137  0.2978
 2193TIP3    H130774   2.246   7.190   1.839 -0.3403  0.0208  0.2506
 2193TIP3    H230775   2.193   7.049   1.825 -0.3243  0.1699 -1.4689
 2194TIP3   OH230776   3.338   2.875   7.455 -0.1771 -0.5222 -0.6819
 2194TIP3    H130777   3.308   2.857   7.543 -1.7587  0.1752 -1.0485
 2194TIP3    H230778   3.361   2.968   7.455  2.0965 -1.0082 -0.4236
 2195TIP3   OH230779   4.226   7.417   2.454 -0.3923  0.0228  0.2703
 2195TIP3    H130780   4.301   7.375   2.411 -0.9215  0.3716 -1.0686
 2195TIP3    H230781   4.152   7.362   2.431 -0.6296 -0.0534  1.1825
 2196TIP3   OH230782   0.319   5.091   1.338 -0.0236 -0.0625 -1.4046
 2196TIP3    H130783   0.328   4.997   1.359 -0.1943  0.3183  0.5965
 2196TIP3    H230784   0.276   5.092   1.253  1.6860 -1.7984 -2.3838
 2197TIP3   OH230785   6.900   3.387   8.625  0.2121  0.4209  0.1639
 2197TIP3    H130786   6.961   3.413   8.694 -1.3430  1.6173  1.1475
 2197TIP3    H230787   6.877   3.296   8.647  0.9276  0.2660  0.2943
 2198TIP3   OH230788   0.288   1.784   8.701  0.9707  0.4765  0.1292
 2198TIP3    H130789   0.340   1.857   8.667  0.9377  0.1525 -0.6257
 2198TIP3    H230790   0.198   1.814   8.696  0.9977  0.6040  0.3744
 2199TIP3   OH230791   7.280   5.766   0.044 -0.0313  0.2997  0.0585
 2199TIP3    H130792   7.229   5.838   0.007  0.9776  2.5506  2.7221
 2199TIP3    H230793   7.217   5.718   0.099 -0.6046 -0.6738 -1.3924
 2200TIP3   OH230794   2.806   1.896   7.768 -0.0918 -0.0730 -0.4466
 2200TIP3    H130795   2.888   1.940   7.790 -0.0188 -0.1436 -0.5787
 2200TIP3    H230796   2.748   1.967   7.738 -0.7973  0.3154  1.6446
 2201TIP3   OH230797   6.349   1.715   9.470  0.1418 -0.2184  0.0440
 2201TIP3    H130798   6.396   1.757   9.543 -1.4135  0.0424  0.9406
 2201TIP3    H230799   6.262   1.755   9.472 -0.0739 -0.5338 -1.7123
 2202TIP3   OH230800   3.261   7.438   8.520 -0.1418  0.3663 -0.1383
 2202TIP3    H130801   3.198   7.365   8.520 -0.3441  0.5408  0.1008
 2202TIP3    H230802   3.346   7.395   8.531 -0.1860  0.1051 -0.7342
 2203TIP3   OH230803   6.616   6.850   9.061 -0.2032 -0.4925 -0.5873
 2203TIP3    H130804   6.617   6.906   8.983  0.6150  1.2227  0.5928
 2203TIP3    H230805   6.688   6.789   9.048 -0.5065 -0.6852 -1.4589
 2204TIP3   OH230806   5.593   7.342   1.025 -0.4513 -0.0446  0.5416
 2204TIP3    H130807   5.651   7.335   1.101 -0.6617  2.6604  1.0842
 2204TIP3    H230808   5.648   7.381   0.956 -1.2543  1.5075  0.7205
 2205TIP3   OH230809   5.340   3.404   8.577 -0.7383  0.2664 -0.5593
 2205TIP3    H130810   5.284   3.469   8.619  0.7659  2.2348 -1.4327
 2205TIP3    H230811   5.385   3.452   8.508  0.5094 -1.7187 -1.2150
 2206TIP3   OH230812   1.261   6.783   7.740 -0.7394 -0.5606  0.1431
 2206TIP3    H130813   1.176   6.804   7.779 -0.5856 -2.2942  1.5378
 2206TIP3    H230814   1.317   6.858   7.761 -1.8553  0.5577 -0.7161
 2207TIP3   OH230815   6.301   1.409   1.629 -0.1121 -0.2977 -0.2643
 2207TIP3    H130816   6.216   1.406   1.672  0.1358 -0.1957  0.2394
 2207TIP3    H230817   6.355   1.348   1.679  0.0794 -0.4475 -0.6505
 2208TIP3   OH230818   2.469   1.458   9.183 -0.2551  0.0606 -0.3829
 2208TIP3    H130819   2.410   1.439   9.110 -0.1459 -0.0254 -0.4498
 2208TIP3    H230820   2.477   1.374   9.229 -1.0521  0.3327  0.2681
 2209TIP3   OH230821   4.073   1.362   2.409 -0.3858  0.0835  0.7479
 2209TIP3    H130822   4.044   1.433   2.466 -0.4613  0.1298  0.6514
 2209TIP3    H230823   3.996   1.306   2.399  0.5368 -1.9942  3.7382
 2210TIP3   OH230824   0.990   5.878   6.076  0.0649  0.0816 -0.1989
 2210TIP3    H130825   0.936   5.930   6.136  2.4513  1.2273  1.0912
 2210TIP3    H230826   1.050   5.830   6.133  0.6958 -0.8422 -1.5860
 2211TIP3   OH230827   5.459   7.123   0.452 -0.0784  0.8902  0.3557
 2211TIP3    H130828   5.368   7.093   0.457  0.5440 -0.9485  2.1867
 2211TIP3    H230829   5.471   7.145   0.360 -2.4614  1.5499  0.1209
 2212TIP3   OH230830   7.276   2.788   1.550  0.0968 -0.1093 -0.1895
 2212TIP3    H130831   7.216   2.863   1.556  0.1871 -0.0274 -0.2936
 2212TIP3    H230832   7.362   2.825   1.571  0.1373 -0.1899 -0.2155
 2213TIP3   OH230833   0.070   0.628   1.592  0.1787 -0.5437 -0.2018
 2213TIP3    H130834  -0.013   0.645   1.637  0.2156 -0.5724 -0.1229
 2213TIP3    H230835   0.078   0.700   1.529 -0.2293 -0.9054 -0.6678
 2214TIP3   OH230836   1.624   0.991   0.180 -0.5041 -0.0011 -0.6591
 2214TIP3    H130837   1.705   0.985   0.130  1.1159 -2.3406  1.9278
 2214TIP3    H230838   1.652   1.001   0.271 -3.1883  0.7251  0.1964
 2215TIP3   OH230839   0.865   0.871   2.600 -0.3468  0.0473  0.0038
 2215TIP3    H130840   0.951   0.875   2.559  0.6397 -1.7795  1.7206
 2215TIP3    H230841   0.882   0.890   2.693 -1.6344 -1.1648  0.5235
 2216TIP3   OH230842   5.096   7.219   8.917 -0.0632 -0.1193 -0.2315
 2216TIP3    H130843   5.121   7.127   8.921  1.3655  0.1067 -2.1920
 2216TIP3    H230844   5.012   7.219   8.871 -1.0151 -0.5182  1.4255
 2217TIP3   OH230845   5.283   4.697   1.723  0.7344  0.7344  0.2195
 2217TIP3    H130846   5.227   4.750   1.779  0.3386 -0.4594  1.0011
 2217TIP3    H230847   5.222   4.641   1.675  1.2146 -1.9267  2.4632
 2218TIP3   OH230848   6.459   2.758   9.989  0.0880  0.0111 -0.3518
 2218TIP3    H130849   6.368   2.789   9.992  0.3814  0.9420 -0.5421
 2218TIP3    H230850   6.483   2.766   9.896 -0.2237 -2.0503 -0.6451
 2219TIP3   OH230851   2.237   4.075   7.125  0.3552  0.1630 -0.0826
 2219TIP3    H130852   2.174   4.146   7.116  0.8213  0.6013  0.0945
 2219TIP3    H230853   2.323   4.116   7.114  0.6287 -0.3828 -0.0618
 2220TIP3   OH230854   7.408   4.997   2.238 -0.2902 -0.0705  0.1607
 2220TIP3    H130855   7.325   5.035   2.264 -0.4423  0.2688 -0.7658
 2220TIP3    H230856   7.384   4.922   2.183 -0.0079  0.3992 -0.6356
 2221TIP3   OH230857   4.077   7.172   8.942  0.3764  0.1698 -0.5686
 2221TIP3    H130858   4.164   7.208   8.961  1.1962 -2.3943  1.0622
 2221TIP3    H230859   4.088   7.125   8.859  0.1214  0.9947 -1.0890
 2222TIP3   OH230860   1.470   5.552   8.892 -0.1393 -0.3311 -0.4663
 2222TIP3    H130861   1.414   5.628   8.875 -0.8729 -0.2718  1.7977
 2222TIP3    H230862   1.422   5.478   8.856 -1.4753 -0.2035  0.9092
 2223TIP3   OH230863   7.258   2.018   8.931  0.0578  0.7149  0.2803
 2223TIP3    H130864   7.178   2.037   8.882  0.1204 -0.8721 -0.5134
 2223TIP3    H230865   7.300   2.103   8.944 -1.3022  1.4614 -0.0860
 2224TIP3   OH230866   2.812   2.041   8.353  0.0947 -0.2305  0.2039
 2224TIP3    H130867   2.846   2.042   8.263 -2.6280  1.0744 -0.9200
 2224TIP3    H230868   2.889   2.023   8.407  1.6331 -2.2867 -2.4200
 2225TIP3   OH230869   0.964   6.584   2.003  0.1365  0.3004  0.1427
 2225TIP3    H130870   0.895   6.644   2.031  0.7973  1.1099  0.0460
 2225TIP3    H230871   0.970   6.596   1.908  1.9631  1.9368  0.4139
 2226TIP3   OH230872   1.081   4.708   1.958 -0.5843  0.3546 -0.5156
 2226TIP3    H130873   1.118   4.787   1.998 -1.4789  0.7519 -0.4546
 2226TIP3    H230874   0.989   4.709   1.983 -0.6453 -0.6381 -0.6395
 2227TIP3   OH230875   3.433   0.013   7.932  0.1890  0.1892 -0.5501
 2227TIP3    H130876   3.383   0.048   8.005 -0.5646  1.4248 -1.6335
 2227TIP3    H230877   3.378  -0.057   7.896  1.0019 -1.1222  0.6337
 2228TIP3   OH230878   4.922   3.053   0.829 -0.1944  0.6395 -0.3673
 2228TIP3    H130879   4.842   3.057   0.881 -0.9953  0.8716 -1.5664
 2228TIP3    H230880   4.894   3.011   0.747  1.6401 -2.5394  0.4761
 2229TIP3   OH230881   2.784   2.100   2.426  0.3128  0.1451  0.1524
 2229TIP3    H130882   2.825   2.185   2.444 -1.9597  1.6531 -1.3946
 2229TIP3    H230883   2.820   2.074   2.341  0.3104 -0.0236  0.2020
 2230TIP3   OH230884   3.615   0.105   2.560 -0.9077  0.1342 -0.0889
 2230TIP3    H130885   3.658   0.022   2.579 -0.9888  0.0619 -0.2152
 2230TIP3    H230886   3.669   0.145   2.492 -1.1237 -0.0261 -0.3557
 2231TIP3   OH230887   1.188   2.497   9.027  0.4566 -0.1209  0.1487
 2231TIP3    H130888   1.276   2.531   9.043  0.3688 -0.1002  0.5833
 2231TIP3    H230889   1.147   2.562   8.970  0.7640 -0.1906 -0.1546
 2232TIP3   OH230890   1.300   1.806   2.025  0.3241  0.5043 -0.4468
 2232TIP3    H130891   1.224   1.755   1.999  1.3313 -1.1049 -0.3876
 2232TIP3    H230892   1.357   1.805   1.948  0.9326  0.3951 -0.0019
 2233TIP3   OH230893   5.172   2.204   7.768  0.0734 -0.2630 -0.2012
 2233TIP3    H130894   5.177   2.297   7.745 -3.0657 -0.1472 -0.9613
 2233TIP3    H230895   5.185   2.201   7.862 -0.4157  1.0507 -0.0724
 2234TIP3   OH230896   6.659   2.013   1.252  0.4250 -0.0165 -0.1970
 2234TIP3    H130897   6.651   2.101   1.214  0.8124 -0.3121 -0.9651
 2234TIP3    H230898   6.587   1.964   1.213 -1.0885  0.4809  1.7813
 2235TIP3   OH230899   5.576   4.780   1.621  0.3750  0.1606 -0.1369
 2235TIP3    H130900   5.634   4.709   1.648 -0.9324 -1.6090 -1.6635
 2235TIP3    H230901   5.508   4.783   1.688 -0.0716 -0.7065 -0.5350
 2236TIP3   OH230902   7.081   1.565   8.851  0.3192  0.0210  0.3043
 2236TIP3    H130903   6.995   1.602   8.828  0.1785 -0.9089 -0.7343
 2236TIP3    H230904   7.123   1.547   8.767  0.9184 -0.9519  0.7923
 2237TIP3   OH230905   7.384   2.552   2.065  0.0711  0.4897  0.1260
 2237TIP3    H130906   7.407   2.593   1.982  0.6182 -0.4235 -0.1942
 2237TIP3    H230907   7.468   2.531   2.106 -0.1339 -1.6773 -0.4368
 2238TIP3   OH230908   4.531   2.354   0.257 -0.2775 -0.3323  0.4076
 2238TIP3    H130909   4.445   2.393   0.274  0.8441  2.1689  0.6944
 2238TIP3    H230910   4.535   2.345   0.162 -0.0932  1.5660  0.1935
 2239TIP3   OH230911   3.509   0.062   8.774  0.4649 -0.5901  0.7446
 2239TIP3    H130912   3.474  -0.022   8.745  0.7142 -0.6178  0.5211
 2239TIP3    H230913   3.501   0.060   8.869 -1.4381 -0.0316  0.6422
 2240TIP3   OH230914   3.493   0.333   1.864  0.0389 -0.4081  0.0183
 2240TIP3    H130915   3.500   0.341   1.959  0.5396 -0.1065 -0.0434
 2240TIP3    H230916   3.443   0.253   1.851  1.9698 -1.7507  0.4933
 2241TIP3   OH230917   1.216   6.052   1.064 -0.2389 -0.2477  0.1921
 2241TIP3    H130918   1.190   5.960   1.063  0.9619 -0.6077 -1.3803
 2241TIP3    H230919   1.310   6.050   1.079 -0.0726  0.6776 -0.6429
 2242TIP3   OH230920   1.719   4.930   7.163  0.1532 -0.4611  0.1094
 2242TIP3    H130921   1.704   4.943   7.257  0.3114 -1.3154  0.2634
 2242TIP3    H230922   1.631   4.924   7.126  0.0090 -2.9980  0.6542
 2243TIP3   OH230923   2.438   4.617   9.455 -0.7665 -0.1786  0.2545
 2243TIP3    H130924   2.490   4.696   9.445 -1.6665  0.6171  1.5225
 2243TIP3    H230925   2.401   4.601   9.368  0.6681 -0.1259 -0.3894
 2244TIP3   OH230926   2.538   0.931   0.604  0.3520  0.6051  0.1282
 2244TIP3    H130927   2.577   1.017   0.619 -1.6772  1.9108 -1.4375
 2244TIP3    H230928   2.489   0.941   0.522 -0.3933 -1.9013  0.1819
 2245TIP3   OH230929   7.398   0.434   7.883  0.3309 -0.4084 -0.4506
 2245TIP3    H130930   7.455   0.358   7.875  0.8863  0.0298 -0.7623
 2245TIP3    H230931   7.411   0.464   7.973  0.3454 -0.4996 -0.4216
 2246TIP3   OH230932   0.604   4.544   9.752  0.1260  0.1614  0.0191
 2246TIP3    H130933   0.607   4.497   9.835 -1.4292  0.3524  0.2226
 2246TIP3    H230934   0.695   4.560   9.730  0.6874 -2.2337  0.3407
 2247TIP3   OH230935   3.807   2.997   9.007  0.0202 -0.4128 -0.4039
 2247TIP3    H130936   3.759   2.916   9.020 -1.8561  0.9334  1.9683
 2247TIP3    H230937   3.893   2.970   8.978 -0.9678 -3.1492 -1.0765
 2248TIP3   OH230938   4.156   2.829   2.150  0.0414 -0.5561 -0.3117
 2248TIP3    H130939   4.242   2.826   2.110  0.5186 -2.0731  0.7121
 2248TIP3    H230940   4.147   2.918   2.184  0.9237 -0.1970 -1.0074
 2249TIP3   OH230941   6.978   1.326   1.190  0.0667  0.1516  0.0795
 2249TIP3    H130942   6.949   1.235   1.183 -0.8944  0.3828  0.7501
 2249TIP3    H230943   7.068   1.321   1.222 -0.7530 -0.5554  2.4569
 2250TIP3   OH230944   3.447   0.833   0.687 -0.1599 -0.0465  0.1902
 2250TIP3    H130945   3.532   0.824   0.729  0.2562 -1.9341 -0.9632
 2250TIP3    H230946   3.429   0.927   0.690  0.4484  0.1014  3.3066
 2251TIP3   OH230947   0.894   1.920   2.619 -0.3474  0.1318  0.1755
 2251TIP3    H130948   0.868   1.829   2.630  1.0904 -0.2198  0.9413
 2251TIP3    H230949   0.812   1.968   2.613 -1.1291 -1.2483 -0.5960
 2252TIP3   OH230950   2.029   5.518   1.002  0.0887  0.0321  0.5615
 2252TIP3    H130951   2.064   5.599   1.038  1.1593  0.2056 -0.7800
 2252TIP3    H230952   1.980   5.545   0.924  2.8025 -0.7199 -1.6029
 2253TIP3   OH230953   0.501   6.149   2.537  0.0584 -0.1338  0.3873
 2253TIP3    H130954   0.420   6.127   2.583 -1.3364 -0.2601 -1.9407
 2253TIP3    H230955   0.507   6.245   2.541 -1.5387  0.0896 -1.3960
 2254TIP3   OH230956   3.420   5.129   8.509 -0.1749 -0.4667 -0.5370
 2254TIP3    H130957   3.403   5.064   8.577 -0.5311  1.4217  1.2862
 2254TIP3    H230958   3.412   5.081   8.427  0.6209 -2.9304  0.7287
 2255TIP3   OH230959   5.915   5.131   1.351 -0.3677  0.7550 -0.3732
 2255TIP3    H130960   5.832   5.106   1.392 -0.2519  2.8127  1.3057
 2255TIP3    H230961   5.981   5.112   1.417  0.4960 -0.4829 -1.5425
 2256TIP3   OH230962   6.249   3.146   0.934  0.7662 -0.1194 -0.2789
 2256TIP3    H130963   6.333   3.155   0.889  0.3906 -0.8563 -1.1526
 2256TIP3    H230964   6.272   3.136   1.026  1.6606 -0.7041 -0.5498
 2257TIP3   OH230965   5.780   0.099   1.791 -0.2369  0.3924  0.0551
 2257TIP3    H130966   5.754   0.082   1.881 -0.0032  0.1319  0.0743
 2257TIP3    H230967   5.876   0.101   1.793 -0.2225  2.9571  0.2862
 2258TIP3   OH230968   0.138   5.754   7.332 -0.3520 -0.0293  0.7169
 2258TIP3    H130969   0.072   5.779   7.267 -0.1797 -0.4894  0.3637
 2258TIP3    H230970   0.134   5.659   7.334  0.5420 -0.0727  0.4544
 2259TIP3   OH230971   0.692   3.883   7.911  0.1181  0.4024  0.0213
 2259TIP3    H130972   0.665   3.974   7.918 -2.1988 -0.3021  1.5527
 2259TIP3    H230973   0.639   3.848   7.839 -0.2995 -0.1106  0.5657
 2260TIP3   OH230974   2.407   0.220   9.032  0.6522  0.0677  0.0978
 2260TIP3    H130975   2.492   0.206   8.989  0.2026 -0.8430 -0.5346
 2260TIP3    H230976   2.353   0.263   8.966  0.8502  1.4141  0.7741
 2261TIP3   OH230977   3.006   7.433   7.875 -0.0059 -0.1834 -0.0021
 2261TIP3    H130978   3.034   7.347   7.908  1.8511  0.4872  0.3026
 2261TIP3    H230979   2.999   7.487   7.954 -0.9352  0.0245 -0.2159
 2262TIP3   OH230980   4.815   0.678   9.051  0.1712 -0.0495 -0.1880
 2262TIP3    H130981   4.735   0.731   9.055 -0.4990 -1.0515 -0.0661
 2262TIP3    H230982   4.884   0.741   9.027 -0.4517  1.0299  0.7209
 2263TIP3   OH230983   4.193   6.711   8.052 -0.2823 -0.4828 -0.0315
 2263TIP3    H130984   4.249   6.708   8.129 -0.3503 -3.4891  0.0065
 2263TIP3    H230985   4.248   6.748   7.983  0.0543  1.3868  1.1609
 2264TIP3   OH230986   2.160   5.657   7.763 -0.0101  0.3075  0.4596
 2264TIP3    H130987   2.071   5.692   7.768  0.4748  1.9703 -1.1917
 2264TIP3    H230988   2.172   5.610   7.845 -2.5525 -0.3557  0.5415
 2265TIP3   OH230989   0.820   6.218   0.498 -0.0600  0.3029 -0.7255
 2265TIP3    H130990   0.832   6.289   0.561  1.5225 -1.7191  1.4410
 2265TIP3    H230991   0.782   6.146   0.550  1.1813 -1.4183 -2.0793
 2266TIP3   OH230992   3.693   1.189   0.608 -0.4075  0.5226 -0.0854
 2266TIP3    H130993   3.728   1.278   0.613  3.0682 -0.6347 -0.6157
 2266TIP3    H230994   3.725   1.147   0.688  2.0322 -1.3764 -1.8885
 2267TIP3   OH230995   2.542   5.997   0.493  0.0166 -0.4901  0.1054
 2267TIP3    H130996   2.586   6.001   0.578 -1.3128 -0.2980  0.8196
 2267TIP3    H230997   2.508   6.086   0.479 -1.7263 -1.0441  0.4950
 2268TIP3   OH230998   2.981   1.066   0.040 -0.0737 -0.6405  0.6404
 2268TIP3    H130999   3.051   1.013   0.002 -0.2305 -0.8774  0.6802
 2268TIP3    H231000   2.965   1.027   0.126  0.3274 -0.0655  0.9862
 2269TIP3   OH231001   3.901   5.225   8.253  0.0923 -0.3885 -0.2330
 2269TIP3    H131002   3.816   5.264   8.231 -0.3259 -1.8609 -1.3578
 2269TIP3    H231003   3.961   5.259   8.186 -0.0004 -0.7239 -0.4860
 2270TIP3   OH231004   6.147   3.791   8.890 -0.1608 -0.3644 -0.0622
 2270TIP3    H131005   6.095   3.791   8.970  0.1931 -0.8887  0.1732
 2270TIP3    H231006   6.124   3.873   8.846 -0.0663  0.1158  0.7674
 2271TIP3   OH231007   2.624   4.515   2.297  0.0015  0.6563 -0.3172
 2271TIP3    H131008   2.703   4.465   2.279 -1.1797 -1.8492  0.8903
 2271TIP3    H231009   2.644   4.564   2.376  0.7690  1.1052 -0.7830
 2272TIP3   OH231010   6.948   6.000   0.116 -0.0206 -0.0768 -0.1850
 2272TIP3    H131011   6.897   5.993   0.197 -0.7119  2.2539 -0.3583
 2272TIP3    H231012   7.032   6.037   0.143  0.7844 -1.7445 -0.2328
 2273TIP3   OH231013   2.200   6.907   7.156  0.1828  0.5582  0.2698
 2273TIP3    H131014   2.194   6.978   7.092 -0.6147  0.7111  0.5035
 2273TIP3    H231015   2.265   6.938   7.219 -2.0734  2.3205  1.8627
 2274TIP3   OH231016   5.949   5.903   8.921 -1.1106  0.2850  0.0089
 2274TIP3    H131017   5.940   5.838   8.991 -0.9038  0.6254  0.3495
 2274TIP3    H231018   5.899   5.978   8.950  0.0341  0.9216  0.3885
 2275TIP3   OH231019   5.998   1.014   2.230  0.0037 -0.3893  0.1816
 2275TIP3    H131020   5.992   1.106   2.204 -1.3633 -0.7363 -0.8488
 2275TIP3    H231021   5.939   1.007   2.305 -0.4674 -0.5517 -0.1931
 2276TIP3   OH231022   1.037   7.063   7.557  0.5899 -0.4099 -0.3700
 2276TIP3    H131023   1.036   7.076   7.462  1.9803 -1.6579 -0.5985
 2276TIP3    H231024   1.022   6.969   7.568  0.9149 -0.3559  0.6013
 2277TIP3   OH231025   7.378   5.747   7.155 -0.4272  0.6488 -0.4328
 2277TIP3    H131026   7.333   5.830   7.136 -0.5199  0.5269 -0.7639
 2277TIP3    H231027   7.308   5.688   7.184 -0.6431  0.1876 -1.8224
 2278TIP3   OH231028   5.818   5.333   0.051 -0.0463 -0.2951 -0.3745
 2278TIP3    H131029   5.791   5.341   0.142  1.4870 -1.0092  0.1776
 2278TIP3    H231030   5.766   5.398   0.004  0.3927  1.3195  1.2853
 2279TIP3   OH231031   2.417   3.878   6.196  0.1264  0.1001 -0.3606
 2279TIP3    H131032   2.393   3.971   6.200  1.6339  0.5404 -0.6638
 2279TIP3    H231033   2.511   3.879   6.175 -0.1075 -1.5139 -1.6687
 2280TIP3   OH231034   0.913   7.298   7.925 -0.7425  0.0865 -0.1171
 2280TIP3    H131035   0.857   7.373   7.945 -1.5454  0.0440 -1.9918
 2280TIP3    H231036   0.853   7.233   7.888  0.2001 -0.8510 -0.0360
 2281TIP3   OH231037   0.888   5.035   7.175  0.0394  0.1854 -0.3911
 2281TIP3    H131038   0.860   5.073   7.092 -1.6921  0.9283  0.4830
 2281TIP3    H231039   0.809   4.992   7.209  0.9768 -0.9583  0.4295
 2282TIP3   OH231040   0.453   1.907   0.205 -0.4613 -0.1569  0.1022
 2282TIP3    H131041   0.420   1.997   0.194  0.7059  0.3149  0.2557
 2282TIP3    H231042   0.548   1.917   0.208 -0.3297 -1.3645  0.5595
 2283TIP3   OH231043   4.965   0.622   1.696 -0.8043  0.0725  0.0698
 2283TIP3    H131044   5.028   0.690   1.718  0.3847 -1.2827  1.1170
 2283TIP3    H231045   4.924   0.651   1.614 -0.1894  1.8981  0.3861
 2284TIP3   OH231046   7.096   5.488   8.809  0.2788 -0.4834  0.2897
 2284TIP3    H131047   7.060   5.482   8.897 -2.0648 -2.2946 -0.6836
 2284TIP3    H231048   7.135   5.402   8.794  1.1642 -0.0016 -0.2663
 2285TIP3   OH231049   4.511   0.818   9.043 -0.3782 -0.0630 -0.3206
 2285TIP3    H131050   4.476   0.907   9.044 -1.2953 -0.4094  0.9757
 2285TIP3    H231051   4.446   0.766   9.090  0.3257 -1.3528 -0.7281
 2286TIP3   OH231052   6.581   4.806   0.307 -0.6835 -0.5048 -0.4598
 2286TIP3    H131053   6.566   4.718   0.342  0.0887 -0.0516  1.0728
 2286TIP3    H231054   6.526   4.863   0.360 -2.3729 -0.1807 -2.4430
 2287TIP3   OH231055   2.964   1.559   7.424 -0.0919  0.5483 -0.0742
 2287TIP3    H131056   3.026   1.497   7.386 -1.2312 -1.1511  0.6960
 2287TIP3    H231057   2.892   1.562   7.361 -0.1788  0.8811  0.0369
 2288TIP3   OH231058   0.260   5.598   2.212 -0.0472 -0.3459  0.0987
 2288TIP3    H131059   0.225   5.631   2.129  0.1300 -0.7448 -0.1371
 2288TIP3    H231060   0.189   5.611   2.275 -0.5861 -1.0351 -0.3474
 2289TIP3   OH231061   6.631   6.138   1.833  0.3631  0.2084  0.5821
 2289TIP3    H131062   6.622   6.232   1.849  0.9852  0.8217 -2.2343
 2289TIP3    H231063   6.704   6.111   1.890 -0.3566  1.1972  2.0446
 2290TIP3   OH231064   2.989   7.137   2.366  0.0589 -0.9784 -0.0815
 2290TIP3    H131065   2.938   7.218   2.359  1.6466 -0.0492 -2.1024
 2290TIP3    H231066   2.963   7.099   2.450 -0.6839  1.6853  0.9888
 2291TIP3   OH231067   0.398   3.165   7.871 -0.3564 -0.2545 -0.1848
 2291TIP3    H131068   0.448   3.196   7.946 -1.4032  0.8194  0.0966
 2291TIP3    H231069   0.462   3.156   7.801  0.3419  0.4254  0.3581
 2292TIP3   OH231070   1.923   3.110   8.995 -0.5332 -0.5534  0.1489
 2292TIP3    H131071   1.995   3.124   9.056 -0.1116  2.3493 -0.8756
 2292TIP3    H231072   1.847   3.097   9.051  0.2784 -0.6111  1.2679
 2293TIP3   OH231073   2.281   2.970   1.391  0.4478  0.9035 -0.3431
 2293TIP3    H131074   2.267   2.907   1.461  1.3540 -1.8647 -2.4619
 2293TIP3    H231075   2.194   3.003   1.370  0.0673  1.0735  1.4174
 2294TIP3   OH231076   6.813   6.079   7.283 -0.1744  0.4544  0.4741
 2294TIP3    H131077   6.876   6.134   7.237 -2.4317  2.0340 -0.9515
 2294TIP3    H231078   6.847   5.990   7.274  2.1736  1.2973  0.4262
 2295TIP3   OH231079   7.296   2.399   1.025 -0.2313 -0.2564 -0.8265
 2295TIP3    H131080   7.223   2.407   0.964 -0.9998 -0.7813  0.0045
 2295TIP3    H231081   7.330   2.310   1.010 -2.3286 -1.5896  1.5139
 2296TIP3   OH231082   1.838   1.811   1.474  0.0166  0.3630 -0.1252
 2296TIP3    H131083   1.782   1.736   1.495 -1.1273  1.2195 -0.0125
 2296TIP3    H231084   1.791   1.857   1.404  0.6184  1.0619 -0.0801
 2297TIP3   OH231085   0.265   0.361   9.279  0.3153  0.2625  0.2071
 2297TIP3    H131086   0.200   0.339   9.211 -0.3459  0.1512  0.8616
 2297TIP3    H231087   0.318   0.431   9.240  0.0619  0.0680 -0.4947
 2298TIP3   OH231088   7.129   3.466   9.206  0.1443 -0.1195 -0.5388
 2298TIP3    H131089   7.173   3.404   9.263 -0.6584 -0.2735 -0.0729
 2298TIP3    H231090   7.046   3.424   9.183 -1.1839  1.4165  1.1412
 2299TIP3   OH231091   4.700   4.997   2.595  0.2478 -0.7798  0.7723
 2299TIP3    H131092   4.759   5.055   2.547  0.5178 -0.8523  1.0166
 2299TIP3    H231093   4.665   4.938   2.528 -1.2457  0.6470  0.2201
 2300TIP3   OH231094   6.294   0.681   0.486 -0.1097  0.0152  0.6071
 2300TIP3    H131095   6.363   0.747   0.499  1.7928 -1.6014 -0.6803
 2300TIP3    H231096   6.341   0.605   0.453 -2.3288 -1.7712  1.3771
 2301TIP3   OH231097   3.761   2.738   0.991  0.1791  0.8570 -0.4458
 2301TIP3    H131098   3.758   2.661   0.935  0.1456  0.9474 -0.5692
 2301TIP3    H231099   3.851   2.771   0.982  0.0752  1.0723 -0.7212
 2302TIP3   OH231100   6.411   6.219   8.646  0.7891  0.0492  0.3287
 2302TIP3    H131101   6.445   6.206   8.735  0.0341  1.3433  0.8495
 2302TIP3    H231102   6.316   6.219   8.657  0.6873  0.0973 -0.5035
 2303TIP3   OH231103   4.499   1.196   8.704  0.2858  0.1559  0.0547
 2303TIP3    H131104   4.410   1.195   8.740 -0.4993 -0.5923 -1.8006
 2303TIP3    H231105   4.550   1.244   8.769 -1.7380  1.8341  0.5190
 2304TIP3   OH231106   5.157   6.949   8.910  0.3068  0.2762  0.4546
 2304TIP3    H131107   5.105   6.919   8.985  1.8794  0.2890  1.5796
 2304TIP3    H231108   5.147   6.878   8.846 -1.0313  0.2439  0.6499
 2305TIP3   OH231109   5.696   2.443   1.850  0.5262 -0.4258  0.2525
 2305TIP3    H131110   5.789   2.449   1.830  1.0919 -2.7170  1.8414
 2305TIP3    H231111   5.691   2.388   1.928 -2.1342  0.2487  0.6786
 2306TIP3   OH231112   3.043   3.337   7.764 -0.4780 -0.2369 -0.3081
 2306TIP3    H131113   3.050   3.242   7.768  3.8847 -0.0906  3.2926
 2306TIP3    H231114   2.984   3.359   7.837 -1.3840 -0.1344 -1.0608
 2307TIP3   OH231115   5.236   2.809   9.078  0.4830 -0.4747 -0.3896
 2307TIP3    H131116   5.272   2.723   9.097  0.3814 -1.1601 -2.8838
 2307TIP3    H231117   5.313   2.865   9.067  0.6094 -0.6133 -0.2088
 2308TIP3   OH231118   4.562   2.421   1.569 -0.5202 -0.1808  0.1080
 2308TIP3    H131119   4.542   2.515   1.576  2.4131  0.4001  3.1497
 2308TIP3    H231120   4.611   2.413   1.488 -0.3769  1.0498  0.0470
 2309TIP3   OH231121   5.145   2.519   0.414 -0.3980  0.4786  0.1528
 2309TIP3    H131122   5.076   2.456   0.396 -0.0814 -0.2296  1.3252
 2309TIP3    H231123   5.218   2.466   0.447  0.8530  1.1598 -1.3654
 2310TIP3   OH231124   4.811   2.418   7.356  0.0228 -0.4902 -0.0028
 2310TIP3    H131125   4.895   2.446   7.320 -0.1153  0.1204  0.1367
 2310TIP3    H231126   4.832   2.340   7.408  0.6524  0.1527  0.7465
 2311TIP3   OH231127   2.994   1.087   2.218 -0.0559 -0.1272 -0.4719
 2311TIP3    H131128   2.977   1.051   2.305  2.2385  1.1870  0.6063
 2311TIP3    H231129   3.042   1.018   2.172 -1.6798 -1.0053 -0.9189
 2312TIP3   OH231130   7.245   3.681   2.183 -0.3326 -0.1835 -0.3225
 2312TIP3    H131131   7.263   3.755   2.241  0.4696  0.3650 -1.2268
 2312TIP3    H231132   7.154   3.657   2.201 -0.2703  0.3315  0.7410
 2313TIP3   OH231133   4.729   4.904   7.990 -0.2184  0.1369 -0.5479
 2313TIP3    H131134   4.767   4.849   7.922  0.9422 -0.1533  0.2936
 2313TIP3    H231135   4.749   4.858   8.072 -0.5756  1.0384  0.0684
 2314TIP3   OH231136   5.202   2.557   1.466 -0.1771  0.4670  0.0329
 2314TIP3    H131137   5.243   2.640   1.488  0.1238  0.2772  0.1941
 2314TIP3    H231138   5.272   2.492   1.473 -0.3013  0.2634 -0.5381
 2315TIP3   OH231139   2.429   2.209   2.325 -0.2960  0.2776  0.3163
 2315TIP3    H131140   2.338   2.238   2.333 -0.1179  0.7048  0.8467
 2315TIP3    H231141   2.479   2.290   2.311 -0.0021  0.0435  0.0132
 2316TIP3   OH231142   6.656   6.223   8.111  0.6813 -0.0456 -0.6465
 2316TIP3    H131143   6.573   6.215   8.064  1.3224 -1.2569 -1.6466
 2316TIP3    H231144   6.645   6.299   8.167 -0.2874  1.2225 -2.4492
 2317TIP3   OH231145   6.933   0.030   0.665 -0.0151 -0.1646 -0.2811
 2317TIP3    H131146   6.964  -0.011   0.584 -0.0107  0.9978 -0.8856
 2317TIP3    H231147   7.009   0.031   0.723  0.3503  0.2300 -0.7632
 2318TIP3   OH231148   1.376   4.395   8.049 -0.2102  0.4079 -0.0503
 2318TIP3    H131149   1.317   4.333   8.007  0.1909  0.6708 -1.0369
 2318TIP3    H231150   1.370   4.474   7.995  0.6427  0.6078  0.1369
 2319TIP3   OH231151   5.716   6.898   0.425 -0.2584  0.1831  0.5109
 2319TIP3    H131152   5.642   6.900   0.364  0.8207  0.3062 -0.8329
 2319TIP3    H231153   5.793   6.882   0.370  0.5773 -1.4172  2.0427
 2320TIP3   OH231154   3.004   6.756   7.279  0.3138 -0.1178 -0.5017
 2320TIP3    H131155   2.980   6.705   7.202  0.3997  0.0493 -0.6386
 2320TIP3    H231156   3.020   6.844   7.246  1.8067 -0.3811 -0.5159
 2321TIP3   OH231157   1.431   2.118   1.193  0.3862 -0.4987  0.2440
 2321TIP3    H131158   1.433   2.120   1.097  1.7099  1.6114  0.2306
 2321TIP3    H231159   1.351   2.070   1.215  0.5640 -1.9150 -1.8800
 2322TIP3   OH231160   2.600   3.434   6.837  0.2878 -0.5139  0.9315
 2322TIP3    H131161   2.573   3.440   6.928 -0.5585 -1.0522  0.7300
 2322TIP3    H231162   2.573   3.346   6.809  0.6299 -0.3965  0.1997
 2323TIP3   OH231163   2.417   0.281   7.777  0.6540 -0.0887  0.4484
 2323TIP3    H131164   2.458   0.196   7.764 -0.2460 -0.7195  1.4746
 2323TIP3    H231165   2.328   0.260   7.808 -0.0266  1.2154 -0.5335
 2324TIP3   OH231166   4.964   3.854   1.447  0.1476 -0.4150 -0.2157
 2324TIP3    H131167   4.929   3.788   1.507 -0.6721 -0.5936 -0.8776
 2324TIP3    H231168   4.902   3.927   1.453 -0.0988 -0.5425 -1.0401
 2325TIP3   OH231169   7.376   6.235   9.181  0.2209  0.0837  0.0091
 2325TIP3    H131170   7.439   6.255   9.250 -0.1722 -0.7241  0.6103
 2325TIP3    H231171   7.290   6.248   9.223 -0.0467 -1.9235  0.1602
 2326TIP3   OH231172   1.947   2.562   7.791 -0.2970 -0.1058 -0.2162
 2326TIP3    H131173   1.860   2.532   7.816 -0.4504 -0.1970 -0.8546
 2326TIP3    H231174   1.957   2.536   7.700 -0.4599  1.8402 -0.8266
 2327TIP3   OH231175   1.624   2.345   1.201 -0.2515  0.0716 -0.1361
 2327TIP3    H131176   1.628   2.381   1.289  1.7264  1.3315 -0.6979
 2327TIP3    H231177   1.538   2.302   1.197 -0.3517 -0.1083  2.4064
 2328TIP3   OH231178   7.235   5.522   7.227  0.2287  0.7099 -0.4749
 2328TIP3    H131179   7.285   5.446   7.259  1.8169  1.5701 -0.7777
 2328TIP3    H231180   7.172   5.540   7.297 -0.3891 -1.0449 -0.5275
 2329TIP3   OH231181   6.115   7.053   1.312 -0.3964 -0.4943 -0.4014
 2329TIP3    H131182   6.051   7.033   1.380 -2.4607  0.1474 -2.0572
 2329TIP3    H231183   6.075   7.021   1.231  2.7346 -2.8714 -1.2201
 2330TIP3   OH231184   2.785   1.989   1.890 -0.4257  0.1250  0.0721
 2330TIP3    H131185   2.811   1.990   1.982 -0.7938  0.1164  0.1799
 2330TIP3    H231186   2.855   2.035   1.845 -0.3885  0.3960  0.3982
 2331TIP3   OH231187   4.268   3.598   9.440 -0.3979  0.3991 -0.2079
 2331TIP3    H131188   4.224   3.559   9.365 -0.1864 -1.5134  0.6197
 2331TIP3    H231189   4.357   3.616   9.408 -0.6959  0.8897 -0.7964
 2332TIP3   OH231190   5.698   5.958   1.610  0.0035  0.1741  0.1406
 2332TIP3    H131191   5.737   5.923   1.690  0.3137  0.9505  0.3449
 2332TIP3    H231192   5.690   5.883   1.551  0.0495 -0.3459  0.7919
 2333TIP3   OH231193   3.923   3.665   9.471  0.2476 -0.0977  0.0413
 2333TIP3    H131194   3.878   3.682   9.553 -2.2836 -0.0530 -1.2833
 2333TIP3    H231195   3.886   3.583   9.440  0.8868  0.0812 -1.2648
 2334TIP3   OH231196   1.046   5.577   2.592 -0.0837 -0.0454  0.0803
 2334TIP3    H131197   1.044   5.597   2.499 -2.9865  0.4155  0.1583
 2334TIP3    H231198   1.127   5.618   2.624  0.0493  1.3440 -1.8771
 2335TIP3   OH231199   0.279   3.903   0.050 -0.6759 -0.6327  0.4647
 2335TIP3    H131200   0.201   3.925   0.100 -0.3491 -0.6138  0.9750
 2335TIP3    H231201   0.247   3.879  -0.036 -1.0949  1.5775 -0.0646
 2336TIP3   OH231202   4.819   1.434   1.669 -0.0193  0.4371 -0.3191
 2336TIP3    H131203   4.866   1.499   1.721 -2.1392  0.1887  2.0886
 2336TIP3    H231204   4.765   1.387   1.732 -3.7002  0.8735 -2.8344
 2337TIP3   OH231205   3.448   3.717   9.928  0.1575 -0.5429 -0.2215
 2337TIP3    H131206   3.418   3.753  10.011  1.4001 -1.0074  0.4507
 2337TIP3    H231207   3.376   3.660   9.899 -0.4181 -0.1183  0.3539
 2338TIP3   OH231208   4.988   2.558   8.443 -0.2050 -0.2440 -0.3847
 2338TIP3    H131209   5.077   2.581   8.471  0.8602 -0.5992 -3.1711
 2338TIP3    H231210   4.982   2.464   8.457 -1.0130  0.0805  1.8511
 2339TIP3   OH231211   4.366   5.698   9.913 -0.0196 -0.4337 -0.6983
 2339TIP3    H131212   4.365   5.735  10.001  0.9480 -0.0076 -0.8596
 2339TIP3    H231213   4.279   5.658   9.903 -0.9567  1.4138 -0.3725
 2340TIP3   OH231214   6.610   0.835   9.210  0.3592 -0.4281  0.1348
 2340TIP3    H131215   6.692   0.884   9.198 -0.3054  0.4265 -1.0798
 2340TIP3    H231216   6.637   0.743   9.204  1.2496 -0.1688 -0.0619
 2341TIP3   OH231217   0.869   3.870   9.721  0.4899 -0.2479  0.1646
 2341TIP3    H131218   0.790   3.842   9.674  0.7046 -1.4264  0.4720
 2341TIP3    H231219   0.837   3.929   9.790  0.1867  1.6867 -1.5229
 2342TIP3   OH231220   2.799   0.265   7.447 -0.5982 -0.2153  0.5998
 2342TIP3    H131221   2.818   0.272   7.541  1.2798  0.2576  0.2258
 2342TIP3    H231222   2.872   0.310   7.404 -1.8440  0.3402 -1.0822
 2343TIP3   OH231223   2.995   0.101   9.995 -0.0837  0.5138 -0.6777
 2343TIP3    H131224   3.031   0.152   9.923 -1.0908  1.8282 -0.2787
 2343TIP3    H231225   3.067   0.045  10.022  1.2767  2.1475 -0.7470
 2344TIP3   OH231226   3.068   2.080   2.638 -0.4927 -0.2671  0.1561
 2344TIP3    H131227   3.028   2.122   2.714  1.0947 -1.4258  1.7183
 2344TIP3    H231228   3.064   2.146   2.569 -0.2700  1.5493  1.7942
 2345TIP3   OH231229   2.666   3.816   9.355 -0.1328  0.5804 -0.1549
 2345TIP3    H131230   2.661   3.894   9.299  1.7425 -0.0316 -1.2755
 2345TIP3    H231231   2.751   3.778   9.335 -0.1643 -0.6835  1.8488
 2346TIP3   OH231232   3.755   2.487   0.629  0.0952  0.5374 -0.0954
 2346TIP3    H131233   3.814   2.563   0.623  1.8234 -0.5218  2.2169
 2346TIP3    H231234   3.684   2.517   0.685  0.4773  0.6221  0.3488
 2347TIP3   OH231235   4.875   5.432   1.850 -0.1279 -0.4407 -0.4696
 2347TIP3    H131236   4.894   5.459   1.940 -0.1233  0.3581 -0.7006
 2347TIP3    H231237   4.780   5.440   1.843 -0.0022  0.9186 -0.9576
 2348TIP3   OH231238   2.333   5.948   3.007  0.6411 -0.1418 -0.2945
 2348TIP3    H131239   2.249   5.904   3.005  0.8171 -0.5125  0.1621
 2348TIP3    H231240   2.397   5.880   2.984  0.7695  0.2619 -1.1482
 2349TIP3   OH231241   1.531   7.141   1.268  0.2219  0.2657  0.2233
 2349TIP3    H131242   1.464   7.131   1.200  0.6167 -0.2639 -0.0957
 2349TIP3    H231243   1.485   7.181   1.341 -0.3859  0.1393 -0.0848
 2350TIP3   OH231244   6.491   6.354   9.657  0.6099 -0.1127 -0.2774
 2350TIP3    H131245   6.432   6.320   9.590  1.4193 -1.3899 -0.3884
 2350TIP3    H231246   6.568   6.296   9.653  0.5322 -0.4960  1.9865
 2351TIP3   OH231247   4.904   0.963   9.842 -0.5732 -0.1166  0.3283
 2351TIP3    H131248   4.835   0.898   9.832 -0.4938 -0.5111  2.0104
 2351TIP3    H231249   4.986   0.913   9.836 -0.4831  0.0155  0.4225
 2352TIP3   OH231250   2.436   5.201   6.540  0.5237  0.5410  0.1977
 2352TIP3    H131251   2.462   5.254   6.616  0.7286  3.2017 -1.6031
 2352TIP3    H231252   2.357   5.243   6.507  0.2126 -0.8048 -0.8556
 2353TIP3   OH231253   6.307   2.572   8.873  0.0987  0.3532  0.3328
 2353TIP3    H131254   6.376   2.596   8.935  1.3914  0.5655 -1.1208
 2353TIP3    H231255   6.249   2.515   8.923  1.7945 -0.5420  1.3787
 2354TIP3   OH231256   5.011   4.784   0.462 -0.8859 -0.2505  0.2105
 2354TIP3    H131257   5.092   4.781   0.512 -2.1278 -1.6310  2.3025
 2354TIP3    H231258   5.028   4.847   0.393  0.6088  2.7823  3.0618
 2355TIP3   OH231259   2.561   3.848   6.451 -0.0145  0.0957  0.5750
 2355TIP3    H131260   2.604   3.869   6.368 -0.9048  2.3285  0.6137
 2355TIP3    H231261   2.630   3.857   6.517  0.0575  1.1193  0.3678
 2356TIP3   OH231262   5.713   1.451   0.206  0.9643  0.2604 -0.0415
 2356TIP3    H131263   5.706   1.541   0.175  0.1250  0.2176 -0.0034
 2356TIP3    H231264   5.738   1.459   0.298 -0.1913  0.4969  0.2694
 2357TIP3   OH231265   2.672   1.397   8.863 -0.3833 -0.2977  0.2345
 2357TIP3    H131266   2.759   1.428   8.841 -0.7542  0.8870  0.3458
 2357TIP3    H231267   2.671   1.305   8.838  0.9296 -0.3527  0.3483
 2358TIP3   OH231268   3.596   1.855   1.145  0.4513 -0.0003  0.1745
 2358TIP3    H131269   3.589   1.818   1.233  0.0267 -0.7862 -0.1817
 2358TIP3    H231270   3.558   1.943   1.153 -0.8811 -0.5798  0.4691
 2359TIP3   OH231271   2.047   2.263   0.564  0.0663  0.3510 -0.2886
 2359TIP3    H131272   2.038   2.358   0.571  2.3244  0.5875  0.3001
 2359TIP3    H231273   2.012   2.242   0.477 -0.1514  1.7704 -0.5723
 2360TIP3   OH231274   5.478   0.912   1.869 -0.3224 -0.2190  0.2305
 2360TIP3    H131275   5.417   0.962   1.922 -2.0752 -1.6652 -0.3239
 2360TIP3    H231276   5.466   0.947   1.780  0.1995 -0.0095  0.2423
 2361TIP3   OH231277   0.254   5.524   6.714 -0.0631 -0.0780 -0.2207
 2361TIP3    H131278   0.253   5.526   6.810  4.6070  0.5414  0.0567
 2361TIP3    H231279   0.237   5.614   6.688 -1.2037 -0.2195 -0.0158
 2362TIP3   OH231280   6.515   1.130   8.032  0.5516 -0.2981  0.4457
 2362TIP3    H131281   6.505   1.099   8.122 -0.3897  0.0039  0.4524
 2362TIP3    H231282   6.430   1.112   7.991  0.5230  0.7960 -0.0020
 2363TIP3   OH231283   3.405   7.392   0.039 -0.1049 -0.2216  0.1512
 2363TIP3    H131284   3.368   7.334  -0.027 -2.0728 -0.0799  1.0681
 2363TIP3    H231285   3.462   7.452  -0.010 -1.6034 -0.0350 -1.4395
 2364TIP3   OH231286   6.636   0.716   1.552 -0.0668 -0.0228  0.3197
 2364TIP3    H131287   6.731   0.719   1.563 -0.1881 -0.4243  1.6203
 2364TIP3    H231288   6.621   0.744   1.462  1.2113  1.0951  0.4337
 2365TIP3   OH231289   0.008   1.331   0.264  0.4764  0.2952  0.7095
 2365TIP3    H131290   0.089   1.290   0.234  0.3657  0.3292  0.3548
 2365TIP3    H231291  -0.045   1.259   0.297 -0.7118 -0.2646 -2.1198
 2366TIP3   OH231292   3.110   0.917   8.585  0.1622 -0.4939  0.2862
 2366TIP3    H131293   3.082   0.859   8.515  0.0872  0.1008 -0.1845
 2366TIP3    H231294   3.037   0.917   8.647 -0.2430 -0.1421 -0.1890
 2367TIP3   OH231295   1.350   1.490   2.206  0.9432  0.7902  0.0512
 2367TIP3    H131296   1.333   1.537   2.287 -0.0650  0.3805  0.0870
 2367TIP3    H231297   1.266   1.451   2.182  1.4251  0.1976 -0.7386
 2368TIP3   OH231298   6.885   2.254   0.761  0.3984  0.1757  0.3053
 2368TIP3    H131299   6.844   2.238   0.846 -0.4767  1.7591  0.2062
 2368TIP3    H231300   6.831   2.206   0.699  0.0293  0.3954  0.4516
 2369TIP3   OH231301   6.199   1.113   8.602 -0.0236  0.5201  0.2666
 2369TIP3    H131302   6.206   1.018   8.595 -0.1928  0.6223 -2.2868
 2369TIP3    H231303   6.113   1.134   8.565  0.8234  1.7634 -1.1322
 2370TIP3   OH231304   1.808   0.288   6.744 -0.4152  0.2219  0.2233
 2370TIP3    H131305   1.822   0.198   6.714 -0.8667 -0.0039  0.6683
 2370TIP3    H231306   1.729   0.283   6.798 -0.0161  0.7363  0.8814
 2371TIP3   OH231307   6.186   4.145   0.705 -0.2244  0.0016 -0.0240
 2371TIP3    H131308   6.157   4.059   0.735  2.5785 -2.1672 -2.8193
 2371TIP3    H231309   6.126   4.166   0.633  1.7684 -2.1360 -2.5461
 2372TIP3   OH231310   4.706   6.811   9.161  0.2630  0.6399  0.4824
 2372TIP3    H131311   4.788   6.762   9.173 -0.7044 -0.7151  1.8602
 2372TIP3    H231312   4.662   6.766   9.089  0.0320  0.3988  0.7745
 2373TIP3   OH231313   0.900   2.491   9.190 -0.8187  0.1851 -0.1623
 2373TIP3    H131314   0.831   2.473   9.253  0.8535 -0.6012  1.5479
 2373TIP3    H231315   0.980   2.461   9.232  0.5725  0.8548 -2.1410
 2374TIP3   OH231316   0.299   7.436   0.462  0.4022 -0.2444  0.2576
 2374TIP3    H131317   0.393   7.417   0.466 -0.0137 -2.4643  1.0215
 2374TIP3    H231318   0.273   7.407   0.374  0.2650 -0.6580  0.4290
 2375TIP3   OH231319   3.671   4.174   1.212  0.0820 -0.0554 -0.2514
 2375TIP3    H131320   3.580   4.151   1.230  0.1010  0.6470  0.8114
 2375TIP3    H231321   3.666   4.234   1.137 -0.4570  0.9864  0.5946
 2376TIP3   OH231322   1.533   6.610   1.031  0.5802 -0.3888  0.4113
 2376TIP3    H131323   1.450   6.637   1.071  1.7064  0.6696  2.1151
 2376TIP3    H231324   1.522   6.515   1.018 -1.3192 -0.1056 -0.5284
 2377TIP3   OH231325   0.809   4.646   1.979  0.2914  0.0939  0.2289
 2377TIP3    H131326   0.803   4.551   1.991  2.2331 -0.0335  0.4868
 2377TIP3    H231327   0.782   4.661   1.889 -0.0063 -0.6888  0.1770
 2378TIP3   OH231328   2.983   5.980   1.570  0.1133 -0.2822  0.3538
 2378TIP3    H131329   2.976   5.938   1.484 -0.3606  1.2591 -0.3882
 2378TIP3    H231330   2.920   5.932   1.625 -2.1035  0.8285 -1.0719
 2379TIP3   OH231331   3.356   4.488   2.222 -0.6979  0.3941  0.6525
 2379TIP3    H131332   3.383   4.556   2.160  0.3609  0.4143  1.1073
 2379TIP3    H231333   3.419   4.495   2.294 -1.8738  0.3683  1.7368
 2380TIP3   OH231334   3.032   3.457   0.858  0.2967 -0.8830 -0.2932
 2380TIP3    H131335   2.996   3.470   0.771 -1.6253  1.7404  0.7539
 2380TIP3    H231336   2.981   3.516   0.914  2.6926 -1.0617  2.2915
 2381TIP3   OH231337   6.085   4.580   1.387 -0.1268 -0.4566 -0.2662
 2381TIP3    H131338   6.068   4.667   1.352 -1.8292 -0.6884 -0.1147
 2381TIP3    H231339   6.180   4.577   1.400 -0.0209  1.3258 -0.3727
 2382TIP3   OH231340   0.409   3.344   1.141  0.1515  0.2104  0.1396
 2382TIP3    H131341   0.470   3.270   1.130 -1.1626 -0.8301 -0.3744
 2382TIP3    H231342   0.440   3.409   1.078  0.5538 -0.4223 -0.3359
 2383TIP3   OH231343   3.544   3.731   1.702 -0.1166 -0.0707 -0.1686
 2383TIP3    H131344   3.566   3.656   1.757  2.2356  1.8390  1.7701
 2383TIP3    H231345   3.628   3.759   1.666 -1.1018  0.9382 -1.7880
 2384TIP3   OH231346   2.693   3.596   1.318 -0.2579 -0.5748  0.5131
 2384TIP3    H131347   2.691   3.672   1.260  0.3920 -0.1938  0.9850
 2384TIP3    H231348   2.785   3.585   1.341  0.2616 -3.6366 -2.2854
 2385TIP3   OH231349   7.003   4.079   0.140 -0.5642  0.0493 -0.2592
 2385TIP3    H131350   7.051   4.078   0.223  0.3711 -0.3194 -0.7867
 2385TIP3    H231351   7.040   4.153   0.092  3.5036 -3.2146 -2.8798
 2386TIP3   OH231352   4.628   6.499   9.983  0.3739 -0.4607 -0.0627
 2386TIP3    H131353   4.691   6.446  10.031 -0.6512 -0.8821  0.8715
 2386TIP3    H231354   4.613   6.451   9.902  1.8912  0.1025 -0.7239
 2387TIP3   OH231355   1.702   1.759   7.504  0.3419 -0.0912 -0.1443
 2387TIP3    H131356   1.634   1.808   7.550 -0.3352 -0.4933 -0.6925
 2387TIP3    H231357   1.709   1.676   7.551  0.1500 -0.2177 -0.3352
 2388TIP3   OH231358   5.192   7.452   0.058  0.0879 -0.3481 -0.1137
 2388TIP3    H131359   5.114   7.443   0.002  0.4905 -1.4927 -0.5267
 2388TIP3    H231360   5.263   7.418   0.004  1.1006  1.7129 -0.1606
 2389TIP3   OH231361   2.728   3.868   0.902  0.2742  0.6945  0.1836
 2389TIP3    H131362   2.676   3.916   0.967 -2.0327 -0.1623 -0.8928
 2389TIP3    H231363   2.772   3.936   0.852 -0.0013  1.4924  0.9885
 2390TIP3   OH231364   0.794   4.398   1.549 -0.2022  0.1922  0.0204
 2390TIP3    H131365   0.763   4.457   1.480 -0.1905 -0.2056 -0.3292
 2390TIP3    H231366   0.890   4.402   1.544 -0.1621 -1.3392 -1.3211
 2391TIP3   OH231367   2.459   6.612   0.322 -0.0060  0.7040 -0.0561
 2391TIP3    H131368   2.466   6.654   0.408 -0.8901  1.6578 -0.4253
 2391TIP3    H231369   2.491   6.523   0.336  0.8065  1.1409  1.0294
 2392TIP3   OH231370   0.791   3.435   7.626  0.2635 -0.4288 -0.4281
 2392TIP3    H131371   0.717   3.488   7.658 -0.7385 -2.8021  1.5036
 2392TIP3    H231372   0.770   3.419   7.534  0.1870  1.7806 -0.8384
 2393TIP3   OH231373   1.085   7.338   0.360 -0.4449  0.2100  0.1380
 2393TIP3    H131374   1.043   7.265   0.405  0.3291 -0.5576 -0.3754
 2393TIP3    H231375   1.064   7.324   0.268 -0.1365  0.5326  0.0173
 2394TIP3   OH231376   4.473   2.334   7.326  0.5112  0.3609 -0.8162
 2394TIP3    H131377   4.440   2.340   7.236  0.7920  1.3126 -0.8651
 2394TIP3    H231378   4.524   2.414   7.338  0.1923  0.4064  0.3091
 2395TIP3   OH231379   1.073   7.323   0.798 -0.4267  0.1091 -0.2861
 2395TIP3    H131380   1.072   7.245   0.853 -2.9656  0.0180 -0.3540
 2395TIP3    H231381   1.069   7.290   0.708 -0.5087  0.3109 -0.3571
 2396TIP3   OH231382   3.354   1.532   1.846  0.2056  0.0904 -0.0680
 2396TIP3    H131383   3.449   1.529   1.846  0.2817  1.7747 -0.0452
 2396TIP3    H231384   3.332   1.611   1.895 -1.1658  0.3872 -1.0947
 2397TIP3   OH231385   2.285   1.874   2.971 -0.0722  0.1615  0.0549
 2397TIP3    H131386   2.270   1.965   2.946  1.2604  0.2533 -0.4575
 2397TIP3    H231387   2.290   1.827   2.888  0.6948 -0.1378  0.2684
 2398TIP3   OH231388   0.016   0.084   0.286  0.4058  0.0624  0.1765
 2398TIP3    H131389  -0.028   0.148   0.341  3.4559  0.3735  2.5470
 2398TIP3    H231390   0.079   0.135   0.235  0.8488 -0.7503 -0.1128
 2399TIP3   OH231391   0.754   7.377   8.662 -0.0387  0.0910 -0.6919
 2399TIP3    H131392   0.665   7.412   8.666 -0.2441 -0.4615 -0.2728
 2399TIP3    H231393   0.767   7.337   8.748  0.8108  0.6357 -0.5656
 2400TIP3   OH231394   1.604   5.942   8.596 -0.3277 -0.4551 -0.1195
 2400TIP3    H131395   1.656   6.021   8.611 -1.4325  0.4868 -1.0939
 2400TIP3    H231396   1.528   5.953   8.653 -0.1985 -1.1025  0.1784
 2401TIP3   OH231397   2.631   5.252   0.443  0.7594 -0.7524  0.2462
 2401TIP3    H131398   2.675   5.337   0.441  1.7426 -1.2401  0.5708
 2401TIP3    H231399   2.577   5.255   0.521 -1.8393  0.8123 -1.4569
 2402TIP3   OH231400   5.907   4.599   9.735 -0.0003  0.1379  0.4885
 2402TIP3    H131401   5.826   4.586   9.685 -0.6689 -2.5659  2.1216
 2402TIP3    H231402   5.882   4.656   9.808 -0.5695 -1.0058  1.2077
 2403TIP3   OH231403   3.619   6.766   0.969 -0.1149  0.5148 -0.4531
 2403TIP3    H131404   3.709   6.791   0.988 -0.3802  0.4649  0.9556
 2403TIP3    H231405   3.609   6.680   1.009 -1.4843  1.5633  1.6041
 2404TIP3   OH231406   6.750   5.285   1.142  0.0556  0.7635 -0.1993
 2404TIP3    H131407   6.662   5.308   1.172 -0.9160 -0.1571 -2.1562
 2404TIP3    H231408   6.796   5.369   1.134 -1.2218  1.4334 -0.8055
 2405TIP3   OH231409   4.844   2.165   0.087 -0.0222 -0.3526  0.2930
 2405TIP3    H131410   4.822   2.258   0.077 -0.4252 -0.5672 -0.9649
 2405TIP3    H231411   4.790   2.121   0.022  1.3589 -1.2946 -0.2454
 2406TIP3   OH231412   0.161   2.626   0.124  0.4955  0.3497 -0.1744
 2406TIP3    H131413   0.193   2.672   0.201 -0.4583  0.2371  0.2947
 2406TIP3    H231414   0.124   2.694   0.068  1.8838  0.5376 -0.9138
 2407TIP3   OH231415   1.279   2.576   0.381  0.2470  0.7622  0.0125
 2407TIP3    H131416   1.354   2.585   0.322 -0.6177  0.5075 -1.1599
 2407TIP3    H231417   1.285   2.488   0.416 -0.8304 -0.2040 -2.0310
 2408TIP3   OH231418   6.127   5.364   7.710  0.3503  0.6361  0.8137
 2408TIP3    H131419   6.202   5.324   7.753  1.3874 -0.4058 -1.7947
 2408TIP3    H231420   6.070   5.291   7.687 -0.6344  1.2641  1.1630
 2409TIP3   OH231421   1.584   6.102   0.968  0.1264 -0.5430 -0.0032
 2409TIP3    H131422   1.542   6.067   0.890  1.1667 -0.3925 -0.6414
 2409TIP3    H231423   1.558   6.041   1.038 -0.3629 -0.9904 -0.5591
 2410TIP3   OH231424   0.665   7.025   8.706  0.5167 -0.0107  0.0767
 2410TIP3    H131425   0.749   6.983   8.690 -0.2656 -1.4467 -0.4567
 2410TIP3    H231426   0.620   7.024   8.622 -0.7386 -0.9296  0.7138
 2411TIP3   OH231427   7.137   1.915   8.237 -0.2248  0.0651 -0.3210
 2411TIP3    H131428   7.217   1.863   8.229 -0.7762 -1.3680  2.3573
 2411TIP3    H231429   7.069   1.852   8.261 -1.4148  1.6777  0.8288
 2412TIP3   OH231430   3.339   4.190   8.085  0.4577 -0.4412  0.6023
 2412TIP3    H131431   3.336   4.274   8.039 -2.1123 -0.2703  0.9020
 2412TIP3    H231432   3.406   4.139   8.040 -0.8380  0.2888 -2.3969
 2413TIP3   OH231433   4.355   2.517   7.995 -0.0018 -0.2090  0.2596
 2413TIP3    H131434   4.354   2.476   8.082  1.0410 -1.4665 -0.2725
 2413TIP3    H231435   4.448   2.535   7.978 -0.3232  1.3163 -0.0384
 2414TIP3   OH231436   4.433   3.634   1.216  0.4799  0.1449  0.1615
 2414TIP3    H131437   4.384   3.552   1.218 -0.4271  0.6355 -0.6737
 2414TIP3    H231438   4.411   3.673   1.131  1.2795  1.0226  0.3304
 2415TIP3   OH231439   6.530   7.389   0.020 -0.6215  0.1460  0.5585
 2415TIP3    H131440   6.502   7.421  -0.065 -1.1562 -0.4766  0.4957
 2415TIP3    H231441   6.465   7.422   0.082 -1.2740 -0.9374  0.4713
 2416TIP3   OH231442   3.534   0.972   1.262 -0.4372  0.3188  0.6234
 2416TIP3    H131443   3.556   0.939   1.349  1.7375 -0.9884 -0.3457
 2416TIP3    H231444   3.618   0.993   1.222 -1.4631  2.1509 -0.7261
 2417TIP3   OH231445   0.461   0.176   0.160  0.3725  0.1525 -0.1774
 2417TIP3    H131446   0.494   0.246   0.103  0.3107 -0.2802 -0.7558
 2417TIP3    H231447   0.519   0.177   0.236  0.3378  0.8649 -0.1501
 2418TIP3   OH231448   0.226   4.704   2.390 -0.2876 -0.1305  0.0828
 2418TIP3    H131449   0.218   4.797   2.414 -0.9930 -0.3916  0.9140
 2418TIP3    H231450   0.312   4.698   2.348 -1.2488  1.3562 -2.2653
 2419TIP3   OH231451   1.667   2.481   8.518 -0.1953  0.0977  0.0260
 2419TIP3    H131452   1.740   2.425   8.541 -0.8046 -1.1713 -1.0342
 2419TIP3    H231453   1.635   2.447   8.435 -3.4040 -0.8516  1.4950
 2420TIP3   OH231454   1.187   3.991   1.009 -0.2421 -0.5227 -0.0599
 2420TIP3    H131455   1.193   3.905   1.051 -2.1628 -0.9978 -0.6434
 2420TIP3    H231456   1.095   4.017   1.021  0.4812  1.8624  0.8325
 2421TIP3   OH231457   3.469   5.734   7.634 -0.0171  0.3648  0.6033
 2421TIP3    H131458   3.521   5.668   7.588 -0.0884  0.7737 -0.0671
 2421TIP3    H231459   3.383   5.693   7.644 -0.3219  0.6749 -0.5908
 2422TIP3   OH231460   6.543   1.817   8.967  0.2917 -0.6385 -0.7478
 2422TIP3    H131461   6.537   1.744   9.029 -0.4142  0.4809  0.5545
 2422TIP3    H231462   6.488   1.790   8.893 -1.5721 -0.6688  0.5570
 2423TIP3   OH231463   5.694   7.080   9.994 -0.0344  0.8064  0.5976
 2423TIP3    H131464   5.675   7.084  10.088 -1.0421 -0.6954  0.4894
 2423TIP3    H231465   5.691   7.171   9.965  1.2952  1.4065  2.1934
 2424TIP3   OH231466   4.046   4.483   7.775 -0.2815  0.4009  0.0877
 2424TIP3    H131467   4.124   4.531   7.804  0.4451  0.6392 -2.0786
 2424TIP3    H231468   4.080   4.397   7.750 -0.9082  0.1325  0.1579
 2425TIP3   OH231469   0.158   5.266   9.174  0.1056 -0.1163 -0.9548
 2425TIP3    H131470   0.208   5.306   9.103 -0.2707  0.9957 -0.6131
 2425TIP3    H231471   0.214   5.194   9.204  1.2055  0.6637 -1.0367
 2426TIP3   OH231472   5.265   5.214   2.087  0.2018 -0.3218 -0.5686
 2426TIP3    H131473   5.337   5.244   2.032 -0.1099  0.2990 -0.6500
 2426TIP3    H231474   5.302   5.142   2.138  1.2936  0.8764  0.4083
 2427TIP3   OH231475   1.660   7.259   6.981  0.0656 -0.4001 -0.0360
 2427TIP3    H131476   1.750   7.228   6.990  1.6136  3.6016  0.2926
 2427TIP3    H231477   1.643   7.257   6.887  0.3706 -1.4259 -0.0778
 2428TIP3   OH231478   1.086   5.677   2.291  0.0525 -1.2050  0.0144
 2428TIP3    H131479   1.154   5.723   2.340 -0.5192 -0.9560  0.5959
 2428TIP3    H231480   1.112   5.685   2.200 -1.4282  2.7990 -0.2671
 2429TIP3   OH231481   5.661   0.638   9.281  0.5733 -0.0464 -0.2053
 2429TIP3    H131482   5.727   0.600   9.223  0.6067 -2.8969  1.5068
 2429TIP3    H231483   5.695   0.725   9.301  1.0116  0.6891 -3.5882
 2430TIP3   OH231484   7.008   2.270   2.128 -0.2267  0.2984  0.2432
 2430TIP3    H131485   7.098   2.265   2.096 -0.5357  1.5674 -0.8741
 2430TIP3    H231486   6.987   2.179   2.152  0.0085 -0.8514 -3.2910
 2431TIP3   OH231487   3.291   5.109   6.627  0.2181 -0.2356  0.0740
 2431TIP3    H131488   3.197   5.117   6.614  0.0812 -2.0761 -0.2505
 2431TIP3    H231489   3.303   5.115   6.722 -0.6566 -3.2371  0.4781
 2432TIP3   OH231490   0.521   0.656   0.892  0.0082 -0.6069  0.4127
 2432TIP3    H131491   0.612   0.631   0.877  0.2219  1.0022 -1.2920
 2432TIP3    H231492   0.514   0.663   0.987  1.5545 -1.1333  0.5929
 2433TIP3   OH231493   0.116   0.862   8.779  0.9026  0.1484 -0.1797
 2433TIP3    H131494   0.134   0.955   8.790 -1.1156  0.3949  1.5957
 2433TIP3    H231495   0.116   0.826   8.868  0.2572 -1.2698 -0.7151
 2434TIP3   OH231496   4.116   2.321   8.826 -0.1766 -0.0166 -0.0309
 2434TIP3    H131497   4.063   2.324   8.906  1.3872  0.3151  1.0343
 2434TIP3    H231498   4.136   2.229   8.814  0.4580  0.0311  0.5816
 2435TIP3   OH231499   2.090   5.568   2.798 -0.5961 -0.0385 -0.3674
 2435TIP3    H131500   2.167   5.521   2.830 -0.3444  0.1420 -0.7032
 2435TIP3    H231501   2.074   5.636   2.863  1.3592  1.8892 -1.7765
 2436TIP3   OH231502   0.711   3.547   2.752 -0.3798 -0.1217 -0.1412
 2436TIP3    H131503   0.646   3.558   2.682  0.5399  1.3925 -0.8104
 2436TIP3    H231504   0.779   3.492   2.714 -0.8452 -0.9845  0.2634
 2437TIP3   OH231505   0.304   5.640   1.296 -0.0206 -0.3750 -0.1471
 2437TIP3    H131506   0.273   5.703   1.361  1.5125 -0.4036  0.6694
 2437TIP3    H231507   0.356   5.692   1.234 -0.4661 -0.5319 -0.6582
 2438TIP3   OH231508   5.821   3.308   7.725 -0.0784 -0.4108  0.0636
 2438TIP3    H131509   5.897   3.280   7.777 -0.6692 -1.2809  0.4844
 2438TIP3    H231510   5.806   3.399   7.752  1.2500  0.0186 -0.5622
 2439TIP3   OH231511   1.697   4.327   7.177  0.0713  0.3580 -0.4266
 2439TIP3    H131512   1.756   4.360   7.109 -0.8981  2.2126 -0.4294
 2439TIP3    H231513   1.613   4.366   7.156 -0.3206  0.7270  1.6665
 2440TIP3   OH231514   0.670   0.191   1.533 -0.4955  0.4625 -0.0418
 2440TIP3    H131515   0.575   0.190   1.545 -0.5746  0.3042 -0.6411
 2440TIP3    H231516   0.702   0.247   1.604 -0.7638 -1.7358  1.9507
 2441TIP3   OH231517   2.313   4.296   0.016 -0.0135 -0.4226  0.0468
 2441TIP3    H131518   2.379   4.264   0.078  0.3083  1.6938  0.8891
 2441TIP3    H231519   2.283   4.378   0.055 -1.6675 -0.3266 -1.3687
 2442TIP3   OH231520   1.470   2.547   7.539 -0.3555  0.3478  0.7078
 2442TIP3    H131521   1.523   2.585   7.470 -0.3565 -0.5326  0.1997
 2442TIP3    H231522   1.493   2.454   7.538 -0.9045  0.1942  1.3951
 2443TIP3   OH231523   5.206   3.027   2.262  0.2060  0.0328  1.0531
 2443TIP3    H131524   5.225   3.077   2.341 -0.1819 -0.1387  1.2583
 2443TIP3    H231525   5.116   2.997   2.274  0.3445 -0.4947  0.8151
 2444TIP3   OH231526   4.784   0.178   0.111  0.0445 -0.2318  0.5135
 2444TIP3    H131527   4.746   0.155   0.026  0.8960  0.3356 -0.0474
 2444TIP3    H231528   4.736   0.126   0.175 -0.7593 -0.5057 -0.3001
 2445TIP3   OH231529   3.881   5.355   2.694 -0.1258 -0.4884 -0.0970
 2445TIP3    H131530   3.907   5.298   2.621 -0.3721 -0.4997 -0.1750
 2445TIP3    H231531   3.807   5.310   2.735  0.4059 -0.7978  0.5490
 2446TIP3   OH231532   0.402   4.422   1.696 -0.2908 -0.7792  0.4571
 2446TIP3    H131533   0.378   4.372   1.618  0.9910 -1.2652  0.3505
 2446TIP3    H231534   0.390   4.514   1.670 -0.9279 -0.9663  0.0594
 2447TIP3   OH231535   0.314   4.114   6.791 -0.3646 -0.3673 -0.6018
 2447TIP3    H131536   0.223   4.144   6.787 -0.4300 -0.5073 -0.2416
 2447TIP3    H231537   0.308   4.022   6.816 -0.0638  0.2613  2.1417
 2448TIP3   OH231538   3.379   1.822   0.968 -0.7888  0.0622  0.3887
 2448TIP3    H131539   3.458   1.830   1.021 -0.6034 -0.5427  0.2180
 2448TIP3    H231540   3.408   1.777   0.889 -1.2975 -0.1427  0.3155
 2449TIP3   OH231541   2.540   1.461   1.020  0.0521 -1.0576 -0.0799
 2449TIP3    H131542   2.580   1.545   1.044 -0.0441 -1.4802  1.7197
 2449TIP3    H231543   2.483   1.482   0.946 -0.2717  0.5457  0.5734
 2450TIP3   OH231544   5.142   1.476   1.459  0.0763  0.3650 -0.3090
 2450TIP3    H131545   5.208   1.466   1.390  0.2234 -0.3703 -0.0615
 2450TIP3    H231546   5.058   1.470   1.413  0.1692 -0.6758 -0.3468
 2451TIP3   OH231547   6.296   4.921   9.948 -0.0364 -0.0632  0.1553
 2451TIP3    H131548   6.343   4.992   9.902 -1.6759  0.9051 -0.1089
 2451TIP3    H231549   6.241   4.882   9.881  0.5097 -1.3113  0.4184
 2452TIP3   OH231550   3.578   4.237   9.319  0.4253  0.0697  0.3041
 2452TIP3    H131551   3.536   4.270   9.239 -0.1319  2.8616  1.6185
 2452TIP3    H231552   3.511   4.183   9.360 -0.2314  0.7422  0.1407
 2453TIP3   OH231553   0.781   2.366   8.962 -0.4242 -0.1109  0.0281
 2453TIP3    H131554   0.827   2.399   9.038  0.9308  0.3694 -0.9638
 2453TIP3    H231555   0.728   2.440   8.931 -0.8098 -0.2426  0.3577
 2454TIP3   OH231556   0.772   5.877   0.695  0.2288 -0.2397  0.4316
 2454TIP3    H131557   0.728   5.822   0.631  0.4587 -1.9559  1.6794
 2454TIP3    H231558   0.711   5.950   0.710  0.7080  0.9429 -2.5996
 2455TIP3   OH231559   3.885   3.252   9.801  0.2544 -0.2445  1.0857
 2455TIP3    H131560   3.897   3.288   9.889  0.6180  1.1754  0.4814
 2455TIP3    H231561   3.942   3.305   9.745 -1.3481  0.1019 -0.3115
 2456TIP3   OH231562   7.060   0.326   7.861  0.2696  0.0490 -0.5780
 2456TIP3    H131563   7.137   0.375   7.889 -1.2790  2.4479 -0.2476
 2456TIP3    H231564   7.040   0.269   7.935  0.9975  0.2742 -0.1905
 2457TIP3   OH231565   5.994   0.339   1.974 -0.7326  0.0382  0.7129
 2457TIP3    H131566   6.002   0.250   1.940  2.3565 -0.1037  1.4940
 2457TIP3    H231567   6.031   0.335   2.062  1.7536  2.4841 -0.0781
 2458TIP3   OH231568   5.093   3.191   8.523 -0.2215 -0.7426 -0.5358
 2458TIP3    H131569   5.048   3.148   8.595  0.6476 -0.0997  0.4197
 2458TIP3    H231570   5.176   3.220   8.560 -0.8040  1.8856 -1.0524
 2459TIP3   OH231571   6.531   1.475   9.457  0.2759 -0.0458  0.0816
 2459TIP3    H131572   6.599   1.464   9.391  1.4790  0.0554  1.2576
 2459TIP3    H231573   6.485   1.555   9.432 -0.8966 -1.2807 -1.9663
 2460TIP3   OH231574   6.671   2.267   8.358 -0.4860 -0.5096 -0.6899
 2460TIP3    H131575   6.592   2.297   8.402 -0.5258 -0.2661 -0.9262
 2460TIP3    H231576   6.642   2.242   8.270 -0.1637  0.3479 -1.0499
 2461TIP3   OH231577   6.679   5.447   8.448  0.2676  0.1264 -0.6742
 2461TIP3    H131578   6.684   5.543   8.447 -2.7649  0.3847 -2.1274
 2461TIP3    H231579   6.756   5.420   8.499 -0.1919  3.4163  2.2142
 2462TIP3   OH231580   1.397   7.270   0.548  0.2784  0.3441 -0.0754
 2462TIP3    H131581   1.464   7.276   0.479  0.8345 -0.0243  0.4244
 2462TIP3    H231582   1.339   7.344   0.531  1.0065  0.8723 -0.3100
 2463TIP3   OH231583   3.023   0.760   8.354  0.1746 -0.4635  0.3132
 2463TIP3    H131584   3.035   0.747   8.260 -0.6331  0.9293 -0.0056
 2463TIP3    H231585   2.954   0.698   8.378  0.6244 -1.0672  0.0747
 2464TIP3   OH231586   3.163   6.256   7.483 -0.0998 -0.0767 -0.1114
 2464TIP3    H131587   3.191   6.303   7.562  0.8515 -1.9956  0.7623
 2464TIP3    H231588   3.092   6.310   7.447 -0.6252  0.8346  2.0930
 2465TIP3   OH231589   4.337   4.154   7.364  0.5460 -0.4489  0.3641
 2465TIP3    H131590   4.306   4.075   7.319  0.2265  0.0218 -0.2669
 2465TIP3    H231591   4.261   4.212   7.364  1.8187  1.5375 -3.0016
 2466TIP3   OH231592   2.936   3.581   1.470 -0.7101 -0.2812  0.3464
 2466TIP3    H131593   2.964   3.501   1.515  1.4498  1.0376  1.5583
 2466TIP3    H231594   2.946   3.649   1.536 -2.8602  0.9822 -0.5451
 2467TIP3   OH231595   5.032   5.231   7.549 -0.1506 -0.2108 -0.2519
 2467TIP3    H131596   4.960   5.244   7.611  0.8521 -0.9128  1.1154
 2467TIP3    H231597   4.996   5.258   7.464 -0.8987  2.9829  0.9255
 2468TIP3   OH231598   3.329   2.430   0.699 -0.0165  0.6832  0.1351
 2468TIP3    H131599   3.413   2.471   0.720 -0.6930  2.0083  0.3535
 2468TIP3    H231600   3.264   2.499   0.715 -1.2227 -0.5407  0.7018
 2469TIP3   OH231601   6.917   6.883   8.476  0.0173  0.0892 -0.7389
 2469TIP3    H131602   6.876   6.910   8.559 -1.4561  0.1410 -1.4402
 2469TIP3    H231603   6.845   6.842   8.427  1.4747 -2.4738 -0.9143
 2470TIP3   OH231604   2.129   6.642   0.260 -0.1324 -0.0581 -0.1036
 2470TIP3    H131605   2.086   6.697   0.326  0.2279  0.0528  0.0384
 2470TIP3    H231606   2.220   6.638   0.288 -0.2313 -1.0619  0.1196
 2471TIP3   OH231607   4.981   0.724   8.436 -0.4133  0.0539 -0.3492
 2471TIP3    H131608   5.025   0.803   8.407 -0.3354 -0.0068 -0.3943
 2471TIP3    H231609   4.907   0.756   8.489 -0.7765  0.1695 -0.9231
 2472TIP3   OH231610   5.860   7.264   9.729  0.5940 -0.4600  0.3281
 2472TIP3    H131611   5.864   7.202   9.657  0.4392 -1.2059  0.9412
 2472TIP3    H231612   5.915   7.226   9.797 -0.8723 -0.8216  1.3694
 2473TIP3   OH231613   4.207   3.766   2.803 -0.2015  0.3283 -0.1371
 2473TIP3    H131614   4.283   3.806   2.761 -0.8078  1.0398 -0.6020
 2473TIP3    H231615   4.132   3.805   2.758 -0.8883  1.0376  1.5212
 2474TIP3   OH231616   0.573   1.642   8.627  0.0350 -0.1788  0.0168
 2474TIP3    H131617   0.609   1.682   8.548 -1.5246 -1.9564 -1.6881
 2474TIP3    H231618   0.487   1.610   8.600 -0.2009 -1.5870  2.2277
 2475TIP3   OH231619   4.809   6.719   8.537 -0.1088 -0.0406 -0.5249
 2475TIP3    H131620   4.857   6.647   8.578  2.0322 -0.2668 -3.1399
 2475TIP3    H231621   4.871   6.792   8.536 -1.0535  0.7877 -0.9125
 2476TIP3   OH231622   1.760   0.099   8.783 -0.1699  0.1963 -0.1875
 2476TIP3    H131623   1.692   0.141   8.836 -0.1602 -0.5452  0.4269
 2476TIP3    H231624   1.837   0.096   8.840 -0.0003 -0.1241 -0.4291
 2477TIP3   OH231625   6.921   0.102   1.447 -0.1982  0.6150  0.1948
 2477TIP3    H131626   6.852   0.039   1.471  0.1352 -0.1192 -0.7018
 2477TIP3    H231627   6.949   0.074   1.360  0.0777  1.9284 -0.1492
 2478TIP3   OH231628   2.600   3.604   0.377 -0.4549  0.3521 -0.1425
 2478TIP3    H131629   2.640   3.517   0.371  3.0503  1.7379  0.6107
 2478TIP3    H231630   2.597   3.622   0.471 -2.3635  0.6095 -0.2225
 2479TIP3   OH231631   4.204   3.356   1.758 -0.2430 -0.2833  0.3019
 2479TIP3    H131632   4.160   3.430   1.716  0.6471  0.0370 -0.0888
 2479TIP3    H231633   4.193   3.284   1.695  0.9585  0.1571 -0.4489
 2480TIP3   OH231634   5.901   3.548   9.285 -0.3695  0.2519  0.7309
 2480TIP3    H131635   5.817   3.519   9.250 -1.1810 -0.3569  2.9967
 2480TIP3    H231636   5.966   3.505   9.230 -1.5654 -1.1899  0.3806
 2481TIP3   OH231637   4.564   5.775   8.742  0.3249 -0.0174 -0.9516
 2481TIP3    H131638   4.517   5.710   8.691  0.4100 -0.7156 -0.1561
 2481TIP3    H231639   4.656   5.764   8.716  0.7323 -2.0557  1.0787
 2482TIP3   OH231640   7.293   4.120   7.780  0.5545 -0.0288  0.4509
 2482TIP3    H131641   7.366   4.075   7.738  0.2917 -0.6737  0.6599
 2482TIP3    H231642   7.274   4.194   7.723  0.8971 -0.2737  0.0076
 2483TIP3   OH231643   6.189   3.652   0.468  0.4791  0.8136 -0.1108
 2483TIP3    H131644   6.158   3.624   0.382  1.7514  0.2569 -0.4157
 2483TIP3    H231645   6.125   3.616   0.530  0.7704 -0.7575 -0.6739
 2484TIP3   OH231646   1.131   3.097   9.632 -0.5415  0.0300 -1.2775
 2484TIP3    H131647   1.176   3.014   9.646  0.4753  0.7814  0.1956
 2484TIP3    H231648   1.190   3.147   9.576  0.3989  0.9011  0.4067
 2485TIP3   OH231649   2.695   6.827   2.739 -0.1218  0.8536 -0.3347
 2485TIP3    H131650   2.775   6.864   2.776 -0.6663  1.1424  0.5911
 2485TIP3    H231651   2.624   6.865   2.791 -0.6710 -2.5532  1.7853
 2486TIP3   OH231652   2.192   5.718   2.575 -0.1251 -0.4262  0.8995
 2486TIP3    H131653   2.186   5.637   2.627  0.0935 -0.8512  0.2694
 2486TIP3    H231654   2.103   5.733   2.543  0.1122 -1.1914 -0.1380
 2487TIP3   OH231655   0.171   5.443   9.376  0.1813  0.1741 -0.0838
 2487TIP3    H131656   0.191   5.398   9.294  0.7183 -1.2242  0.7660
 2487TIP3    H231657   0.083   5.479   9.363 -0.3297 -1.2405 -0.7885
 2488TIP3   OH231658   1.806   6.928   1.752  0.3128 -0.3688  0.5260
 2488TIP3    H131659   1.792   6.967   1.839 -1.1536 -1.7506  0.9542
 2488TIP3    H231660   1.766   6.990   1.691  0.7717  0.2914  0.8796
 2489TIP3   OH231661   0.388   1.879   2.013 -0.4280 -0.7868  0.4281
 2489TIP3    H131662   0.331   1.803   2.001 -2.6798  0.8884 -0.2689
 2489TIP3    H231663   0.346   1.948   1.961  1.1340  1.1187  1.5669
 2490TIP3   OH231664   2.695   6.912   0.465  0.6134  0.5108 -0.4201
 2490TIP3    H131665   2.620   6.948   0.417 -0.3995 -0.4137  0.4152
 2490TIP3    H231666   2.660   6.835   0.509  2.2949 -0.5039 -0.7725
 2491TIP3   OH231667   1.053   1.166   8.683  0.4628  0.2571  0.0178
 2491TIP3    H131668   0.971   1.158   8.730  0.4030  0.5377 -0.0350
 2491TIP3    H231669   1.028   1.194   8.595  0.6217  0.4989  0.0467
 2492TIP3   OH231670   5.475   0.452   1.462 -0.1555 -0.1663  0.2938
 2492TIP3    H131671   5.474   0.546   1.444 -1.0561 -0.2355 -0.0793
 2492TIP3    H231672   5.548   0.419   1.409 -0.3106  0.2108 -0.1678
 2493TIP3   OH231673   0.466   5.266   0.065 -0.1191 -0.3388 -0.4681
 2493TIP3    H131674   0.453   5.361   0.071 -0.7225 -0.4432 -0.0135
 2493TIP3    H231675   0.495   5.240   0.152 -3.5131 -1.0599  0.6224
 2494TIP3   OH231676   1.571   3.093   6.949 -0.4299  0.7031 -0.3642
 2494TIP3    H131677   1.476   3.090   6.963 -0.2376  0.5751  0.9707
 2494TIP3    H231678   1.581   3.079   6.854 -1.7460  0.9520 -0.5586
 2495TIP3   OH231679   6.743   4.344   1.391 -0.2242  0.1915  0.0210
 2495TIP3    H131680   6.834   4.321   1.370  0.2581  0.1175  1.9724
 2495TIP3    H231681   6.750   4.416   1.453 -1.4544 -0.5541  1.0742
 2496TIP3   OH231682   0.768   7.415   0.225  0.0359 -0.0667 -0.1595
 2496TIP3    H131683   0.785   7.368   0.144 -0.6293 -0.9144  0.1778
 2496TIP3    H231684   0.838   7.480   0.231  0.2768 -0.2184 -1.2352
 2497TIP3   OH231685   1.067   7.449   6.417 -0.4960 -0.4061  0.0123
 2497TIP3    H131686   0.980   7.466   6.451 -0.6651 -0.8170 -0.2054
 2497TIP3    H231687   1.123   7.515   6.457 -0.9471 -0.0102 -0.0125
 2498TIP3   OH231688   6.634   4.968   9.534 -0.4227 -0.3016 -0.5771
 2498TIP3    H131689   6.676   5.003   9.613 -0.5337  0.0637 -0.6783
 2498TIP3    H231690   6.691   4.896   9.506 -0.0587 -0.0421 -0.5087
 2499TIP3   OH231691   0.089   4.621   8.012 -0.0985  0.2306  0.2293
 2499TIP3    H131692   0.029   4.597   7.942 -0.2732  0.9856  0.1140
 2499TIP3    H231693   0.033   4.636   8.088  0.1357 -1.1761  0.7180
 2500TIP3   OH231694   5.850   2.719   0.034 -0.5383 -0.0343 -0.1909
 2500TIP3    H131695   5.810   2.634   0.052  2.4109 -1.4770  0.1107
 2500TIP3    H231696   5.897   2.741   0.115  0.2583  0.9832 -0.8943
 2501TIP3   OH231697   3.477   6.021   7.634  0.2842  0.3723  0.0065
 2501TIP3    H131698   3.507   6.049   7.721 -1.4801  2.1922  0.0953
 2501TIP3    H231699   3.470   5.926   7.641 -0.1693  0.5041  1.9896
 2502TIP3   OH231700   7.220   2.485   2.740 -0.9205  0.3392  0.3589
 2502TIP3    H131701   7.273   2.412   2.771  0.0714  0.3984 -1.1453
 2502TIP3    H231702   7.143   2.484   2.798 -0.8557 -1.7762  0.4787
 2503TIP3   OH231703   6.566   1.140   1.329 -0.4004 -0.3865 -0.1536
 2503TIP3    H131704   6.478   1.159   1.299 -0.7227 -0.5734  0.6390
 2503TIP3    H231705   6.556   1.121   1.423  0.8684  2.5960  0.7274
 2504TIP3   OH231706   2.603   4.776   8.384 -0.4237  0.2566 -0.2690
 2504TIP3    H131707   2.600   4.722   8.305  1.1379  0.7032 -0.6707
 2504TIP3    H231708   2.643   4.719   8.450 -2.0923 -0.2511  0.3507
 2505TIP3   OH231709   0.478   3.953   0.667  0.3603 -0.0339 -0.8970
 2505TIP3    H131710   0.412   3.885   0.669  0.7612 -0.5028 -2.2762
 2505TIP3    H231711   0.558   3.910   0.697  0.4183  0.0661 -0.9059
 2506TIP3   OH231712   5.903   4.004   0.802  0.2558  0.2362  0.1545
 2506TIP3    H131713   5.985   3.957   0.785 -0.9418 -1.2142 -2.0039
 2506TIP3    H231714   5.884   3.985   0.894  2.2965  0.6222  0.7156
 2507TIP3   OH231715   1.076   3.390   1.234 -0.0615  0.2090  0.4232
 2507TIP3    H131716   1.136   3.325   1.198 -0.9975  0.1003 -1.0264
 2507TIP3    H231717   0.989   3.360   1.207 -0.7953  0.3987  2.4167
 2508TIP3   OH231718   7.055   0.562   1.045  0.4478 -0.1183  0.0876
 2508TIP3    H131719   7.143   0.599   1.054  0.5190 -0.0479 -0.8116
 2508TIP3    H231720   7.032   0.577   0.953 -0.2932 -0.6107  0.1847
 2509TIP3   OH231721   4.250   1.546   9.980 -0.2894 -0.3791  0.3580
 2509TIP3    H131722   4.163   1.505   9.980  0.1135 -1.2562 -0.0249
 2509TIP3    H231723   4.302   1.492   9.921  0.0971  1.0658 -0.6854
 2510TIP3   OH231724   0.284   6.720   9.637  0.3871 -0.8651 -0.0982
 2510TIP3    H131725   0.234   6.715   9.718  1.9784  2.6637  1.2769
 2510TIP3    H231726   0.324   6.633   9.628 -1.2651 -1.8969  1.8715
 2511TIP3   OH231727   2.725   0.596   9.614  0.7118  0.2094 -0.3809
 2511TIP3    H131728   2.663   0.539   9.569  0.8459 -0.6762  0.5003
 2511TIP3    H231729   2.736   0.555   9.700  0.7839  1.6075  0.2961
 2512TIP3   OH231730   3.553   0.757   7.799  0.2818  0.0984  0.1972
 2512TIP3    H131731   3.612   0.721   7.732 -0.6876  1.3536 -1.4195
 2512TIP3    H231732   3.602   0.830   7.837  0.2900  0.3073 -0.2056
 2513TIP3   OH231733   0.910   3.014   7.965 -0.3488  0.5682 -0.1305
 2513TIP3    H131734   0.852   2.946   7.931 -0.0275 -0.0076  0.4468
 2513TIP3    H231735   0.855   3.064   8.026  0.2310 -1.2664  2.0546
 2514TIP3   OH231736   6.502   0.703   1.282  0.2511 -0.1003  0.7437
 2514TIP3    H131737   6.562   0.726   1.211  0.8347 -1.9814  0.5924
 2514TIP3    H231738   6.415   0.717   1.244  0.5518 -1.2436 -0.4195
 2515TIP3   OH231739   2.443   6.646   1.187  0.2420 -0.4066 -0.0122
 2515TIP3    H131740   2.381   6.696   1.134  1.1805  1.9149  0.9042
 2515TIP3    H231741   2.395   6.625   1.267 -0.0157 -0.5067 -0.1938
 2516TIP3   OH231742   1.206   6.840   1.386 -0.5535 -0.5558  0.1197
 2516TIP3    H131743   1.227   6.803   1.472  2.4006  2.5882  0.9593
 2516TIP3    H231744   1.249   6.781   1.324  0.1148 -1.0808  1.0545
 2517TIP3   OH231745   4.996   0.009   9.536  0.0674  0.0416 -0.2367
 2517TIP3    H131746   5.019   0.062   9.460  0.0250  0.6287  0.1549
 2517TIP3    H231747   5.054  -0.068   9.530 -0.0528  0.0052 -0.9429
 2518TIP3   OH231748   1.394   5.775   3.517  0.9109 -0.5162  0.6907
 2518TIP3    H131749   1.328   5.837   3.547  1.2250  0.0995  0.1377
 2518TIP3    H231750   1.344   5.705   3.475  0.6288  0.9000 -1.5079
 2519TIP3   OH231751   0.270   1.434   1.013  0.1961  0.1253 -0.3241
 2519TIP3    H131752   0.206   1.422   0.943 -1.0852 -2.6410  1.1777
 2519TIP3    H231753   0.227   1.399   1.091  2.0295  1.9815  1.6279
 2520TIP3   OH231754   7.143   2.685   7.820  0.1477  0.2179 -0.3088
 2520TIP3    H131755   7.061   2.638   7.803 -0.4676  1.1073  0.1250
 2520TIP3    H231756   7.122   2.776   7.801  0.7809  0.5799  0.6712
 2521TIP3   OH231757   6.193   7.340   9.380 -0.0582  0.1597  0.1348
 2521TIP3    H131758   6.133   7.413   9.397 -1.4819 -0.8414 -0.3145
 2521TIP3    H231759   6.149   7.289   9.311  1.1782 -0.8018  0.0200
 2522TIP3   OH231760   0.121   1.883   2.979  0.0371  0.0616  0.2341
 2522TIP3    H131761   0.173   1.963   2.980 -1.5740  1.1422  1.8049
 2522TIP3    H231762   0.068   1.890   2.899 -0.3678  0.7499  0.5584
 2523TIP3   OH231763   6.500   4.931   8.356 -0.0115 -0.2630 -0.3020
 2523TIP3    H131764   6.506   4.984   8.435  0.9225  0.1466 -0.6310
 2523TIP3    H231765   6.421   4.962   8.312 -0.5544 -0.5243  0.4872
 2524TIP3   OH231766   4.546   4.416   8.547 -0.0239  0.3746  0.5503
 2524TIP3    H131767   4.489   4.371   8.485 -1.4906 -0.4416  2.3892
 2524TIP3    H231768   4.499   4.497   8.569  1.0655  1.2685 -0.2761
 2525TIP3   OH231769   4.715   4.281   9.589  0.0003  0.3418  0.2884
 2525TIP3    H131770   4.705   4.209   9.526  0.4293 -0.4702  1.1215
 2525TIP3    H231771   4.725   4.359   9.535 -0.3059 -0.2488 -0.6429
 2526TIP3   OH231772   7.199   7.029   1.746  0.1013 -0.5947 -0.1066
 2526TIP3    H131773   7.282   6.987   1.770 -0.5660 -2.4928 -0.8853
 2526TIP3    H231774   7.137   7.000   1.813  0.1319  1.2658  0.7910
 2527TIP3   OH231775   0.818   5.948   6.301  0.1377 -0.1606 -0.2245
 2527TIP3    H131776   0.836   5.929   6.393  0.3884  2.4424  0.3424
 2527TIP3    H231777   0.723   5.956   6.296  0.0733 -0.9326 -0.3522
 2528TIP3   OH231778   3.387   1.266   9.380 -0.2677  0.5496 -0.3272
 2528TIP3    H131779   3.471   1.239   9.343 -0.3285 -1.1080  0.6452
 2528TIP3    H231780   3.402   1.266   9.475 -1.0642  1.3589 -0.1877
 2529TIP3   OH231781   0.127   7.062   7.700 -0.1483  0.0941 -0.0040
 2529TIP3    H131782   0.176   6.981   7.690 -0.3615  0.1752 -1.9956
 2529TIP3    H231783   0.037   7.040   7.677 -0.1555  0.9366 -0.8514
 2530TIP3   OH231784   4.519   4.264   8.797  0.1331 -0.1100 -0.5926
 2530TIP3    H131785   4.517   4.186   8.741 -1.1472  0.5079 -1.4687
 2530TIP3    H231786   4.556   4.332   8.740  0.3702  0.1397 -0.1403
 2531TIP3   OH231787   6.425   4.300   1.914 -0.4248 -0.2082 -0.2013
 2531TIP3    H131788   6.461   4.254   1.990 -0.5212  1.7638  1.1163
 2531TIP3    H231789   6.502   4.320   1.860 -0.1045 -0.0178  0.3100
 2532TIP3   OH231790   7.435   4.862   8.412 -0.1768  0.1324 -0.4850
 2532TIP3    H131791   7.500   4.793   8.395  0.5472  1.0015 -1.3273
 2532TIP3    H231792   7.451   4.888   8.503 -1.1661 -1.5135  0.2075
 2533TIP3   OH231793   2.372   1.767   9.153  0.0783 -0.4612 -0.4386
 2533TIP3    H131794   2.327   1.825   9.092  1.3195 -0.9337 -1.8557
 2533TIP3    H231795   2.301   1.722   9.199 -0.8935  0.6886 -0.7310
 2534TIP3   OH231796   4.937   6.121   0.815  0.1214  0.5874 -0.3661
 2534TIP3    H131797   4.949   6.098   0.908 -2.2566 -3.0357 -0.7768
 2534TIP3    H231798   4.859   6.176   0.814 -0.0604  0.3364 -0.2208
 2535TIP3   OH231799   0.517   6.548   7.688 -0.2527  0.4881  0.2282
 2535TIP3    H131800   0.470   6.580   7.765 -0.2435 -0.3185  0.5775
 2535TIP3    H231801   0.448   6.523   7.627 -0.4724 -3.2454  1.7539
 2536TIP3   OH231802   4.866   0.059   9.159 -0.9123 -0.2761 -0.1422
 2536TIP3    H131803   4.910   0.144   9.152  0.1574 -0.8590 -0.8489
 2536TIP3    H231804   4.931   0.001   9.198 -1.6560 -0.7659  0.4001
 2537TIP3   OH231805   6.153   4.810   8.493  0.2882  0.2067  0.4137
 2537TIP3    H131806   6.238   4.768   8.488  0.1003 -0.0269 -1.0055
 2537TIP3    H231807   6.097   4.746   8.538  0.5205 -0.2089  0.1177
 2538TIP3   OH231808   2.274   4.879   9.015 -0.2939  0.1991  0.1273
 2538TIP3    H131809   2.213   4.861   9.086 -1.9993 -1.6197 -1.6518
 2538TIP3    H231810   2.293   4.793   8.978  0.5420  1.0722 -1.5882
 2539TIP3   OH231811   2.811   5.831   0.076 -0.2421 -0.0270  0.1437
 2539TIP3    H131812   2.902   5.826   0.107  0.2439  1.9676 -0.7870
 2539TIP3    H231813   2.759   5.802   0.150  1.0667  0.8902  1.4850
 2540TIP3   OH231814   6.337   1.069   0.226  0.4013 -0.0179  0.0576
 2540TIP3    H131815   6.288   0.988   0.215 -0.3115  0.2524  1.1094
 2540TIP3    H231816   6.428   1.045   0.206 -0.1060 -0.5556 -1.7670
 2541TIP3   OH231817   6.090   3.628   0.204  0.1252 -0.0764  0.7811
 2541TIP3    H131818   6.147   3.621   0.128  0.8749  0.5802  1.2602
 2541TIP3    H231819   6.012   3.671   0.172 -0.0465 -0.8396  0.1484
 2542TIP3   OH231820   4.133   6.677   1.677 -0.1033  0.2248  0.3397
 2542TIP3    H131821   4.164   6.767   1.686  1.4156 -0.2564  0.2041
 2542TIP3    H231822   4.092   6.657   1.761  1.2386  0.4396  1.0685
 2543TIP3   OH231823   5.600   0.843   8.909  0.1884 -0.0838  0.6331
 2543TIP3    H131824   5.534   0.868   8.973  1.0002 -0.8052  1.7909
 2543TIP3    H231825   5.656   0.779   8.955  0.6545 -0.8095 -0.8580
 2544TIP3   OH231826   7.068   4.440   8.282  0.2785  0.0013 -0.4189
 2544TIP3    H131827   7.143   4.454   8.339  1.5503 -0.1557 -1.9945
 2544TIP3    H231828   7.050   4.346   8.287 -1.5544  0.3692  1.9713
 2545TIP3   OH231829   7.144   5.689   7.484  0.1103  0.0262  0.1602
 2545TIP3    H131830   7.104   5.705   7.569  1.3142 -2.9561  1.4249
 2545TIP3    H231831   7.088   5.623   7.443 -1.0367  2.1561 -1.8975
 2546TIP3   OH231832   0.455   6.252   0.519 -0.0478  0.0791  0.4014
 2546TIP3    H131833   0.407   6.171   0.502  1.3418 -0.4864 -1.1472
 2546TIP3    H231834   0.496   6.273   0.435 -1.5106  3.2209  0.3516
 2547TIP3   OH231835   1.181   6.505   9.125  0.3438  0.3506 -0.5307
 2547TIP3    H131836   1.170   6.599   9.120  2.3130  0.7164  0.9049
 2547TIP3    H231837   1.092   6.470   9.126 -0.4024  2.1312 -1.5872
 2548TIP3   OH231838   0.975   5.453   3.356 -0.3757 -0.1298  0.2248
 2548TIP3    H131839   0.931   5.367   3.350 -1.2759  0.3525 -0.4886
 2548TIP3    H231840   0.913   5.513   3.314 -0.3850  1.1247  1.9479
 2549TIP3   OH231841   7.181   6.796   0.827  0.6674 -0.0587 -0.1733
 2549TIP3    H131842   7.188   6.800   0.732 -0.1925  0.8763 -0.2126
 2549TIP3    H231843   7.116   6.728   0.844  1.9913 -1.3848 -0.1663
 2550TIP3   OH231844   1.353   7.266   1.512 -0.1322  0.0228  0.1863
 2550TIP3    H131845   1.330   7.246   1.603 -0.6584 -1.6117 -0.2806
 2550TIP3    H231846   1.295   7.210   1.460  1.4713 -0.4906 -1.1216
 2551TIP3   OH231847   6.863   0.832   0.508  0.2375 -0.2814  0.5182
 2551TIP3    H131848   6.844   0.901   0.446  0.8517 -0.2874  0.3128
 2551TIP3    H231849   6.953   0.804   0.487  0.1425 -0.8701  0.8446
 2552TIP3   OH231850   6.003   4.037   8.414 -0.3464 -0.5808  0.5457
 2552TIP3    H131851   5.958   4.073   8.490 -1.7581  0.5491 -0.7523
 2552TIP3    H231852   5.962   4.080   8.339  1.8172 -0.7516 -0.8237
 2553TIP3   OH231853   3.258   2.166   1.373 -0.3422 -0.3318  0.4205
 2553TIP3    H131854   3.214   2.250   1.389  1.0483 -0.0327  3.2805
 2553TIP3    H231855   3.296   2.176   1.286 -1.1898  1.5369  0.1934
 2554TIP3   OH231856   7.372   4.351   0.537 -0.1389 -0.2883  0.3239
 2554TIP3    H131857   7.325   4.353   0.620 -1.6503 -1.8461 -0.4200
 2554TIP3    H231858   7.463   4.334   0.560 -0.1325  1.3875  1.7410
 2555TIP3   OH231859   1.200   2.539   7.382 -0.2259 -0.5706  0.6967
 2555TIP3    H131860   1.265   2.535   7.452  0.9645  0.3712 -0.3129
 2555TIP3    H231861   1.177   2.632   7.375 -2.5149 -0.9882  1.7322
 2556TIP3   OH231862   1.538   0.505   0.154 -0.3196  0.1744  0.1520
 2556TIP3    H131863   1.464   0.504   0.093 -1.7320 -0.1252  1.7834
 2556TIP3    H231864   1.552   0.598   0.171 -0.9942  0.2069  0.5812
 2557TIP3   OH231865   1.991   6.135   1.611 -0.4456  0.3581 -0.1841
 2557TIP3    H131866   2.003   6.093   1.526  0.1610 -1.5261  0.7733
 2557TIP3    H231867   2.061   6.201   1.615 -0.5707  0.5619 -1.1933
 2558TIP3   OH231868   1.920   7.414   7.341  0.3807 -0.3641 -0.3976
 2558TIP3    H131869   1.906   7.450   7.254 -0.2965  0.2329 -0.0509
 2558TIP3    H231870   1.983   7.344   7.328  1.1420  0.4459 -1.2062
 2559TIP3   OH231871   7.115   7.115   9.764  0.2751 -0.2782 -0.2014
 2559TIP3    H131872   7.166   7.035   9.753 -0.1590 -0.5427 -0.2790
 2559TIP3    H231873   7.096   7.143   9.675 -0.3708 -0.5972 -0.1672
 2560TIP3   OH231874   0.501   3.037   8.341 -0.0170  0.0055  0.5285
 2560TIP3    H131875   0.470   3.118   8.299  0.6744 -0.0652 -0.1315
 2560TIP3    H231876   0.422   3.000   8.380 -0.6641  0.1513 -0.5853
 2561TIP3   OH231877   5.822   1.993   9.918  0.0402 -1.1005 -0.4755
 2561TIP3    H131878   5.830   2.088   9.925 -0.2108 -1.0381 -1.0695
 2561TIP3    H231879   5.729   1.975   9.933  0.1161 -1.2706 -0.1929
 2562TIP3   OH231880   5.254   5.481   1.412 -0.6058 -0.2182  0.3445
 2562TIP3    H131881   5.165   5.475   1.377  0.1559  1.5551 -2.1447
 2562TIP3    H231882   5.310   5.446   1.343  0.7043 -0.9229  1.7074
 2563TIP3   OH231883   0.363   6.224   9.310  0.4967 -0.1693 -0.1680
 2563TIP3    H131884   0.451   6.248   9.281  0.4707 -0.5351 -0.5573
 2563TIP3    H231885   0.318   6.198   9.230  0.4303 -1.2355  0.2039
 2564TIP3   OH231886   5.971   1.603   9.574  0.3704  0.3860 -0.2661
 2564TIP3    H131887   5.958   1.617   9.480  0.9448  0.6874 -0.3068
 2564TIP3    H231888   5.923   1.675   9.615  1.6513  1.3652 -0.4082
 2565TIP3   OH231889   7.128   0.221   0.798 -0.1885  0.0057 -0.7927
 2565TIP3    H131890   7.165   0.270   0.871  0.1696  0.6059 -1.3721
 2565TIP3    H231891   7.201   0.171   0.763 -0.6963 -1.5555  0.2502
 2566TIP3   OH231892   7.075   6.338   8.862 -0.7136 -0.1220 -0.2539
 2566TIP3    H131893   7.118   6.298   8.786  0.5098  0.4539  0.1103
 2566TIP3    H231894   7.088   6.275   8.933  1.0459  0.7565  0.2714
 2567TIP3   OH231895   7.325   4.560   1.006  0.6970 -0.4609  0.1897
 2567TIP3    H131896   7.245   4.609   0.989  1.6185  0.6754 -1.1745
 2567TIP3    H231897   7.298   4.468   1.005 -0.4332 -0.1621 -1.3991
 2568TIP3   OH231898   5.507   7.158   9.036 -0.3024 -0.3208  0.3185
 2568TIP3    H131899   5.562   7.080   9.044  0.2353  0.0612  0.4009
 2568TIP3    H231900   5.419   7.128   9.062 -0.0945 -0.8868  0.3840
 2569TIP3   OH231901   5.857   1.376   8.657  0.2961 -0.1743 -0.1620
 2569TIP3    H131902   5.812   1.458   8.677 -1.2450 -1.1075  0.3330
 2569TIP3    H231903   5.931   1.375   8.717 -0.2066  0.4266  0.4867
 2570TIP3   OH231904   1.796   0.617   8.831 -0.1495 -0.5620 -0.2176
 2570TIP3    H131905   1.888   0.642   8.827 -0.4781  0.6671 -0.7288
 2570TIP3    H231906   1.770   0.605   8.740 -1.4252  2.9741 -0.5029
 2571TIP3   OH231907   3.417   5.480   0.068  0.7592 -0.1796  0.2166
 2571TIP3    H131908   3.345   5.457   0.009 -0.1946  0.9863  0.8766
 2571TIP3    H231909   3.487   5.508   0.009  0.2068 -0.0543 -0.4009
 2572TIP3   OH231910   7.418   0.891   7.770  0.1008 -0.7437 -0.7352
 2572TIP3    H131911   7.344   0.879   7.710 -2.2846 -0.3331  1.9059
 2572TIP3    H231912   7.445   0.803   7.794 -1.8774 -0.9952  0.8344
 2573TIP3   OH231913   3.860   1.202   2.365  0.4451 -0.1946 -0.5044
 2573TIP3    H131914   3.890   1.114   2.343  0.9902  0.0458 -0.7417
 2573TIP3    H231915   3.809   1.191   2.445  1.3665 -0.5802  0.0305
 2574TIP3   OH231916   7.037   3.896   9.479  0.0885 -0.0851  0.2943
 2574TIP3    H131917   7.118   3.870   9.435 -0.7869  0.3795 -1.6758
 2574TIP3    H231918   7.052   3.986   9.506 -0.2215  0.4777 -1.3070
 2575TIP3   OH231919   6.096   6.485   7.888  0.3788 -0.1053  0.4141
 2575TIP3    H131920   6.190   6.471   7.896  0.7566  2.1305  0.6578
 2575TIP3    H231921   6.071   6.438   7.809  1.8547 -0.0681 -0.1018
 2576TIP3   OH231922   4.332   6.662   9.573 -0.6047  0.6931 -0.5807
 2576TIP3    H131923   4.259   6.717   9.602 -0.9356  0.3468 -0.7420
 2576TIP3    H231924   4.323   6.582   9.625  0.4588  1.1612  0.3804
 2577TIP3   OH231925   5.347   2.510   9.913  0.4421 -0.8852 -0.4094
 2577TIP3    H131926   5.302   2.496   9.996 -0.4528 -0.6726 -0.8429
 2577TIP3    H231927   5.439   2.525   9.937  0.3083 -1.4299  0.4859
 2578TIP3   OH231928   2.758   2.017   0.226 -0.3809  0.1782 -0.2361
 2578TIP3    H131929   2.786   1.952   0.291  0.3090 -0.2987 -0.9829
 2578TIP3    H231930   2.838   2.037   0.176 -0.7525  1.0369 -0.5100
 2579TIP3   OH231931   6.458   2.556   1.215 -0.3547  0.1524 -0.1561
 2579TIP3    H131932   6.431   2.637   1.258  0.7464  1.8775 -2.4591
 2579TIP3    H231933   6.551   2.547   1.235  0.1240  0.8648 -1.8687
 2580TIP3   OH231934   5.167   4.040   9.022 -0.5347  0.4799 -0.1252
 2580TIP3    H131935   5.219   4.001   9.093 -0.4267 -0.2662 -0.6084
 2580TIP3    H231936   5.140   4.125   9.057 -3.2438 -1.1059  2.1831
 2581TIP3   OH231937   3.843   1.215   7.350 -0.4042 -0.3636  0.4129
 2581TIP3    H131938   3.832   1.122   7.330  0.5049 -0.4061  0.0572
 2581TIP3    H231939   3.794   1.261   7.282 -0.3052 -0.5743  0.1982
 2582TIP3   OH231940   0.914   2.964   8.693 -0.3006 -0.3947 -0.5657
 2582TIP3    H131941   0.825   2.973   8.660 -0.1073  0.7890 -0.7916
 2582TIP3    H231942   0.905   2.969   8.788 -0.4391  0.1071 -0.6035
 2583TIP3   OH231943   3.993   0.418   0.366  0.4165 -0.4178  0.1560
 2583TIP3    H131944   4.071   0.460   0.402  1.9812 -1.5162 -1.7282
 2583TIP3    H231945   3.961   0.478   0.300  0.8652 -0.8293 -0.4454
 2584TIP3   OH231946   6.459   7.328   1.198 -0.6866 -0.4156  0.2513
 2584TIP3    H131947   6.485   7.309   1.108 -0.1820  5.5237 -1.2903
 2584TIP3    H231948   6.541   7.335   1.245 -0.6860 -0.0576  0.2040
 2585TIP3   OH231949   1.341   7.049   1.079  0.3334 -0.2038 -0.4031
 2585TIP3    H131950   1.264   6.994   1.070  0.5149 -0.4416 -0.5369
 2585TIP3    H231951   1.408   7.005   1.026  0.5337  0.0454 -0.3611
 2586TIP3   OH231952   1.985   7.256   2.157 -0.1385 -0.5845  0.1037
 2586TIP3    H131953   1.920   7.327   2.162  1.5236  1.2727 -2.0545
 2586TIP3    H231954   1.966   7.201   2.232 -3.1955  0.7049  0.4521
 2587TIP3   OH231955   1.358   3.378   8.981 -0.1531 -0.6542 -0.3428
 2587TIP3    H131956   1.359   3.361   9.076 -1.0676 -0.3614 -0.2729
 2587TIP3    H231957   1.340   3.472   8.973  0.2589 -0.6117 -0.8041
 2588TIP3   OH231958   2.101   3.183   1.115 -0.0815  0.4573  0.0026
 2588TIP3    H131959   2.095   3.278   1.104  1.3980  0.5298 -0.2755
 2588TIP3    H231960   2.194   3.164   1.117 -0.3509 -1.0047  0.0713
 2589TIP3   OH231961   7.376   7.255   7.944  0.1313  0.0057  0.2830
 2589TIP3    H131962   7.361   7.340   7.902  1.2331 -0.5896 -1.4154
 2589TIP3    H231963   7.337   7.191   7.884  0.4289 -0.7889  0.9136
 2590TIP3   OH231964   0.852   3.412   9.365  0.4112  0.1706 -0.2014
 2590TIP3    H131965   0.890   3.338   9.413  0.4480 -0.0982 -0.6380
 2590TIP3    H231966   0.838   3.479   9.431 -0.6897 -0.6393  0.4295
 2591TIP3   OH231967   2.077   0.584   1.449 -0.2225  0.1466 -0.4689
 2591TIP3    H131968   2.059   0.527   1.374 -0.3397 -0.6196  0.1321
 2591TIP3    H231969   2.151   0.637   1.421  0.9466 -1.4230 -0.4676
 2592TIP3   OH231970   2.027   6.459   1.308  0.3730 -0.3776 -0.2241
 2592TIP3    H131971   2.034   6.389   1.374 -0.9848  0.1196  0.4931
 2592TIP3    H231972   1.933   6.463   1.289  0.5242  0.8060 -0.7474
 2593TIP3   OH231973   1.695   4.532   9.949  0.1443 -0.2103 -0.3179
 2593TIP3    H131974   1.662   4.551  10.037  4.1421 -1.8039  1.7584
 2593TIP3    H231975   1.654   4.449   9.926 -2.7722  1.3098 -1.2022
 2594TIP3   OH231976   2.281   5.682   8.450  0.2673 -0.1805  0.2582
 2594TIP3    H131977   2.322   5.670   8.364  0.4597  0.6173  0.2233
 2594TIP3    H231978   2.256   5.775   8.451  0.2352 -0.1915  1.0504
 2595TIP3   OH231979   2.836   0.133   0.845  0.0349  0.2130 -0.6674
 2595TIP3    H131980   2.892   0.125   0.923  1.2159 -0.8220 -1.5952
 2595TIP3    H231981   2.880   0.200   0.792  0.3721 -0.5281 -1.3490
 2596TIP3   OH231982   7.440   4.979   9.049  0.0047 -0.2427  0.0508
 2596TIP3    H131983   7.391   5.057   9.075 -0.4221 -0.4842 -0.0218
 2596TIP3    H231984   7.385   4.937   8.983  1.6961  1.1136 -2.3622
 2597TIP3   OH231985   2.741   0.054   2.561  0.2189 -0.2064  0.7705
 2597TIP3    H131986   2.703   0.140   2.544  0.5215 -0.0990  0.6431
 2597TIP3    H231987   2.766   0.057   2.653  1.9006  0.4881  0.3114
 2598TIP3   OH231988   3.396   3.253   0.226 -0.7328 -0.3038 -0.0963
 2598TIP3    H131989   3.320   3.223   0.276 -0.7173  0.6237  0.4955
 2598TIP3    H231990   3.359   3.304   0.154 -0.8234 -2.4982 -1.7423
 2599TIP3   OH231991   6.804   2.519   0.554  0.1417  0.3632  0.1509
 2599TIP3    H131992   6.764   2.501   0.469 -0.4384 -0.3957  0.5809
 2599TIP3    H231993   6.895   2.543   0.533 -0.1786  0.8650 -0.7273
 2600TIP3   OH231994   0.492   2.861   2.058 -0.1920  0.1566  0.1087
 2600TIP3    H131995   0.468   2.902   2.141 -2.3385 -2.2432  0.8046
 2600TIP3    H231996   0.531   2.778   2.083 -0.0339 -0.2149 -1.3045
 2601TIP3   OH231997   0.646   0.935   0.300  0.1926 -0.3865  0.3191
 2601TIP3    H131998   0.696   0.862   0.263  0.6285 -0.4547  1.0256
 2601TIP3    H231999   0.595   0.968   0.226  1.3727 -0.2280 -0.4699
 2602TIP3   OH232000   0.434   5.384   0.628  0.8482 -0.1137  0.2805
 2602TIP3    H132001   0.455   5.463   0.677  0.3465  0.7575 -0.8749
 2602TIP3    H232002   0.496   5.318   0.660  3.0363  1.4271 -0.5542
 2603TIP3   OH232003   2.128   1.612   7.978  0.0277  0.3611  0.4146
 2603TIP3    H132004   2.108   1.523   8.006  3.0860 -0.8703 -0.8174
 2603TIP3    H232005   2.151   1.658   8.059  0.1596 -0.5208  0.8897
 2604TIP3   OH232006   1.077   2.847   9.388 -0.1429  0.0323 -0.2296
 2604TIP3    H132007   1.148   2.843   9.452 -0.8262  0.6953  0.6017
 2604TIP3    H232008   1.040   2.759   9.386 -0.0072 -0.0322  0.1587
 2605TIP3   OH232009   0.839   4.682   9.497 -0.5627  0.2035 -0.2353
 2605TIP3    H132010   0.773   4.730   9.547 -0.7170  1.8950 -1.9229
 2605TIP3    H232011   0.792   4.650   9.420  0.3393  0.4352 -0.8983
 2606TIP3   OH232012   0.890   4.897   0.594  0.1810 -0.1334  0.0640
 2606TIP3    H132013   0.842   4.909   0.512 -1.1180  0.5680  0.8850
 2606TIP3    H232014   0.939   4.979   0.605  2.3449 -1.1657 -1.1952
 2607TIP3   OH232015   7.098   2.255   8.605 -0.2478  0.3607 -0.0991
 2607TIP3    H132016   7.015   2.274   8.561 -1.0162  1.8895  1.8405
 2607TIP3    H232017   7.085   2.169   8.644 -1.3606  1.0176  1.0535
 2608TIP3   OH232018   6.240   2.381   1.510 -0.3518 -0.2903  0.0300
 2608TIP3    H132019   6.202   2.417   1.590  1.4697  1.5592  0.1768
 2608TIP3    H232020   6.230   2.287   1.518 -2.4575 -0.0128  1.2349
 2609TIP3   OH232021   2.678   6.113   7.929  0.3627 -0.4069 -0.1688
 2609TIP3    H132022   2.652   6.113   7.837  0.8836 -4.4860 -0.4810
 2609TIP3    H232023   2.771   6.135   7.927  0.1726  0.4436 -0.4546
 2610TIP3   OH232024   1.054   5.580   9.048  0.9231 -0.5306  0.2641
 2610TIP3    H132025   1.092   5.504   9.093 -0.5300 -1.5583 -0.1529
 2610TIP3    H232026   0.960   5.562   9.047  0.7427  0.2789 -1.6535
 2611TIP3   OH232027   1.359   3.027   2.114 -0.3987 -0.3321  0.2058
 2611TIP3    H132028   1.396   3.115   2.114 -0.9085 -0.0965 -1.1885
 2611TIP3    H232029   1.338   3.009   2.206  1.3685  0.2767  0.7614
 2612TIP3   OH232030   1.146   5.724   1.971 -0.1667 -0.0521  0.0408
 2612TIP3    H132031   1.060   5.764   1.967  0.2053  0.7729  0.0037
 2612TIP3    H232032   1.145   5.658   1.901  0.5298  2.6325 -2.7526
 2613TIP3   OH232033   3.743   5.845   8.871 -0.4805 -0.8978 -0.1536
 2613TIP3    H132034   3.791   5.911   8.821  0.0136 -0.7176  0.5481
 2613TIP3    H232035   3.775   5.854   8.961 -1.7346 -0.8590  0.3096
 2614TIP3   OH232036   3.771   4.282   1.608 -0.6054 -0.3638  0.1206
 2614TIP3    H132037   3.696   4.341   1.598  1.0321  1.9442  0.6122
 2614TIP3    H232038   3.791   4.254   1.518 -1.9157 -0.8990 -0.0308
 2615TIP3   OH232039   0.929   6.365   9.140  0.2521 -0.2591 -0.0461
 2615TIP3    H132040   0.896   6.347   9.052  1.1923 -0.1335 -0.4382
 2615TIP3    H232041   0.978   6.287   9.163 -1.6180 -1.1437  1.2084
 2616TIP3   OH232042   5.272   3.161   8.132  0.1858 -0.3414  0.0172
 2616TIP3    H132043   5.258   3.254   8.115  3.3196  0.1164 -0.6331
 2616TIP3    H232044   5.249   3.118   8.050 -1.2630 -0.1812  0.3155
 2617TIP3   OH232045   2.790   4.298   1.755  0.3290 -0.2872 -0.1306
 2617TIP3    H132046   2.723   4.231   1.739  1.2811 -1.3565  0.2912
 2617TIP3    H232047   2.844   4.262   1.824  0.4328  1.2571  0.6313
 2618TIP3   OH232048   1.887   5.384   9.091  0.2041 -0.4098  0.3649
 2618TIP3    H132049   1.889   5.290   9.070  0.2775 -0.0221 -1.4970
 2618TIP3    H232050   1.807   5.416   9.048 -0.7677  0.0985  2.4184
 2619TIP3   OH232051   3.799   6.563   1.485  0.2186 -0.5564 -0.4428
 2619TIP3    H132052   3.877   6.507   1.486  1.8393  1.5407 -0.4292
 2619TIP3    H232053   3.822   6.636   1.542 -1.6735  0.2657 -0.6720
 2620TIP3   OH232054   1.182   5.603   6.852  0.0398 -0.2835  0.1097
 2620TIP3    H132055   1.220   5.535   6.907  2.1282 -1.0734 -2.1179
 2620TIP3    H232056   1.112   5.559   6.803  0.2958 -0.4215 -0.1368
 2621TIP3   OH232057   1.620   5.519   0.610 -0.0050  0.6125 -0.5669
 2621TIP3    H132058   1.673   5.597   0.620  0.2049  0.5141 -0.8797
 2621TIP3    H232059   1.625   5.499   0.516 -0.2165  0.3378 -0.5214
 2622TIP3   OH232060   7.340   2.093   1.265  1.0376  0.4374  0.0851
 2622TIP3    H132061   7.432   2.068   1.272  1.5423  2.2094  0.2790
 2622TIP3    H232062   7.333   2.134   1.179  0.6133  1.0209  0.3924
 2623TIP3   OH232063   1.439   1.867   0.188 -0.3206  0.2491  0.0456
 2623TIP3    H132064   1.534   1.864   0.194 -0.4173 -1.7673  1.3832
 2623TIP3    H232065   1.420   1.954   0.153  2.0143  0.4847 -0.8072
 2624TIP3   OH232066   6.697   5.364   8.179  0.0756  0.5718  0.5532
 2624TIP3    H132067   6.707   5.388   8.271 -0.2099 -2.1324  1.3737
 2624TIP3    H232068   6.603   5.363   8.165  0.1071  0.6154  0.3427
 2625TIP3   OH232069   3.541   1.346   8.729 -0.2299 -0.1442 -0.2803
 2625TIP3    H132070   3.582   1.309   8.651 -0.6025 -2.4098  0.5361
 2625TIP3    H232071   3.447   1.337   8.714 -0.3634 -3.9529  1.7798
 2626TIP3   OH232072   2.358   6.380   7.820 -0.1184  0.1341 -0.2045
 2626TIP3    H132073   2.395   6.429   7.746 -1.7058  0.5719 -0.7543
 2626TIP3    H232074   2.267   6.411   7.826 -0.8967 -2.0378  0.0278
 2627TIP3   OH232075   0.953   6.568   7.778 -0.2197  0.1612  0.2610
 2627TIP3    H132076   0.958   6.598   7.688  0.8219 -1.4552 -0.2637
 2627TIP3    H232077   0.870   6.520   7.783 -0.3863  0.4427  0.2445
 2628TIP3   OH232078   3.426   0.029   2.388 -0.8800  0.3297  0.1387
 2628TIP3    H132079   3.485   0.047   2.462 -1.6246 -0.5299  0.9744
 2628TIP3    H232080   3.359   0.096   2.395 -1.5971 -0.4518  0.9799
 2629TIP3   OH232081   2.913   2.757   1.129 -0.1607  0.6117  0.2219
 2629TIP3    H132082   2.944   2.798   1.211  0.2009 -0.5652  0.7020
 2629TIP3    H232083   2.935   2.665   1.140 -1.4026  0.2046 -0.6239
 2630TIP3   OH232084   1.543   6.813   0.236 -0.2534 -0.3354 -0.2914
 2630TIP3    H132085   1.449   6.803   0.219 -0.3379  0.3975 -0.2856
 2630TIP3    H232086   1.581   6.729   0.208 -0.4348  0.5880 -3.8684
 2631TIP3   OH232087   0.240   7.053   9.005 -0.8125 -0.2355  0.1931
 2631TIP3    H132088   0.246   6.962   9.032  0.9032 -0.1364  0.2079
 2631TIP3    H232089   0.254   7.103   9.086 -1.3450  0.0544  0.1128
 2632TIP3   OH232090   6.183   0.488   8.396  0.5267  0.3704 -0.1255
 2632TIP3    H132091   6.127   0.559   8.364  1.5059  0.2338 -2.3079
 2632TIP3    H232092   6.122   0.416   8.413 -0.0798  0.2403 -2.4034
 2633TIP3   OH232093   6.474   3.280   0.815 -0.0618  0.3418 -0.0224
 2633TIP3    H132094   6.494   3.347   0.881 -0.3135 -0.1562  0.5686
 2633TIP3    H232095   6.556   3.267   0.768 -0.3112  1.9307 -0.9501
 2634TIP3   OH232096   3.839   3.267   1.716 -0.3468  0.0068 -0.0551
 2634TIP3    H132097   3.922   3.245   1.674  0.1435  0.9032  0.4399
 2634TIP3    H232098   3.829   3.362   1.703 -1.1433 -0.0350  0.1610
 2635TIP3   OH232099   0.882   3.717   7.811  0.2222 -0.2924  0.3815
 2635TIP3    H132100   0.816   3.754   7.869 -1.5377 -0.3254 -1.4719
 2635TIP3    H232101   0.893   3.627   7.841  0.4830  0.1223  1.5680
 2636TIP3   OH232102   1.472   2.074   9.045 -0.0848  0.1817  0.0722
 2636TIP3    H132103   1.502   2.072   8.954 -0.8154  1.2886 -0.2155
 2636TIP3    H232104   1.378   2.091   9.039  0.1649  2.1699  1.0447
 2637TIP3   OH232105   0.437   5.863   2.076  0.2143  0.4979  0.6946
 2637TIP3    H132106   0.526   5.894   2.090  0.7352 -0.4716 -0.3145
 2637TIP3    H232107   0.447   5.770   2.055 -1.1990 -0.2137  2.7357
 2638TIP3   OH232108   2.832   4.663   6.365 -0.3953 -0.1147  0.1201
 2638TIP3    H132109   2.843   4.694   6.275 -0.2367  0.5560  0.3603
 2638TIP3    H232110   2.886   4.585   6.371  0.9577  0.7867  0.1065
 2639TIP3   OH232111   2.522   0.431   7.545  0.0495  0.2713  0.2272
 2639TIP3    H132112   2.482   0.366   7.604 -2.1273  0.0548 -1.3503
 2639TIP3    H232113   2.535   0.383   7.463 -0.1325  1.3950 -0.4836
 2640TIP3   OH232114   7.346   2.735   8.758 -0.4213  0.8023  0.7279
 2640TIP3    H132115   7.253   2.715   8.752  0.1147 -1.5174 -2.6975
 2640TIP3    H232116   7.363   2.792   8.684  1.2009 -0.5820 -0.0347
 2641TIP3   OH232117   4.180   2.138   0.478  0.5842  0.0400 -0.6650
 2641TIP3    H132118   4.151   2.229   0.477  0.6045  0.0804  0.6956
 2641TIP3    H232119   4.209   2.121   0.389  0.8219  1.4413 -0.8712
 2642TIP3   OH232120   4.563   6.804   8.613  0.0185  0.8056  0.1087
 2642TIP3    H132121   4.519   6.719   8.610  0.7470  0.4261  0.0333
 2642TIP3    H232122   4.655   6.784   8.594 -0.0778  1.8117 -1.5175
 2643TIP3   OH232123   3.210   2.718   7.899  0.5801  0.1749 -0.0491
 2643TIP3    H132124   3.155   2.771   7.957  1.0248  0.8561 -0.2354
 2643TIP3    H232125   3.168   2.632   7.898 -1.7323  1.2159 -1.8739
 2644TIP3   OH232126   2.240   5.501   8.021 -0.1348 -0.4751 -0.2606
 2644TIP3    H132127   2.207   5.459   8.100  0.8289  0.0728  0.4538
 2644TIP3    H232128   2.317   5.550   8.050  0.4898 -0.6079 -1.6176
 2645TIP3   OH232129   3.778   4.718   8.941  0.6409  0.4099  0.9512
 2645TIP3    H132130   3.856   4.763   8.909 -0.3337  2.3285  1.1679
 2645TIP3    H232131   3.704   4.772   8.913 -0.5172 -0.3884  2.2844
 2646TIP3   OH232132   3.369   0.041   7.202  0.1178  0.1224  0.0434
 2646TIP3    H132133   3.282   0.051   7.165 -0.9963 -0.9998  2.1590
 2646TIP3    H232134   3.429   0.061   7.130 -1.8053 -2.8839 -2.6565
 2647TIP3   OH232135   6.146   3.890   0.771 -0.5203  0.1422 -0.3998
 2647TIP3    H132136   6.190   3.870   0.688 -0.0984  1.5739 -0.5503
 2647TIP3    H232137   6.190   3.835   0.836 -0.6159 -0.7263 -1.0477
 2648TIP3   OH232138   6.225   4.076   9.718 -0.6497  0.9171 -0.2232
 2648TIP3    H132139   6.242   4.168   9.697  1.6854  0.8145  0.9890
 2648TIP3    H232140   6.230   4.072   9.814  0.2746 -0.6515 -0.3150
 2649TIP3   OH232141   6.247   0.955   9.926 -0.1276 -0.2638  0.0968
 2649TIP3    H132142   6.263   0.924  10.015 -2.6084  1.0099  1.0888
 2649TIP3    H232143   6.277   1.046   9.927 -1.0241  0.0395 -0.0751
 2650TIP3   OH232144   0.131   4.667   1.518  0.1127 -0.4588 -0.0729
 2650TIP3    H132145   0.131   4.714   1.601 -0.1088  0.2028 -0.4413
 2650TIP3    H232146   0.049   4.617   1.519 -0.9387  1.1561 -0.7653
 2651TIP3   OH232147   4.116   7.162   3.027 -0.4584 -0.3085 -0.0544
 2651TIP3    H132148   4.168   7.091   3.066  0.5980 -0.0999 -1.0436
 2651TIP3    H232149   4.179   7.214   2.977 -0.8201  2.4973  2.1513
 2652TIP3   OH232150   3.009   4.989   7.222 -0.7062 -0.1372  0.7577
 2652TIP3    H132151   2.999   5.066   7.166 -0.6911 -0.2578  0.5877
 2652TIP3    H232152   3.095   4.999   7.262 -0.3767 -0.4582  0.1345
 2653TIP3   OH232153   4.783   7.429   0.461 -0.6481  0.0924 -0.0381
 2653TIP3    H132154   4.748   7.340   0.469 -1.0320  0.2902  0.6420
 2653TIP3    H232155   4.848   7.424   0.391  0.7931 -1.1824  1.3049
 2654TIP3   OH232156   1.557   0.521   7.200  0.0720  0.1423 -0.1270
 2654TIP3    H132157   1.552   0.432   7.234  1.1069 -0.2231 -0.8878
 2654TIP3    H232158   1.582   0.511   7.108 -0.4932  1.1978 -0.4169
 2655TIP3   OH232159   3.175   1.257   1.876 -0.2199 -0.8412 -0.3285
 2655TIP3    H132160   3.245   1.195   1.895  1.4193 -0.2354 -3.6588
 2655TIP3    H232161   3.218   1.342   1.871 -1.8420  0.1109  0.8613
 2656TIP3   OH232162   4.399   1.183   7.408  0.8004  0.5629  0.4616
 2656TIP3    H132163   4.489   1.214   7.417  0.7073  0.9674  0.0618
 2656TIP3    H232164   4.384   1.178   7.314  0.8340 -0.7947  0.5142
 2657TIP3   OH232165   0.090   6.915   8.573  0.1384 -0.1583 -0.2798
 2657TIP3    H132166   0.020   6.974   8.603  1.2099 -0.3910  3.0569
 2657TIP3    H232167   0.145   6.970   8.517  0.4337  1.7308  1.7457
 2658TIP3   OH232168   4.560   3.795   8.955  0.0001 -0.3978  0.7467
 2658TIP3    H132169   4.569   3.889   8.972 -1.8289 -0.4648  2.4094
 2658TIP3    H232170   4.593   3.784   8.866  1.2760  1.6240  0.9132
 2659TIP3   OH232171   6.925   4.686   9.254  0.9343  0.0306  0.1549
 2659TIP3    H132172   6.959   4.722   9.172 -1.2623 -1.3900 -1.5111
 2659TIP3    H232173   6.906   4.594   9.234  0.2844 -0.3489  2.2521
 2660TIP3   OH232174   2.514   6.862   9.553 -0.4715  0.2914  0.0576
 2660TIP3    H132175   2.459   6.920   9.606 -0.3474  1.1189 -0.6896
 2660TIP3    H232176   2.575   6.921   9.508  2.1560 -0.6829  2.0658
 2661TIP3   OH232177   2.726   2.121   9.580  0.0504  0.5213  0.0958
 2661TIP3    H132178   2.674   2.048   9.615  1.2205 -0.0525  0.6739
 2661TIP3    H232179   2.710   2.192   9.642  0.2556  0.2292  0.4867
 2662TIP3   OH232180   6.094   5.866   8.353  0.5258  0.1349  0.3186
 2662TIP3    H132181   6.166   5.861   8.417  1.6116 -0.9869 -0.9301
 2662TIP3    H232182   6.017   5.835   8.401  0.7721  1.5936  1.7605
 2663TIP3   OH232183   4.823   6.765   2.498 -0.1957  0.1471  0.1735
 2663TIP3    H132184   4.866   6.851   2.504  0.2844 -0.0373 -0.5322
 2663TIP3    H232185   4.851   6.730   2.413  1.7499 -1.8365  1.5149
 2664TIP3   OH232186   6.341   4.270   1.178 -0.4108  0.3603 -0.3495
 2664TIP3    H132187   6.311   4.297   1.091 -4.4767 -0.7751  0.4728
 2664TIP3    H232188   6.421   4.221   1.161 -1.4559 -0.5080 -3.5685
 2665TIP3   OH232189   3.187   4.292   8.967 -0.0179 -0.1379  0.0704
 2665TIP3    H132190   3.140   4.221   8.923  0.8422 -0.9674  0.4695
 2665TIP3    H232191   3.191   4.362   8.901  1.7346 -1.5384 -1.4392
 2666TIP3   OH232192   3.937   0.482   9.954  0.4835  0.4709  0.1101
 2666TIP3    H132193   4.030   0.464   9.942  0.2643 -0.5881 -0.1337
 2666TIP3    H232194   3.917   0.551   9.890  0.5736 -1.0562 -1.6435
 2667TIP3   OH232195   2.114   0.405   7.624 -0.0927 -0.5431 -1.0234
 2667TIP3    H132196   2.112   0.314   7.654 -1.6319 -0.2198 -0.0395
 2667TIP3    H232197   2.115   0.456   7.704 -1.0820  0.3191 -1.5386
 2668TIP3   OH232198   1.789   6.933   0.193  0.6440 -0.4511  0.7808
 2668TIP3    H132199   1.781   7.009   0.251  0.8531  0.8756 -0.8489
 2668TIP3    H232200   1.714   6.879   0.215  0.4005  0.2870  1.8877
 2669TIP3   OH232201   0.402   2.018   0.627  0.3761  0.1915  0.8248
 2669TIP3    H132202   0.433   1.933   0.660 -1.3726 -0.0470  2.0140
 2669TIP3    H232203   0.466   2.043   0.561  0.9099 -2.0848  0.3943
 2670TIP3   OH232204   1.114   5.504   0.453 -0.3031  0.0225  0.0839
 2670TIP3    H132205   1.067   5.445   0.395  2.7210  1.3323 -4.2558
 2670TIP3    H232206   1.065   5.586   0.449 -0.4872 -0.0958 -0.0975
 2671TIP3   OH232207   2.293   5.048   0.630  0.0634 -0.3799  0.3465
 2671TIP3    H132208   2.272   4.965   0.673  1.7411 -1.4835 -0.8673
 2671TIP3    H232209   2.214   5.068   0.579 -0.3153 -1.2744  0.5532
 2672TIP3   OH232210   2.741   4.496   0.182 -0.0222 -0.5480  0.2291
 2672TIP3    H132211   2.803   4.486   0.255  0.6985 -0.1590 -0.3067
 2672TIP3    H232212   2.727   4.407   0.150 -1.0234 -0.8291  1.3657
 2673TIP3   OH232213   0.985   5.140   7.656 -0.3450  0.1963 -0.4268
 2673TIP3    H132214   0.925   5.205   7.620 -0.3347  0.1043 -0.6095
 2673TIP3    H232215   0.936   5.099   7.728 -0.8332 -0.4933 -1.1359
 2674TIP3   OH232216   2.264   4.606   2.909  0.8477 -0.2767 -0.1352
 2674TIP3    H132217   2.359   4.615   2.923  0.9986 -1.5618 -0.1989
 2674TIP3    H232218   2.245   4.515   2.933 -0.7990  0.5645  2.0911
 2675TIP3   OH232219   6.876   7.253   0.081  0.7490  0.1862 -0.1608
 2675TIP3    H132220   6.936   7.314   0.124 -0.5016  0.9149  0.6061
 2675TIP3    H232221   6.863   7.184   0.145  0.0357  0.5203  0.0635
 2676TIP3   OH232222   3.612   6.346   0.849 -0.0532 -0.2299  0.2045
 2676TIP3    H132223   3.568   6.329   0.766 -1.3580  1.0901  0.5777
 2676TIP3    H232224   3.674   6.417   0.828 -0.5937  0.3091  0.4016
 2677TIP3   OH232225   2.522   6.343   8.129  0.0276 -0.1135  0.1580
 2677TIP3    H132226   2.595   6.383   8.082  0.9198 -1.8836 -0.0477
 2677TIP3    H232227   2.449   6.405   8.117  1.7139  2.2562  1.3068
 2678TIP3   OH232228   3.676   3.480   1.165 -0.0415  0.1375  0.2014
 2678TIP3    H132229   3.769   3.458   1.169  0.7670  3.0771 -0.1471
 2678TIP3    H232230   3.649   3.455   1.076  0.1789 -1.4112  0.5460
 2679TIP3   OH232231   3.443   5.012   6.865  0.4916  0.2151  0.7623
 2679TIP3    H132232   3.510   4.952   6.897 -2.2783 -2.5832  1.7792
 2679TIP3    H232233   3.447   5.086   6.926  0.5479 -1.3952  2.8166
 2680TIP3   OH232234   5.069   4.647   7.402 -0.1980  0.0499  0.9962
 2680TIP3    H132235   5.131   4.578   7.376 -1.1931 -0.5826  0.2278
 2680TIP3    H232236   4.985   4.619   7.365 -0.6784  1.5655  0.8600
 2681TIP3   OH232237   6.981   3.780   7.986  0.5164 -0.4338  0.1040
 2681TIP3    H132238   6.906   3.722   8.002  0.2474 -0.1450 -0.0953
 2681TIP3    H232239   6.953   3.865   8.020  0.8277 -0.3672  0.1976
 2682TIP3   OH232240   1.334   1.590   8.851  0.4184  0.2220  0.8793
 2682TIP3    H132241   1.369   1.503   8.828  1.0696  0.4800  0.8638
 2682TIP3    H232242   1.239   1.579   8.851  0.4900 -0.4246  0.6048
 2683TIP3   OH232243   6.553   6.516   0.740 -0.6429 -0.2102  0.9303
 2683TIP3    H132244   6.536   6.610   0.747 -0.5440 -0.2424  1.7135
 2683TIP3    H232245   6.485   6.475   0.794 -0.5889 -0.5799  0.7245
 2684TIP3   OH232246   7.290   6.884   9.585 -0.1303 -0.2705  0.4120
 2684TIP3    H132247   7.286   6.823   9.511  0.6236 -0.2476  0.3474
 2684TIP3    H232248   7.241   6.841   9.654 -2.2386  0.3968 -0.5759
 2685TIP3   OH232249   1.981   2.878   9.240 -0.5925 -0.2532 -0.2736
 2685TIP3    H132250   2.043   2.951   9.228 -1.0757  0.2963  0.4820
 2685TIP3    H232251   1.935   2.899   9.321 -1.4962 -0.8595 -0.6188
 2686TIP3   OH232252   6.110   7.353   1.767  0.1949  0.0465 -0.1815
 2686TIP3    H132253   6.111   7.425   1.703 -0.9507 -0.0295 -0.3057
 2686TIP3    H232254   6.117   7.274   1.713 -2.3333 -0.1075 -0.4180
 2687TIP3   OH232255   6.463   3.437   0.042  0.4391 -0.1491 -0.0554
 2687TIP3    H132256   6.532   3.446  -0.024 -0.1394  0.2801 -0.6193
 2687TIP3    H232257   6.496   3.484   0.118  0.2465  1.1648 -0.7477
 2688TIP3   OH232258   3.700   3.520   1.816 -0.0558 -0.1307  0.3595
 2688TIP3    H132259   3.647   3.479   1.885 -1.4674  3.2558  1.4835
 2688TIP3    H232260   3.779   3.549   1.861  0.5203 -0.7915 -0.2149
 2689TIP3   OH232261   0.864   4.801   9.123  0.6442 -0.3478  0.0709
 2689TIP3    H132262   0.944   4.799   9.176  0.3800 -1.2074  0.4618
 2689TIP3    H232263   0.799   4.754   9.177 -0.0821  0.2193 -0.2955
 2690TIP3   OH232264   0.100   0.902   9.610 -0.5321 -0.3041  0.7625
 2690TIP3    H132265   0.190   0.911   9.642  0.4160  1.3802 -1.9376
 2690TIP3    H232266   0.082   0.808   9.614  3.1380 -1.4682 -2.6068
 2691TIP3   OH232267   1.051   2.080   1.736 -0.6480  0.2045  0.0572
 2691TIP3    H132268   1.102   2.115   1.809  0.7314  0.3603 -0.9492
 2691TIP3    H232269   0.974   2.137   1.730 -0.6494  0.3408  1.2156
 2692TIP3   OH232270   5.166   0.375   8.919  0.0606 -0.1415  0.4504
 2692TIP3    H132271   5.228   0.442   8.946 -0.0988  0.7334 -1.2397
 2692TIP3    H232272   5.220   0.304   8.884  0.1649 -0.1134  0.5574
 2693TIP3   OH232273   3.287   1.666   8.802 -0.0062  0.0142  0.2149
 2693TIP3    H132274   3.231   1.592   8.823  2.3670 -1.8745  0.3312
 2693TIP3    H232275   3.359   1.660   8.865  1.2096  1.2619 -1.0002
 2694TIP3   OH232276   6.564   2.500   2.535  0.3915  0.2928  0.6598
 2694TIP3    H132277   6.565   2.409   2.505 -0.5262 -0.5211  2.8775
 2694TIP3    H232278   6.520   2.548   2.465 -1.3316 -1.4228  0.4813
 2695TIP3   OH232279   2.350   3.161   9.907 -0.0856 -0.3032  1.0101
 2695TIP3    H132280   2.287   3.218   9.863 -0.0480 -0.3759  0.8597
 2695TIP3    H232281   2.302   3.079   9.922  0.0600 -0.4625  0.6293
 2696TIP3   OH232282   3.261   5.217   8.796 -0.4026 -0.1586 -0.2247
 2696TIP3    H132283   3.325   5.275   8.837 -0.0958 -1.6202  1.5195
 2696TIP3    H232284   3.277   5.131   8.836 -2.7160 -0.8301 -0.5472
 2697TIP3   OH232285   1.625   6.572   0.195 -0.3786 -0.5152  0.3081
 2697TIP3    H132286   1.719   6.557   0.190 -0.6875 -2.4594 -0.5978
 2697TIP3    H232287   1.595   6.517   0.267 -1.1165 -1.9024 -0.9956
 2698TIP3   OH232288   3.914   5.799   1.269 -0.1901  0.2939  0.1351
 2698TIP3    H132289   3.859   5.775   1.195  0.2508 -3.6225  0.8142
 2698TIP3    H232290   3.854   5.806   1.343 -0.3719  1.9868 -0.1404
 2699TIP3   OH232291   0.910   6.695   0.703  0.0372 -0.6586 -0.1200
 2699TIP3    H132292   0.955   6.630   0.649  0.9304 -0.4301  0.3375
 2699TIP3    H232293   0.890   6.649   0.785  0.8563 -0.3144  0.2856
 2700TIP3   OH232294   0.280   4.330   8.043  0.1771 -0.3515 -0.7376
 2700TIP3    H132295   0.271   4.242   8.008  0.1837 -0.5430 -0.2714
 2700TIP3    H232296   0.195   4.371   8.028  0.0682 -0.5488 -0.6571
 2701TIP3   OH232297   3.220   2.547   1.762  0.0500  0.3493  0.0623
 2701TIP3    H132298   3.145   2.518   1.815  0.3053 -1.9860 -0.7275
 2701TIP3    H232299   3.202   2.512   1.674  3.0177 -2.2853  0.3199
 2702TIP3   OH232300   4.574   5.699   2.315  0.0161 -0.6199  0.1094
 2702TIP3    H132301   4.489   5.691   2.358 -0.8463 -0.6482 -1.5043
 2702TIP3    H232302   4.627   5.750   2.376 -1.8766  1.4034  0.2069
 2703TIP3   OH232303   1.149   0.478   9.408  0.5871  0.0649 -0.0377
 2703TIP3    H132304   1.112   0.394   9.434  1.4419 -0.1774  0.4329
 2703TIP3    H232305   1.222   0.492   9.469 -0.2372  1.6947  0.6265
 2704TIP3   OH232306   6.871   4.141   8.809 -0.2155  0.3110 -0.4085
 2704TIP3    H132307   6.894   4.052   8.781  0.1039 -0.3077  1.6247
 2704TIP3    H232308   6.788   4.130   8.857  0.6637  0.7777  1.3167
 2705TIP3   OH232309   4.785   6.854   8.149  0.1158 -0.2961  0.2161
 2705TIP3    H132310   4.755   6.803   8.224 -2.3276  0.9328  0.1644
 2705TIP3    H232311   4.705   6.885   8.107  1.4615  1.6678 -1.0680
 2706TIP3   OH232312   4.760   5.246   1.279  0.0316  0.4971 -0.2465
 2706TIP3    H132313   4.738   5.177   1.216 -0.8099  1.0836 -0.6090
 2706TIP3    H232314   4.676   5.272   1.316  0.3528  1.2618 -0.0464
 2707TIP3   OH232315   0.896   3.729   0.436  0.5640  0.3734  0.4451
 2707TIP3    H132316   0.978   3.749   0.391  0.1403  0.1328 -0.4663
 2707TIP3    H232317   0.891   3.633   0.435 -1.0580  0.3701 -2.1019
 2708TIP3   OH232318   5.148   1.525   9.427  0.9680 -0.3328 -0.2337
 2708TIP3    H132319   5.115   1.615   9.417  1.9583 -0.1711 -3.3341
 2708TIP3    H232320   5.079   1.479   9.474  0.0824  1.8694  0.7485
 2709TIP3   OH232321   2.571   7.345   9.648 -0.9459  0.7315  0.0524
 2709TIP3    H132322   2.538   7.313   9.731 -2.2702  2.4953  0.2633
 2709TIP3    H232323   2.501   7.328   9.585 -1.2043  2.0983 -0.0560
 2710TIP3   OH232324   1.118   1.280   7.995  0.6582 -0.0569 -0.7422
 2710TIP3    H132325   1.163   1.223   8.056  2.0867 -0.2090 -1.8736
 2710TIP3    H232326   1.136   1.369   8.027 -0.4390 -0.1842  0.2618
 2711TIP3   OH232327   2.704   2.677   1.791 -0.2518 -0.3750  0.1967
 2711TIP3    H132328   2.705   2.598   1.738 -1.3024 -0.6501  0.5475
 2711TIP3    H232329   2.757   2.656   1.867 -2.5421 -1.7092  1.5482
 2712TIP3   OH232330   2.067   1.764   7.761  0.4048  0.5958  0.2730
 2712TIP3    H132331   2.142   1.822   7.751  0.2984  0.9117  1.1729
 2712TIP3    H232332   2.074   1.732   7.851 -0.0352 -0.0891  0.0752
 2713TIP3   OH232333   3.864   0.541   7.502 -0.0980  0.0889 -0.0999
 2713TIP3    H132334   3.889   0.481   7.432  0.4374 -1.5087  1.3837
 2713TIP3    H232335   3.946   0.581   7.530 -0.5002  1.8824 -1.3403
 2714TIP3   OH232336   6.995   7.452   0.221  0.2640  0.0096 -0.0055
 2714TIP3    H132337   7.059   7.507   0.175  0.1180  1.2757  1.2621
 2714TIP3    H232338   6.915   7.504   0.223  0.5423  0.4673  2.5405
 2715TIP3   OH232339   7.121   3.693   0.227  0.7584 -0.3456  0.1682
 2715TIP3    H132340   7.165   3.743   0.159 -0.7167 -0.3321 -0.8100
 2715TIP3    H232341   7.073   3.625   0.180 -1.8484  0.8182  0.9662
 2716TIP3   OH232342   5.080   2.957   1.418  0.4197 -0.2520  0.3703
 2716TIP3    H132343   5.086   2.895   1.491  0.8091  1.0352  1.4879
 2716TIP3    H232344   5.033   2.910   1.349 -0.4410 -1.3413  1.6534
 2717TIP3   OH232345   5.146   2.745   9.350  0.3861 -0.6018  0.3089
 2717TIP3    H132346   5.210   2.692   9.397  2.0375  0.0045 -1.1435
 2717TIP3    H232347   5.198   2.799   9.291 -1.4465  0.3560 -0.5240
 2718TIP3   OH232348   3.056   4.212   9.988  0.3172 -0.0964  0.0623
 2718TIP3    H132349   3.143   4.228   9.952 -0.1952  0.0831 -1.1349
 2718TIP3    H232350   3.019   4.143   9.933 -1.5407  2.0624 -1.6144
 2719TIP3   OH232351   3.360   5.052   7.561 -0.1112 -0.2948  0.0826
 2719TIP3    H132352   3.362   4.974   7.617 -0.1995  0.3561  1.0242
 2719TIP3    H232353   3.278   5.096   7.583  0.8957  1.1641  1.1739
 2720TIP3   OH232354   4.965   7.347   9.921  0.0104 -0.1367  0.8879
 2720TIP3    H132355   4.934   7.420   9.868  1.5836 -0.3399 -0.3936
 2720TIP3    H232356   4.890   7.287   9.927 -0.2686 -0.0085 -0.9805
 2721TIP3   OH232357   2.667   6.663   0.759  0.1751  0.3025  0.1099
 2721TIP3    H132358   2.627   6.609   0.827  1.5109  0.1979  0.8408
 2721TIP3    H232359   2.748   6.695   0.798  0.7496  0.6119 -1.2786
 2722TIP3   OH232360   1.847   3.603   8.449 -0.1952  0.0708  0.0562
 2722TIP3    H132361   1.898   3.559   8.516  0.3641  1.4397  0.5666
 2722TIP3    H232362   1.798   3.533   8.406  3.3242 -1.6053 -1.6028
 2723TIP3   OH232363   2.182   6.852   0.463 -0.3231 -0.0560 -0.3703
 2723TIP3    H132364   2.156   6.941   0.437 -1.4453 -0.0363  0.7315
 2723TIP3    H232365   2.133   6.836   0.544  1.0192 -1.1145  0.2534
 2724TIP3   OH232366   2.403   1.307   0.169  0.0307 -0.9378  0.1422
 2724TIP3    H132367   2.333   1.301   0.235  1.0949  3.5774  2.0925
 2724TIP3    H232368   2.359   1.342   0.092 -0.3720 -0.9986  0.3382
 2725TIP3   OH232369   2.689   0.831   0.300 -0.4642  0.0075  0.2228
 2725TIP3    H132370   2.650   0.761   0.352 -0.2863  0.8700  1.5371
 2725TIP3    H232371   2.626   0.846   0.229 -0.8378 -0.9757  0.3252
 2726TIP3   OH232372   5.355   2.671   9.511  0.7255  0.6152  0.0223
 2726TIP3    H132373   5.435   2.690   9.559  1.2486  0.9754 -0.9681
 2726TIP3    H232374   5.287   2.664   9.579  1.5831  0.3096  0.8691
 2727TIP3   OH232375   2.140   4.976   1.790 -0.1304 -0.2676  0.3608
 2727TIP3    H132376   2.091   4.894   1.798 -0.8495  0.1369  0.2639
 2727TIP3    H232377   2.097   5.022   1.717  0.5564 -0.0064  0.1156
 2728TIP3   OH232378   1.085   3.741   9.565  0.6456  0.5807  0.3054
 2728TIP3    H132379   1.005   3.699   9.597  0.5930 -0.2775 -0.8752
 2728TIP3    H232380   1.056   3.825   9.529  0.2364  0.1849 -0.2983
 2729TIP3   OH232381   2.126   4.557   0.992 -0.2896  0.0486  0.3566
 2729TIP3    H132382   2.109   4.489   0.928  1.7386 -0.3835  0.2125
 2729TIP3    H232383   2.088   4.524   1.073 -0.2911 -0.7536  0.0382
 2730TIP3   OH232384   3.925   0.662   0.205 -0.0831  0.2431  0.0477
 2730TIP3    H132385   3.923   0.584   0.150 -0.6090  0.4986 -0.2973
 2730TIP3    H232386   3.866   0.723   0.163 -1.5944 -0.0468  1.6212
 2731TIP3   OH232387   6.922   5.803   9.077  0.5458  0.1489  1.1394
 2731TIP3    H132388   6.839   5.819   9.122  1.2814  1.1870  2.1851
 2731TIP3    H232389   6.899   5.803   8.984 -0.9121 -1.3990  1.4357
 2732TIP3   OH232390   3.998   6.494   9.690 -0.0535 -0.2720  0.3922
 2732TIP3    H132391   3.984   6.568   9.749  0.6247  0.9508 -0.9047
 2732TIP3    H232392   3.911   6.459   9.674 -0.5104  0.9114  0.2290
 2733TIP3   OH232393   3.601   7.050   8.020  0.6149 -0.2519 -0.4512
 2733TIP3    H132394   3.541   7.102   7.966 -0.9137 -1.0575  0.3998
 2733TIP3    H232395   3.604   6.964   7.976 -2.0067 -1.4922  1.5171
 2734TIP3   OH232396   0.444   6.106   8.920  0.1638  0.0828 -0.9348
 2734TIP3    H132397   0.479   6.089   8.833  0.2853  0.0602 -0.8814
 2734TIP3    H232398   0.403   6.023   8.946  0.3812  0.0018 -0.8516
 2735TIP3   OH232399   6.210   2.914   9.049 -0.1399  0.2551  0.9589
 2735TIP3    H132400   6.130   2.917   9.102 -0.2446 -0.7468  0.8752
 2735TIP3    H232401   6.195   2.843   8.986  0.9734 -0.2154  1.1974
 2736TIP3   OH232402   3.798   2.591   8.217 -0.3033  0.2058  0.1013
 2736TIP3    H132403   3.711   2.601   8.255 -0.6983 -0.9952 -0.4520
 2736TIP3    H232404   3.813   2.497   8.215  0.8989  0.3840 -0.0782
 2737TIP3   OH232405   2.953   3.719   8.163 -0.9888  0.3532 -0.1164
 2737TIP3    H132406   2.972   3.785   8.230 -0.3657  0.5979 -0.5221
 2737TIP3    H232407   3.033   3.666   8.159 -0.6084  0.9931 -1.4067
 2738TIP3   OH232408   0.497   4.504   7.946  0.1665 -0.2959 -0.6821
 2738TIP3    H132409   0.449   4.439   7.998  2.0612 -1.9543 -0.8912
 2738TIP3    H232410   0.477   4.482   7.855 -1.3407  1.1925 -0.7705
 2739TIP3   OH232411   5.915   2.521   1.677  0.0314 -0.6503 -0.4102
 2739TIP3    H132412   5.888   2.543   1.588  0.9109  0.7240 -0.3661
 2739TIP3    H232413   5.965   2.597   1.706 -0.3354 -1.0290  1.3064
 2740TIP3   OH232414   3.051   5.849   7.997  0.1826  0.6518 -0.2956
 2740TIP3    H132415   3.041   5.938   8.031 -0.4745  0.0571  1.1972
 2740TIP3    H232416   3.145   5.832   8.002  0.3137  1.2630 -0.6043
 2741TIP3   OH232417   1.403   0.019   1.774 -0.2362 -0.4746 -0.0106
 2741TIP3    H132418   1.318   0.042   1.737 -0.3467  0.0516  0.5455
 2741TIP3    H232419   1.407  -0.076   1.768 -0.3636 -0.4218 -1.1063
 2742TIP3   OH232420   7.311   1.741   1.446 -0.6768 -0.1003 -0.2624
 2742TIP3    H132421   7.270   1.655   1.438  0.7938 -0.6548 -3.2193
 2742TIP3    H232422   7.252   1.800   1.400 -1.8548  0.6596  2.0433
 2743TIP3   OH232423   3.782   4.882   0.419  0.0304 -0.1343 -0.4052
 2743TIP3    H132424   3.762   4.962   0.370 -0.3539  0.4956  0.7405
 2743TIP3    H232425   3.799   4.816   0.352  0.3567  0.9060 -1.3741
 2744TIP3   OH232426   5.520   5.502   0.728 -0.1852  0.3005 -0.4580
 2744TIP3    H132427   5.560   5.464   0.806  1.5783  2.4154 -0.2605
 2744TIP3    H232428   5.588   5.556   0.690 -1.4911  0.4905 -2.6739
 2745TIP3   OH232429   5.043   3.445   0.043 -0.7572  0.7732 -0.4330
 2745TIP3    H132430   4.984   3.517   0.062  0.4906  1.7649 -0.1980
 2745TIP3    H232431   5.008   3.405  -0.037 -0.4287  2.8081 -1.6467
 2746TIP3   OH232432   6.707   5.521   7.719  0.7094  0.4692 -0.0025
 2746TIP3    H132433   6.678   5.577   7.647 -1.2889 -1.2841 -0.6871
 2746TIP3    H232434   6.755   5.450   7.675  1.0191  0.3106  0.5861
 2747TIP3   OH232435   4.204   1.240   9.183 -0.0431  0.3018 -0.2354
 2747TIP3    H132436   4.205   1.314   9.122 -1.4925  1.6066  1.2229
 2747TIP3    H232437   4.286   1.247   9.231  0.8381 -0.3923 -1.5769
 2748TIP3   OH232438   1.656   1.855   9.144 -0.0339 -0.1056 -0.2234
 2748TIP3    H132439   1.569   1.847   9.106 -0.4976 -0.6076  0.8992
 2748TIP3    H232440   1.714   1.807   9.084 -0.4729  0.4341 -1.0980
 2749TIP3   OH232441   2.419   3.750   8.459 -0.6466 -0.2958  0.4562
 2749TIP3    H132442   2.405   3.674   8.516 -0.9989  0.3565  1.2523
 2749TIP3    H232443   2.331   3.776   8.432 -0.6397  0.6193  1.2542
 2750TIP3   OH232444   2.337   3.074   1.762 -0.3551  0.3448  0.1760
 2750TIP3    H132445   2.397   3.001   1.747 -0.3252  0.2753  0.6313
 2750TIP3    H232446   2.272   3.039   1.823 -1.7117 -0.0492 -1.4195
 2751TIP3   OH232447   4.689   2.750   9.412  0.8014  0.2571 -0.0765
 2751TIP3    H132448   4.729   2.820   9.361  0.0314  1.2015  0.5867
 2751TIP3    H232449   4.722   2.762   9.500  0.3779  0.0110  0.1214
 2752TIP3   OH232450   6.172   2.944   8.082  0.4246 -0.9839 -0.1749
 2752TIP3    H132451   6.146   3.036   8.081  0.8101 -0.8735 -1.6061
 2752TIP3    H232452   6.230   2.936   8.158 -1.5912 -0.6439  1.4865
 2753TIP3   OH232453   0.206   4.289   7.725 -0.1306  0.4593 -0.5415
 2753TIP3    H132454   0.125   4.238   7.713 -0.1988  1.0135 -2.7359
 2753TIP3    H232455   0.257   4.236   7.786 -1.6069 -0.5474 -0.1013
 2754TIP3   OH232456   7.335   4.662   7.839  0.0550  0.2135 -0.2244
 2754TIP3    H132457   7.273   4.591   7.851 -1.0123  1.0324 -0.7575
 2754TIP3    H232458   7.394   4.631   7.771  0.1538 -0.5077  0.1774
 2755TIP3   OH232459   1.522   2.517   0.285 -0.1270  0.1811  0.1573
 2755TIP3    H132460   1.559   2.519   0.197  2.1080  0.2692  1.0343
 2755TIP3    H232461   1.539   2.428   0.316 -0.5854  0.2523  0.6201
 2756TIP3   OH232462   2.850   2.317   7.492  0.0807  0.5139  0.1798
 2756TIP3    H132463   2.843   2.409   7.466 -1.1400  0.5531  0.5994
 2756TIP3    H232464   2.842   2.269   7.410 -0.9367  0.7294  0.1450
 2757TIP3   OH232465   4.171   3.503   9.204 -0.3994 -0.0023 -0.1458
 2757TIP3    H132466   4.217   3.556   9.140 -0.2906  0.0956  0.0155
 2757TIP3    H232467   4.084   3.490   9.166 -0.2163 -0.2550 -0.4857
 2758TIP3   OH232468   1.938   2.029   7.107 -0.5824  0.1837  0.7808
 2758TIP3    H132469   1.897   2.018   7.193  1.1703  1.1524  1.7851
 2758TIP3    H232470   2.029   2.002   7.120 -0.5499 -0.7611 -1.0882
 2759TIP3   OH232471   6.836   4.995   1.103 -0.1845 -0.1119  0.6603
 2759TIP3    H132472   6.780   5.053   1.153  1.5050  1.1532  1.1628
 2759TIP3    H232473   6.871   5.049   1.032  0.6875 -0.7593  0.5715
 2760TIP3   OH232474   3.252   5.798   7.069 -0.2725  0.2393  0.0531
 2760TIP3    H132475   3.314   5.781   6.999 -0.8672  0.8377 -0.6355
 2760TIP3    H232476   3.268   5.728   7.133  0.3082 -0.2894 -0.6544
 2761TIP3   OH232477   2.766   3.213   0.819 -0.1622 -0.0602 -0.0098
 2761TIP3    H132478   2.773   3.120   0.840 -0.7211 -0.5455 -1.7562
 2761TIP3    H232479   2.780   3.258   0.902  0.0394 -1.7026  0.8855
 2762TIP3   OH232480   1.732   6.428   7.188  0.2197 -0.5071 -0.2750
 2762TIP3    H132481   1.782   6.407   7.109  0.6923  2.0580 -0.7270
 2762TIP3    H232482   1.652   6.470   7.156 -0.0802 -0.4133  0.5752
 2763TIP3   OH232483   1.049   3.894   7.933  0.4787  0.0420 -0.1189
 2763TIP3    H132484   1.004   3.978   7.926  1.4193  0.5435 -0.3207
 2763TIP3    H232485   0.994   3.832   7.885 -0.0523  0.6118 -0.2470
 2764TIP3   OH232486   1.687   1.117   7.218 -0.5077  0.3632 -0.2178
 2764TIP3    H132487   1.738   1.175   7.162 -0.2402 -0.2669 -0.6403
 2764TIP3    H232488   1.715   1.139   7.307 -0.0284  0.5202 -0.4043
 2765TIP3   OH232489   2.618   6.561   2.691 -0.4194 -0.0592  0.6316
 2765TIP3    H132490   2.674   6.632   2.722 -0.3765 -0.3445  1.2221
 2765TIP3    H232491   2.615   6.499   2.764 -0.6693 -0.5401  0.2214
 2766TIP3   OH232492   1.621   1.316   1.694  0.2292  0.0375 -0.0551
 2766TIP3    H132493   1.706   1.271   1.693  0.6262  0.5804  2.2816
 2766TIP3    H232494   1.558   1.247   1.715  0.4673  0.0360  0.7186
 2767TIP3   OH232495   0.850   6.116   9.746 -0.0211  0.0053 -0.3862
 2767TIP3    H132496   0.881   6.200   9.713  0.7308 -0.2583 -0.3489
 2767TIP3    H232497   0.794   6.139   9.820  0.5412  0.4556 -0.0957
 2768TIP3   OH232498   3.441   3.895   8.276 -0.6193  0.1861 -0.5438
 2768TIP3    H132499   3.523   3.872   8.318 -1.2552  0.2276  0.7551
 2768TIP3    H232500   3.430   3.988   8.293 -0.8065  0.2474 -0.9657
 2769TIP3   OH232501   6.517   3.509   9.137  0.3615 -0.4584 -0.1750
 2769TIP3    H132502   6.580   3.524   9.067 -0.0820  1.3189 -0.2386
 2769TIP3    H232503   6.523   3.415   9.155  2.0907 -0.5527 -1.0396
 2770TIP3   OH232504   1.472   7.362   2.039 -0.2008  0.7379 -0.0746
 2770TIP3    H132505   1.412   7.408   2.097 -0.4840  0.9766 -0.5528
 2770TIP3    H232506   1.417   7.328   1.969 -0.1286 -1.0676  0.6922
 2771TIP3   OH232507   0.611   4.172   9.739 -0.9747  0.3771  0.2603
 2771TIP3    H132508   0.555   4.100   9.710  0.4263 -0.9095  0.6524
 2771TIP3    H232509   0.642   4.213   9.657 -0.2577 -0.6866 -0.0167
 2772TIP3   OH232510   1.066   3.230   7.327 -0.0923  0.5039 -0.1697
 2772TIP3    H132511   1.039   3.243   7.418  1.1916  1.8512  0.0571
 2772TIP3    H232512   1.002   3.280   7.276  0.0539  0.9909  0.1165
 2773TIP3   OH232513   3.735   5.465   1.171 -0.2205 -0.0296  0.4712
 2773TIP3    H132514   3.801   5.433   1.232 -0.0493 -1.0532 -0.2230
 2773TIP3    H232515   3.713   5.389   1.118  0.6095  1.1036 -1.6369
 2774TIP3   OH232516   1.079   1.169   1.946 -0.4593  0.1912  0.0374
 2774TIP3    H132517   1.094   1.245   1.891 -0.0474  0.1108  0.0352
 2774TIP3    H232518   1.038   1.204   2.025  0.2496  0.4885  0.2732
 2775TIP3   OH232519   0.332   4.198   1.515 -0.3243  0.1702 -0.1587
 2775TIP3    H132520   0.418   4.169   1.546  0.1920 -0.0231 -1.6935
 2775TIP3    H232521   0.339   4.196   1.419 -1.8613  0.6939 -0.3073
 2776TIP3   OH232522   2.625   1.229   0.280  0.5002 -0.1067 -0.3782
 2776TIP3    H132523   2.671   1.201   0.201 -0.1686 -1.9607 -0.1436
 2776TIP3    H232524   2.543   1.268   0.248  1.9758  2.9839 -0.7807
 2777TIP3   OH232525   2.105   4.036   0.845  0.0234  0.0857 -0.6620
 2777TIP3    H132526   2.134   4.127   0.847 -0.6950  0.3891 -2.2726
 2777TIP3    H232527   2.016   4.039   0.881  0.6989 -0.3094  1.1048
 2778TIP3   OH232528   1.539   2.267   6.921 -0.1677 -0.2411  0.5467
 2778TIP3    H132529   1.577   2.180   6.919 -0.6046 -0.4969  1.9279
 2778TIP3    H232530   1.605   2.322   6.963 -0.7007 -0.3608  1.5599
 2779TIP3   OH232531   2.335   1.354   2.166  0.3248  0.2736  0.3855
 2779TIP3    H132532   2.361   1.431   2.116  0.6807  0.1205  0.3270
 2779TIP3    H232533   2.326   1.285   2.100  1.9661 -0.2331  0.6358
 2780TIP3   OH232534   4.548   2.508   9.418 -0.4985 -0.0493  0.3606
 2780TIP3    H132535   4.618   2.450   9.390 -0.8233 -0.1227 -0.3096
 2780TIP3    H232536   4.591   2.593   9.431 -0.4465  0.1690 -1.0452
 2781TIP3   OH232537   4.082   2.203   9.601  0.7219  0.3090  0.1342
 2781TIP3    H132538   4.057   2.262   9.530  0.7345  0.0485 -0.0877
 2781TIP3    H232539   4.036   2.121   9.581  1.0073  0.1254  0.2336
 2782TIP3   OH232540   3.418   2.360   8.020 -0.1914 -0.5735 -0.2639
 2782TIP3    H132541   3.325   2.363   8.044 -0.8033  1.2329 -2.4743
 2782TIP3    H232542   3.425   2.283   7.964 -0.3173 -0.7902  0.0135
 2783TIP3   OH232543   6.022   5.707   0.632 -0.1076 -0.2002 -0.6633
 2783TIP3    H132544   6.045   5.615   0.642  1.5703 -0.0551 -2.5991
 2783TIP3    H232545   5.948   5.707   0.571 -2.3926 -0.3690  1.8977
 2784TIP3   OH232546   2.338   4.179   1.042 -0.5746 -0.1917  0.0161
 2784TIP3    H132547   2.270   4.112   1.049  0.3414 -1.0783  0.6964
 2784TIP3    H232548   2.399   4.159   1.113  0.5410  0.4260 -0.7450
 2785TIP3   OH232549   4.948   0.806   9.360 -0.6613 -0.3389 -0.0138
 2785TIP3    H132550   4.949   0.745   9.286  0.6433  0.2400 -0.5060
 2785TIP3    H232551   4.885   0.768   9.422 -1.2897 -1.1714 -1.1319
 2786TIP3   OH232552   6.688   1.597   2.236 -0.6697  0.1686 -0.6391
 2786TIP3    H132553   6.727   1.525   2.185 -1.5499 -1.5468  0.9848
 2786TIP3    H232554   6.752   1.668   2.228  0.8644 -1.1999 -1.2989
 2787TIP3   OH232555   4.826   3.092   9.546  0.7103 -0.6537 -0.6589
 2787TIP3    H132556   4.902   3.098   9.604 -0.1718  3.6084  0.4047
 2787TIP3    H232557   4.752   3.118   9.601 -0.1721  3.8554 -3.4217
 2788TIP3   OH232558   2.622   6.234   6.245  0.0325 -0.2914  0.4125
 2788TIP3    H132559   2.668   6.212   6.163 -0.1344  1.0913 -0.0664
 2788TIP3    H232560   2.536   6.194   6.235 -0.0406  0.0060 -0.1516
 2789TIP3   OH232561   1.345   6.139   1.658 -0.4409  1.2338 -0.2735
 2789TIP3    H132562   1.262   6.172   1.693 -0.9590  0.9988 -1.2324
 2789TIP3    H232563   1.406   6.145   1.731 -1.7075 -0.1378  0.9691
 2790TIP3   OH232564   6.420   4.987   0.751 -1.0337 -0.1937 -0.3610
 2790TIP3    H132565   6.480   4.963   0.821  0.3887  0.6965 -1.2319
 2790TIP3    H232566   6.334   4.990   0.794 -0.5374 -1.7059  0.8599
 2791TIP3   OH232567   2.918   4.174   1.991  0.3797 -0.1689 -0.1883
 2791TIP3    H132568   2.937   4.191   2.083  0.4061 -0.1474 -0.1978
 2791TIP3    H232569   2.942   4.082   1.979  1.3175  0.0943 -0.4189
 2792TIP3   OH232570   4.752   0.939   7.278 -0.5154  0.2231 -0.3252
 2792TIP3    H132571   4.778   0.877   7.346 -0.1151 -0.1425 -0.8052
 2792TIP3    H232572   4.775   0.896   7.196  0.9588  1.5250 -0.6499
 2793TIP3   OH232573   3.819   1.078   0.974  0.3430  0.7827 -0.4151
 2793TIP3    H132574   3.909   1.091   0.945  0.1837  0.3047 -1.1625
 2793TIP3    H232575   3.813   1.125   1.057  1.9169 -1.0811  0.8239
 2794TIP3   OH232576   2.376   2.650   7.149 -0.5497 -0.5836 -0.1933
 2794TIP3    H132577   2.445   2.622   7.089  0.2869  2.7631 -1.0262
 2794TIP3    H232578   2.385   2.592   7.225  1.8711 -1.5305 -1.1084
 2795TIP3   OH232579   4.620   5.195   1.722  0.1727 -0.0630  0.2212
 2795TIP3    H132580   4.654   5.282   1.700  0.6142 -0.3354 -0.2006
 2795TIP3    H232581   4.541   5.186   1.669  0.3350 -0.0641 -0.0248
 2796TIP3   OH232582   2.644   0.465   1.350 -0.1964  0.1240  0.6817
 2796TIP3    H132583   2.566   0.474   1.404  0.8964  2.1758  2.0780
 2796TIP3    H232584   2.659   0.553   1.315  1.6815 -0.1062  0.8018
 2797TIP3   OH232585   3.241   0.552   8.095  0.5802  0.0687  0.5652
 2797TIP3    H132586   3.310   0.618   8.088  1.3092 -0.7933 -0.8975
 2797TIP3    H232587   3.287   0.473   8.124  0.3278 -0.6262 -0.8425
 2798TIP3   OH232588   3.528   2.414   9.041  0.0964 -0.1294 -0.3807
 2798TIP3    H132589   3.581   2.363   8.980  0.9236  2.1231 -1.6760
 2798TIP3    H232590   3.590   2.474   9.083 -1.0503  0.9801 -0.1903
 2799TIP3   OH232591   6.897   0.612   0.109  0.1022  0.2173  0.0101
 2799TIP3    H132592   6.910   0.521   0.134 -2.0992 -0.7293 -1.9586
 2799TIP3    H232593   6.929   0.618   0.019  1.1048  1.6835  0.4178
 2800TIP3   OH232594   7.217   2.144   8.366 -0.2496  0.2158 -0.2064
 2800TIP3    H132595   7.192   2.070   8.311  0.7117 -0.9599  0.8761
 2800TIP3    H232596   7.140   2.201   8.367 -0.0093  0.7706 -3.4798
 2801TIP3   OH232597   2.761   1.512   7.260 -0.0943  0.4188  0.0340
 2801TIP3    H132598   2.690   1.462   7.299  0.3172 -0.9998 -0.9615
 2801TIP3    H232599   2.796   1.455   7.191  2.7199  0.5953  1.1824
 2802TIP3   OH232600   7.102   5.794   0.875  0.1470  0.2708  0.1069
 2802TIP3    H132601   7.168   5.855   0.909  0.6090 -0.0409 -0.2052
 2802TIP3    H232602   7.105   5.807   0.780  1.2380 -1.1918 -0.0887
 2803TIP3   OH232603   1.178   0.070   1.623  0.3656 -0.5283 -0.4528
 2803TIP3    H132604   1.193   0.159   1.592 -0.3988  0.3295  1.4823
 2803TIP3    H232605   1.107   0.037   1.567 -0.6627  0.7910  0.0364
 2804TIP3   OH232606   2.891   2.619   0.620 -0.0001 -0.3354  0.6909
 2804TIP3    H132607   2.858   2.615   0.530 -0.6197 -2.5824  0.9588
 2804TIP3    H232608   2.814   2.599   0.674  0.7638 -0.8993  1.5901
 2805TIP3   OH232609   7.042   3.947   7.773  0.0033 -0.3839  0.2688
 2805TIP3    H132610   7.114   4.006   7.797  0.4972 -1.6451  2.1014
 2805TIP3    H232611   7.046   3.877   7.838 -0.9183 -2.1665 -1.5134
 2806TIP3   OH232612   6.919   5.348   8.511 -0.4575  0.1361  0.5857
 2806TIP3    H132613   6.983   5.354   8.440 -1.0091 -3.1062 -0.3758
 2806TIP3    H232614   6.971   5.324   8.588 -0.2697 -0.3556  0.3096
 2807TIP3   OH232615   1.920   1.548   8.336 -0.7029  0.1824 -0.0723
 2807TIP3    H132616   1.909   1.584   8.248  1.4786  1.1445 -0.0118
 2807TIP3    H232617   1.873   1.609   8.393 -1.6103 -0.1148 -0.4743
 2808TIP3   OH232618   0.432   5.860   7.190 -0.6456 -0.2119 -0.3433
 2808TIP3    H132619   0.357   5.808   7.218 -1.5283  0.4041 -1.4641
 2808TIP3    H232620   0.492   5.858   7.264 -1.5344 -1.1651  0.3733
 2809TIP3   OH232621   3.574   6.082   9.364 -0.1651 -0.9963  0.1272
 2809TIP3    H132622   3.541   6.054   9.279  0.7024  0.2353 -0.6465
 2809TIP3    H232623   3.667   6.063   9.363  0.2708  0.9304 -0.0641
 2810TIP3   OH232624   3.385   2.651   9.268  0.4020  0.3780  0.5112
 2810TIP3    H132625   3.442   2.626   9.195 -1.2852 -1.7243 -0.1666
 2810TIP3    H232626   3.439   2.639   9.346  1.4203  0.1353 -0.2134
 2811TIP3   OH232627   3.182   0.303   1.300 -0.4468  0.3638 -0.5386
 2811TIP3    H132628   3.267   0.298   1.257  0.3350 -1.8352  1.0640
 2811TIP3    H232629   3.202   0.298   1.393 -2.2801  0.8492 -0.0778
 2812TIP3   OH232630   4.089   6.545   7.843  0.2613 -0.1044  0.7918
 2812TIP3    H132631   4.001   6.514   7.867 -0.0978  0.6267  0.4537
 2812TIP3    H232632   4.120   6.592   7.920  1.2481 -2.1488  1.7118
 2813TIP3   OH232633   4.187   0.673   9.490 -0.6319  0.1536  0.0821
 2813TIP3    H132634   4.185   0.691   9.584 -1.2115  1.3035 -0.1360
 2813TIP3    H232635   4.255   0.606   9.480 -0.9690 -0.4226  1.3826
 2814TIP3   OH232636   1.466   3.072   1.304  0.0911 -0.4515  0.5016
 2814TIP3    H132637   1.374   3.090   1.285  0.3997  0.7720  0.0794
 2814TIP3    H232638   1.493   3.009   1.237 -0.9202 -2.3506  1.7853
 2815TIP3   OH232639   6.005   4.526   9.477 -0.4375 -0.5119  0.6459
 2815TIP3    H132640   6.054   4.605   9.454 -0.8859  0.1782  1.9848
 2815TIP3    H232641   5.977   4.540   9.567 -1.3399 -1.7923  0.5928
 2816TIP3   OH232642   6.077   2.213   1.322  0.0533  0.5246  0.2914
 2816TIP3    H132643   6.003   2.273   1.323 -0.1878  0.2991 -1.3846
 2816TIP3    H232644   6.155   2.269   1.322  0.0295  0.7778  3.4439
 2817TIP3   OH232645   6.969   4.254   7.776 -0.4782  0.6574 -0.4031
 2817TIP3    H132646   6.970   4.160   7.792 -2.8685  0.5210 -0.7600
 2817TIP3    H232647   7.010   4.264   7.690  1.9362  0.2380  0.6286
 2818TIP3   OH232648   2.088   2.402   7.071  0.5010  0.0733 -0.7859
 2818TIP3    H132649   2.174   2.362   7.054  0.2970 -0.9267  0.3370
 2818TIP3    H232650   2.064   2.369   7.158 -0.6638  0.9862 -0.7386
 2819TIP3   OH232651   0.643   7.138   0.547  0.3490  0.3703  0.1464
 2819TIP3    H132652   0.558   7.095   0.534 -0.1135  0.6860  1.8277
 2819TIP3    H232653   0.648   7.152   0.641  3.4425 -1.9465  0.4521
 2820TIP3   OH232654   3.172   6.957   7.743 -0.4348  0.1592  0.2244
 2820TIP3    H132655   3.125   6.901   7.681  0.4629 -1.2267  0.7451
 2820TIP3    H232656   3.122   6.949   7.825  0.1866 -0.6297  0.5424
 2821TIP3   OH232657   1.957   0.171   7.952 -0.1119 -0.0399  0.3342
 2821TIP3    H132658   1.913   0.253   7.974  0.3214 -0.0363  1.2131
 2821TIP3    H232659   2.000   0.144   8.033  1.4497 -0.0740 -0.4675
 2822TIP3   OH232660   3.238   4.465   9.367  0.1815 -0.0171  0.0501
 2822TIP3    H132661   3.196   4.488   9.450 -1.0076 -1.3794 -0.1262
 2822TIP3    H232662   3.188   4.389   9.336 -1.2469  2.0578 -3.2713
 2823TIP3   OH232663   4.565   2.099   2.106 -0.4610 -0.0445 -0.8669
 2823TIP3    H132664   4.542   2.039   2.176 -0.2250  0.6338 -0.1938
 2823TIP3    H232665   4.484   2.147   2.087 -0.1578  0.8527  0.0277
 2824TIP3   OH232666   2.901   5.554   1.411 -0.2348  0.6867  0.3857
 2824TIP3    H132667   2.976   5.504   1.378 -0.3818 -0.3299  1.4863
 2824TIP3    H232668   2.825   5.514   1.370 -0.1853  2.3116 -1.4566
 2825TIP3   OH232669   4.493   3.369   1.614 -0.1332 -0.2621 -0.0685
 2825TIP3    H132670   4.457   3.455   1.633 -0.7913  0.0909 -2.4890
 2825TIP3    H232671   4.461   3.349   1.525  1.6948 -2.0775 -0.3962
 2826TIP3   OH232672   6.337   6.331   0.134  0.3688  0.3301  0.1200
 2826TIP3    H132673   6.408   6.297   0.189 -0.1094  1.5907  1.5991
 2826TIP3    H232674   6.370   6.414   0.101  0.0680  0.3039 -0.2445
 2827TIP3   OH232675   0.226   3.959   2.916  0.0852  0.0220  0.6424
 2827TIP3    H132676   0.217   4.048   2.950  0.1662  0.3090 -0.0581
 2827TIP3    H232677   0.309   3.960   2.868 -0.2801 -0.2037 -0.0134
 2828TIP3   OH232678   7.433   2.622   2.845  0.3823 -0.0320  0.3051
 2828TIP3    H132679   7.346   2.591   2.820  1.4696 -1.3524 -2.2308
 2828TIP3    H232680   7.461   2.561   2.913  0.3490 -1.3116 -0.7873
 2829TIP3   OH232681   1.578   2.055   7.775 -0.1484 -0.5897 -0.3900
 2829TIP3    H132682   1.484   2.071   7.787  0.4716  1.7781  2.5210
 2829TIP3    H232683   1.586   1.960   7.775 -2.6972 -0.9820 -3.2410
 2830TIP3   OH232684   2.787   2.226   7.920 -0.0242  0.1220 -0.2582
 2830TIP3    H132685   2.726   2.162   7.957  0.6602 -0.9109 -0.8675
 2830TIP3    H232686   2.845   2.249   7.992  0.6934 -1.1366 -0.4203
 2831TIP3   OH232687   1.409   2.746   0.845  0.2941  0.4023  0.0179
 2831TIP3    H132688   1.353   2.674   0.819 -0.3765  1.3033 -1.1503
 2831TIP3    H232689   1.352   2.807   0.891  0.9864 -0.0764  1.5688
 2832TIP3   OH232690   4.456   5.730   2.549  0.0191 -0.9908  0.7633
 2832TIP3    H132691   4.534   5.784   2.558  0.2612 -0.9676 -1.0661
 2832TIP3    H232692   4.483   5.642   2.576  1.0677 -1.2501 -0.9705
 2833TIP3   OH232693   6.487   0.600   0.797  0.3526 -0.4051 -0.0996
 2833TIP3    H132694   6.556   0.618   0.733  1.3666  1.0896  1.3330
 2833TIP3    H232695   6.516   0.520   0.841  1.4255  0.4064  0.7413
 2834TIP3   OH232696   2.774   4.544   7.012 -0.0837 -0.4291 -0.2213
 2834TIP3    H132697   2.805   4.598   6.939  0.2805  3.4231  2.5060
 2834TIP3    H232698   2.854   4.500   7.044  0.2346 -0.0727 -0.5149
 2835TIP3   OH232699   6.632   2.851   8.723 -0.1953 -0.5764 -0.1758
 2835TIP3    H132700   6.716   2.878   8.688 -1.4787 -0.5166 -3.5090
 2835TIP3    H232701   6.582   2.932   8.733 -0.3591 -0.7428  0.4367
 2836TIP3   OH232702   5.282   7.085   9.164  0.4679 -0.2049  0.4148
 2836TIP3    H132703   5.268   7.129   9.248  1.4050 -1.3250  1.1917
 2836TIP3    H232704   5.194   7.055   9.138 -0.0514  1.3429  0.2728
 2837TIP3   OH232705   0.731   3.268   7.829 -0.4175  0.3728  0.2241
 2837TIP3    H132706   0.755   3.224   7.911 -0.5123  1.5879  0.9432
 2837TIP3    H232707   0.801   3.332   7.815  0.2287 -0.6369 -1.3253
 2838TIP3   OH232708   3.885   2.226   2.345 -0.1390 -0.0647  0.3239
 2838TIP3    H132709   3.948   2.188   2.283 -1.5537  0.1526 -1.3183
 2838TIP3    H232710   3.800   2.189   2.319 -1.1670  2.0503  0.4341
 2839TIP3   OH232711   5.598   3.935   0.879 -0.0056 -0.0496  0.1682
 2839TIP3    H132712   5.674   3.882   0.901  0.0290 -0.8080 -1.6258
 2839TIP3    H232713   5.523   3.885   0.911 -0.0718 -1.9045 -2.5638
 2840TIP3   OH232714   1.434   2.591   1.266 -0.1539 -0.2499 -0.0421
 2840TIP3    H132715   1.484   2.604   1.185  0.3788  2.9775  0.6712
 2840TIP3    H232716   1.370   2.523   1.244  2.1639 -2.0009 -2.0740
 2841TIP3   OH232717   1.450   1.461   6.508 -0.2365  0.1824  0.1091
 2841TIP3    H132718   1.383   1.408   6.465  0.6927 -0.1174 -1.0023
 2841TIP3    H232719   1.419   1.468   6.599 -0.9767 -1.2653  0.0033
 2842TIP3   OH232720   7.190   4.315   1.513 -0.3304 -0.2093  0.1115
 2842TIP3    H132721   7.185   4.254   1.440  0.4410  1.5002 -1.4568
 2842TIP3    H232722   7.117   4.375   1.499  1.0490  1.4109 -0.5497
 2843TIP3   OH232723   2.774   1.518   9.633 -0.5224 -0.1043  0.2438
 2843TIP3    H132724   2.679   1.525   9.621 -0.6118 -1.6758 -0.0532
 2843TIP3    H232725   2.797   1.432   9.600  0.7034 -0.6153  2.2122
 2844TIP3   OH232726   4.910   4.573   9.316 -0.4593  0.0874  0.9663
 2844TIP3    H132727   4.877   4.485   9.298 -0.3622  0.5508 -1.8834
 2844TIP3    H232728   4.964   4.595   9.240 -0.3154  2.5275  1.6912
 2845TIP3   OH232729   2.965   5.215   1.014 -0.0659 -0.1545 -0.0805
 2845TIP3    H132730   3.052   5.239   1.046  0.4193  0.3093 -1.6575
 2845TIP3    H232731   2.925   5.298   0.990 -0.3754 -0.4940 -0.7568
 2846TIP3   OH232732   6.927   5.166   0.429 -0.4232  0.6088  0.3150
 2846TIP3    H132733   6.865   5.093   0.424  1.0689 -1.0703  3.5457
 2846TIP3    H232734   6.884   5.229   0.487 -0.2782  0.7256  0.2950
 2847TIP3   OH232735   4.197   3.166   1.985  0.2184 -0.2218 -0.1430
 2847TIP3    H132736   4.189   3.204   1.897 -1.6116 -0.9199 -0.3046
 2847TIP3    H232737   4.254   3.090   1.972  0.8921  0.3208 -0.4900
 2848TIP3   OH232738   2.116   3.441   6.755  0.3006 -0.1645 -0.0122
 2848TIP3    H132739   2.176   3.378   6.714  1.2282  0.3160  0.5570
 2848TIP3    H232740   2.033   3.428   6.710  0.8725 -0.7506 -0.9383
 2849TIP3   OH232741   4.395   3.712   0.936  0.2014 -0.3176  0.4522
 2849TIP3    H132742   4.415   3.659   0.859 -3.6327  0.3384 -1.2358
 2849TIP3    H232743   4.309   3.749   0.918  0.4272  2.3678  3.7981
 2850TIP3   OH232744   3.944   1.678   9.755 -0.6382 -0.1495  0.7818
 2850TIP3    H132745   3.908   1.591   9.739  0.6258 -1.1685  2.9816
 2850TIP3    H232746   4.028   1.679   9.708 -1.2362  0.3869 -0.2997
 2851TIP3   OH232747   6.473   6.184   7.772  0.0134  0.1367 -0.2007
 2851TIP3    H132748   6.537   6.256   7.780  0.7040 -0.4797 -0.1111
 2851TIP3    H232749   6.523   6.111   7.737 -0.6609 -0.3477 -0.1744
 2852TIP3   OH232750   4.946   4.702   9.890  0.4076 -0.3839  0.1203
 2852TIP3    H132751   5.024   4.702   9.835 -0.1508 -0.3670 -0.6806
 2852TIP3    H232752   4.918   4.610   9.891 -0.9487 -0.0315 -1.6107
 2853TIP3   OH232753   4.013   1.438   0.389 -0.3917 -0.1064  0.0727
 2853TIP3    H132754   4.005   1.413   0.481 -1.8482  1.6049  0.4772
 2853TIP3    H232755   3.930   1.481   0.369 -1.4290 -3.1007 -2.9518
 2854TIP3   OH232756   0.701   2.877   6.892  0.1725  0.0077 -0.4122
 2854TIP3    H132757   0.633   2.943   6.880 -0.1360  0.0517  1.3892
 2854TIP3    H232758   0.661   2.810   6.947  0.8071 -1.2096 -1.3758
 2855TIP3   OH232759   0.852   7.045   9.760  0.1793  0.3316  0.2708
 2855TIP3    H132760   0.870   7.136   9.785  0.9426 -0.1505  1.5591
 2855TIP3    H232761   0.840   6.999   9.844 -3.4668 -0.1720 -0.3346
 2856TIP3   OH232762   4.102   5.845   9.722  0.0057 -0.7940 -0.5305
 2856TIP3    H132763   4.151   5.818   9.644  0.2646 -0.2766 -0.5541
 2856TIP3    H232764   4.012   5.853   9.691  0.1074 -0.5883 -0.7803
 2857TIP3   OH232765   6.586   3.692   0.755 -0.4551 -0.3909 -0.6115
 2857TIP3    H132766   6.606   3.641   0.833  0.4886 -0.1004 -0.6467
 2857TIP3    H232767   6.636   3.649   0.685 -0.7130 -0.2112 -0.9116
 2858TIP3   OH232768   2.218   2.953   8.912  0.0951 -0.8824  0.3569
 2858TIP3    H132769   2.174   2.979   8.830 -0.0838  2.3964  1.3465
 2858TIP3    H232770   2.161   2.885   8.948 -1.2957 -0.5033 -0.9741
 2859TIP3   OH232771   0.510   1.929   1.566 -0.4334  0.2288 -1.1429
 2859TIP3    H132772   0.484   1.837   1.560 -0.3138  0.2517 -2.1752
 2859TIP3    H232773   0.430   1.978   1.546 -0.4161  0.3433 -0.9309
 2860TIP3   OH232774   5.786   6.287   1.882 -0.4478 -0.2833 -0.4777
 2860TIP3    H132775   5.702   6.262   1.842 -0.8434  1.2230 -0.6378
 2860TIP3    H232776   5.761   6.322   1.967  0.0287  0.1397 -0.5134
 2861TIP3   OH232777   5.034   2.698   1.039  0.4829 -0.5838  0.5631
 2861TIP3    H132778   5.055   2.653   0.957 -2.1460 -1.2149  0.1481
 2861TIP3    H232779   5.043   2.630   1.106  0.3279 -0.7078  0.4602
 2862TIP3   OH232780   4.501   6.270   1.645 -0.1086 -0.2595  0.0424
 2862TIP3    H132781   4.567   6.297   1.709  0.9920  1.8509 -1.8420
 2862TIP3    H232782   4.441   6.344   1.640 -0.1685 -0.3736 -1.3396
 2863TIP3   OH232783   1.305   1.371   7.505 -0.3002  0.4125  0.6906
 2863TIP3    H132784   1.301   1.334   7.593  1.9853 -0.4295  0.5187
 2863TIP3    H232785   1.283   1.298   7.448 -2.2384  1.0739  0.5263
 2864TIP3   OH232786   5.190   5.372   8.029 -0.2910  0.6630  0.0933
 2864TIP3    H132787   5.133   5.388   7.953  0.2031 -0.4300 -0.5363
 2864TIP3    H232788   5.241   5.452   8.038  1.7758 -0.1899 -2.6433
 2865TIP3   OH232789   1.833   3.487   7.161 -0.3231 -0.2236  0.2877
 2865TIP3    H132790   1.817   3.418   7.096  0.6083 -0.1193 -0.0746
 2865TIP3    H232791   1.838   3.568   7.110  3.3493 -0.4495 -0.0341
 2866TIP3   OH232792   5.065   4.316   2.334  0.6654 -0.1011 -0.1021
 2866TIP3    H132793   5.113   4.234   2.324 -0.8741 -1.0342 -0.2144
 2866TIP3    H232794   4.978   4.297   2.298  0.0539  1.3686  0.5289
 2867TIP3   OH232795   0.881   2.639   9.706 -0.5851 -0.0541 -0.0935
 2867TIP3    H132796   0.926   2.704   9.760 -0.6559 -0.0681 -0.0174
 2867TIP3    H232797   0.914   2.555   9.737  0.4088 -0.0275 -0.9821
 2868TIP3   OH232798   7.280   1.828   8.549 -0.7978 -0.0443  0.7231
 2868TIP3    H132799   7.235   1.846   8.631 -1.8471  0.4237  0.0665
 2868TIP3    H232800   7.306   1.914   8.517 -2.2567  0.0118 -0.4449
 2869TIP3   OH232801   4.893   7.447   0.731 -0.0752  0.2582 -0.3444
 2869TIP3    H132802   4.860   7.456   0.642 -1.0040 -0.9704 -0.1479
 2869TIP3    H232803   4.861   7.361   0.760  0.7212  0.3765  0.9561
 2870TIP3   OH232804   5.372   3.338   0.802  0.1484 -0.2899 -0.1801
 2870TIP3    H132805   5.410   3.284   0.732  1.4587  0.4614 -0.0726
 2870TIP3    H232806   5.442   3.346   0.867  0.7003  3.0462 -1.0119
 2871TIP3   OH232807   0.211   6.732   1.809  0.1374  0.2373 -0.3455
 2871TIP3    H132808   0.279   6.797   1.786  2.3473 -1.0643  2.0146
 2871TIP3    H232809   0.260   6.660   1.849 -2.6838 -0.7425  1.6034
 2872TIP3   OH232810   0.800   2.611   2.602  0.3138  0.3817  0.2013
 2872TIP3    H132811   0.758   2.552   2.538 -0.4747 -0.1981  1.2149
 2872TIP3    H232812   0.889   2.577   2.611  0.5066  0.6080 -0.7476
 2873TIP3   OH232813   4.233   7.180   2.193 -0.4174 -0.2559 -0.5342
 2873TIP3    H132814   4.309   7.238   2.203 -0.8559  0.3828 -0.8625
 2873TIP3    H232815   4.165   7.220   2.248 -0.5274 -0.8041 -0.2692
 2874TIP3   OH232816   0.704   5.256   8.845  0.5061 -0.1235 -0.0837
 2874TIP3    H132817   0.619   5.270   8.889  0.3272 -0.1260 -0.4246
 2874TIP3    H232818   0.690   5.176   8.793  0.4013  0.4241 -0.9154
 2875TIP3   OH232819   3.993   6.561   8.928 -0.4593 -0.2090  0.6678
 2875TIP3    H132820   3.956   6.572   9.015 -1.1171  1.6252  0.2068
 2875TIP3    H232821   3.999   6.650   8.893  1.0259 -0.7831 -0.6641
 2876TIP3   OH232822   6.248   2.518   9.973  0.0340  0.0260 -0.2341
 2876TIP3    H132823   6.233   2.478   9.887 -2.8881 -2.1517  1.1023
 2876TIP3    H232824   6.320   2.467  10.011 -0.0369 -0.3613 -0.6161
 2877TIP3   OH232825   7.334   4.384   9.870 -0.6040  0.0201  0.0885
 2877TIP3    H132826   7.406   4.339   9.915 -0.4844  0.3853  0.2667
 2877TIP3    H232827   7.376   4.453   9.819 -0.8283  0.2834  0.2515
 2878TIP3   OH232828   6.164   5.138   8.752 -0.3746  0.0347  0.7673
 2878TIP3    H132829   6.215   5.186   8.817  0.5767 -0.6358  0.5480
 2878TIP3    H232830   6.163   5.048   8.785  0.3708 -0.3776 -0.2697
 2879TIP3   OH232831   4.886   4.100   8.499 -0.3297 -0.2425  0.5425
 2879TIP3    H132832   4.976   4.067   8.501 -0.7416 -1.3875  0.9050
 2879TIP3    H232833   4.894   4.192   8.524  0.4254 -1.1122  4.0508
 2880TIP3   OH232834   0.166   7.143   9.781 -0.3486 -0.1585  0.1021
 2880TIP3    H132835   0.074   7.171   9.788  0.1068  1.1946  0.8923
 2880TIP3    H232836   0.189   7.113   9.868 -0.1983 -1.0625 -0.2383
 2881TIP3   OH232837   2.350   1.838   7.691  0.4767  0.0872 -0.2535
 2881TIP3    H132838   2.423   1.797   7.738  0.9680  1.2857  0.0791
 2881TIP3    H232839   2.328   1.777   7.621  0.5339 -1.1752  0.7981
 2882TIP3   OH232840   1.635   6.779   1.989 -0.3012  0.3720  0.4682
 2882TIP3    H132841   1.728   6.787   2.010 -0.5974 -1.2981  2.8032
 2882TIP3    H232842   1.630   6.707   1.927  0.0120  1.2908 -0.6801
 2883TIP3   OH232843   5.544   7.125   0.723 -0.2109  0.0491 -0.0840
 2883TIP3    H132844   5.528   7.102   0.631  1.5927  0.6775 -0.6033
 2883TIP3    H232845   5.639   7.138   0.728 -0.0166 -1.6226  2.2602
 2884TIP3   OH232846   0.727   4.485   8.417  0.4425  0.1815  0.0029
 2884TIP3    H132847   0.758   4.487   8.326  2.8663  0.0702  0.7490
 2884TIP3    H232848   0.771   4.410   8.456  0.2819  0.8522  1.5409
 2885TIP3   OH232849   2.636   3.132   1.723 -0.0217  0.9643  0.2558
 2885TIP3    H132850   2.618   3.136   1.817 -0.6146  0.6707  0.1633
 2885TIP3    H232851   2.549   3.132   1.682  0.2245  0.8888 -0.2822
 2886TIP3   OH232852   3.021   3.133   1.095 -0.7670  0.3842 -0.3841
 2886TIP3    H132853   2.954   3.088   1.145 -0.5399 -1.1568 -1.4086
 2886TIP3    H232854   3.020   3.223   1.128 -1.8485 -0.1425  1.0874
 2887TIP3   OH232855   5.358   2.141   8.682 -0.1235 -0.3752 -0.1012
 2887TIP3    H132856   5.309   2.214   8.719 -1.6013 -2.0093  1.3559
 2887TIP3    H232857   5.305   2.111   8.608 -0.2945 -0.8811  0.2199
 2888TIP3   OH232858   0.071   3.395   1.943 -0.6178  0.9537 -0.6801
 2888TIP3    H132859   0.022   3.456   1.999  1.3333  0.1078  2.1417
 2888TIP3    H232860   0.054   3.309   1.981  3.1726  0.6529  0.6645
 2889TIP3   OH232861   2.745   5.457   0.082  0.0276  0.4585 -0.1778
 2889TIP3    H132862   2.748   5.386   0.017  1.3309 -0.6527  1.0306
 2889TIP3    H232863   2.824   5.446   0.134 -1.4049  0.6712  2.2271
 2890TIP3   OH232864   2.943   1.264   8.842  0.8075  0.3619  0.3364
 2890TIP3    H132865   2.993   1.342   8.862 -0.0820  1.1998 -0.6069
 2890TIP3    H232866   2.908   1.279   8.754  2.0189 -1.8425 -0.6084
 2891TIP3   OH232867   4.275   4.580   1.126  0.4190  0.6815  0.0790
 2891TIP3    H132868   4.334   4.580   1.051  0.3235 -2.3279 -0.1017
 2891TIP3    H232869   4.301   4.504   1.178 -1.6729  0.7283  1.3329
 2892TIP3   OH232870   7.316   4.945   1.586 -0.4254 -0.4101 -0.4459
 2892TIP3    H132871   7.268   5.007   1.641  1.6528 -1.2100  2.5168
 2892TIP3    H232872   7.285   4.859   1.615  1.0799 -0.8591 -0.0794
 2893TIP3   OH232873   4.727   1.427   2.035 -0.2112  0.4480 -0.0398
 2893TIP3    H132874   4.645   1.378   2.023 -0.8505  1.6280 -0.7095
 2893TIP3    H232875   4.787   1.364   2.073 -1.2082 -0.6702 -0.2466
 2894TIP3   OH232876   3.298   1.595   7.533  0.8743  0.4394  0.8641
 2894TIP3    H132877   3.214   1.633   7.560  1.2174  1.1301  0.9855
 2894TIP3    H232878   3.277   1.543   7.456  0.3637  0.7700  0.7740
 2895TIP3   OH232879   2.924   0.107   8.677  0.4510 -0.0966 -0.3856
 2895TIP3    H132880   2.940   0.170   8.748 -0.3003 -0.0257 -0.2729
 2895TIP3    H232881   2.886   0.160   8.607  1.2207 -0.1634 -0.8618
 2896TIP3   OH232882   4.388   2.360   9.980  0.1992  0.2550 -0.1889
 2896TIP3    H132883   4.374   2.310   9.899  1.6355 -1.1227  0.3554
 2896TIP3    H232884   4.354   2.304  10.049  0.0428  0.9122  0.2717
 2897TIP3   OH232885   2.590   1.561   8.581  0.5495  0.1516 -0.3473
 2897TIP3    H132886   2.632   1.612   8.651 -0.0660  0.6213 -0.3174
 2897TIP3    H232887   2.641   1.582   8.503  0.3956  0.6868 -0.3039
 2898TIP3   OH232888   2.907   2.270   1.323 -0.3014 -0.5711  0.5557
 2898TIP3    H132889   2.894   2.346   1.265  0.1413 -1.1152 -0.2771
 2898TIP3    H232890   2.831   2.215   1.307 -1.1250  0.1210  1.8840
 2899TIP3   OH232891   0.402   6.959   9.732 -0.0404 -0.4151 -0.0734
 2899TIP3    H132892   0.362   6.882   9.693  0.3072  0.0452 -1.3718
 2899TIP3    H232893   0.328   7.012   9.763 -0.4272 -0.0902 -1.4656
 2900TIP3   OH232894   1.449   2.053   9.814 -0.2826 -0.4383  0.0108
 2900TIP3    H132895   1.464   2.143   9.846 -0.8092 -0.5093  0.4633
 2900TIP3    H232896   1.527   2.034   9.761  1.0048 -0.5806  1.8329
 2901TIP3   OH232897   3.193   0.985   2.540 -0.0524  0.1244  0.1855
 2901TIP3    H132898   3.116   1.031   2.573 -1.0923 -1.0533 -0.4817
 2901TIP3    H232899   3.238   0.953   2.619 -3.6381 -4.5199  0.7974
 2902TIP3   OH232900   1.989   3.279   1.542  0.2839 -0.2770 -0.6539
 2902TIP3    H132901   2.081   3.299   1.558 -0.2247  1.6127  0.1883
 2902TIP3    H232902   1.942   3.328   1.610 -1.3518 -1.2051 -1.0698
 2903TIP3   OH232903   5.128   6.962   1.389 -0.3129  0.0090  0.1362
 2903TIP3    H132904   5.153   7.030   1.452 -3.1010  0.8230  0.4997
 2903TIP3    H232905   5.061   6.911   1.434  1.6983 -3.1162 -0.1340
 2904TIP3   OH232906   2.085   3.839   8.836 -0.5002 -0.0094 -0.2705
 2904TIP3    H132907   2.028   3.835   8.759 -0.6392 -0.7429 -0.1399
 2904TIP3    H232908   2.047   3.908   8.890 -0.0874  0.8910 -1.0975
 2905TIP3   OH232909   3.136   4.984   9.539 -0.1775  0.4211 -0.0499
 2905TIP3    H132910   3.146   5.035   9.619  0.9247 -0.3820  0.3304
 2905TIP3    H232911   3.133   4.893   9.568 -2.2280  0.2089 -0.7153
 2906TIP3   OH232912   7.008   1.997   9.332  0.5561  0.3341  0.5812
 2906TIP3    H132913   7.018   1.920   9.275 -1.3760  1.2190 -1.0867
 2906TIP3    H232914   7.033   1.966   9.419  1.3355 -1.7370 -0.3198
 2907TIP3   OH232915   5.397   2.097   7.556 -0.6654 -0.1568  0.5918
 2907TIP3    H132916   5.306   2.067   7.555 -0.3621 -1.0860  0.3318
 2907TIP3    H232917   5.421   2.104   7.463 -0.8907  1.4577  0.6137
 2908TIP3   OH232918   6.818   2.360   8.724  0.0165  0.2573  0.5824
 2908TIP3    H132919   6.843   2.390   8.636 -2.4448  0.3771 -0.1531
 2908TIP3    H232920   6.780   2.438   8.766  0.2379 -0.0582  1.3756
 2909TIP3   OH232921   5.211   2.077   8.488 -0.2266  0.7673  0.0214
 2909TIP3    H132922   5.154   2.009   8.450  0.3106 -0.1603  0.8531
 2909TIP3    H232923   5.266   2.104   8.415  0.7634 -0.9675  0.0624
 2910TIP3   OH232924   6.996   4.836   1.300  0.4452 -0.5111 -0.2279
 2910TIP3    H132925   6.974   4.909   1.242  3.7881  1.1882  0.3853
 2910TIP3    H232926   6.955   4.760   1.260 -3.0781  1.5870 -1.0016
 2911TIP3   OH232927   0.906   0.408   7.989  0.6204  0.1155 -0.1995
 2911TIP3    H132928   0.872   0.431   7.902  1.2594 -0.4775 -0.6142
 2911TIP3    H232929   0.995   0.377   7.972  0.0223 -2.1201  0.3750
 2912TIP3   OH232930   5.338   4.747   8.879  0.5930 -0.0043 -0.3129
 2912TIP3    H132931   5.376   4.748   8.967  1.5003 -0.6521 -0.6794
 2912TIP3    H232932   5.337   4.655   8.855 -2.0942 -0.1362  0.0120
 2913TIP3   OH232933   7.082   6.132   9.047 -0.0133 -0.4602  0.3999
 2913TIP3    H132934   7.145   6.065   9.020 -0.0060 -0.2277 -0.1693
 2913TIP3    H232935   7.038   6.094   9.123  1.3322 -0.3111  1.2711
 2914TIP3   OH232936   3.335   4.674   0.177  0.1064 -0.4558 -0.4747
 2914TIP3    H132937   3.271   4.633   0.236 -0.9738 -0.5791 -1.6768
 2914TIP3    H232938   3.399   4.713   0.235  0.0279 -2.0413  0.7631
 2915TIP3   OH232939   0.572   1.362   2.015 -0.3120 -0.3208  0.4385
 2915TIP3    H132940   0.501   1.417   2.050 -1.9551 -0.7558 -1.9301
 2915TIP3    H232941   0.608   1.413   1.943  1.9351 -0.0853  1.6558
 2916TIP3   OH232942   6.349   0.740   0.108  0.1793  0.6910  0.1186
 2916TIP3    H132943   6.371   0.661   0.158  0.7707  1.0732  0.4722
 2916TIP3    H232944   6.395   0.729   0.024  2.7259  1.9530  1.2208
 2917TIP3   OH232945   1.607   0.200   9.902  0.2101 -0.3069 -0.0815
 2917TIP3    H132946   1.622   0.125   9.845 -0.1379 -0.6011  0.2081
 2917TIP3    H232947   1.584   0.271   9.842 -1.0767 -0.8481 -0.2770
 2918TIP3   OH232948   1.479   7.372   8.654  0.1412 -0.1973 -0.5519
 2918TIP3    H132949   1.502   7.429   8.580 -2.2120  0.4011 -0.8917
 2918TIP3    H232950   1.384   7.365   8.650  0.1019 -1.4577  1.4988
 2919TIP3   OH232951   4.145   5.286   8.758  0.0358 -0.1827 -0.0244
 2919TIP3    H132952   4.215   5.350   8.764 -1.1856  1.2314 -0.1598
 2919TIP3    H232953   4.110   5.297   8.670 -2.1438  1.1720  0.9282
 2920TIP3   OH232954   0.776   4.807   6.807 -0.0091  0.0963 -0.1697
 2920TIP3    H132955   0.802   4.723   6.845 -0.0767  0.4285  0.6302
 2920TIP3    H232956   0.766   4.866   6.882  0.4152  0.9296 -0.7399
 2921TIP3   OH232957   4.405   7.021   9.169  0.0044 -0.0912  0.3792
 2921TIP3    H132958   4.453   7.081   9.227 -2.8370  0.7881  1.9883
 2921TIP3    H232959   4.419   6.934   9.206  1.1638 -0.0133  0.1771
 2922TIP3   OH232960   3.553   2.824   1.428  0.2491  0.0225 -0.4958
 2922TIP3    H132961   3.591   2.854   1.346 -0.7507  0.5798 -0.7722
 2922TIP3    H232962   3.549   2.902   1.483 -0.9995  0.1228 -0.6870
 2923TIP3   OH232963   2.820   5.110   7.955 -0.2162 -0.2135 -0.5051
 2923TIP3    H132964   2.774   5.068   7.881  0.3232 -1.7405 -0.0228
 2923TIP3    H232965   2.812   5.047   8.027  1.2356  0.2111  0.0681
 2924TIP3   OH232966   1.130   0.519   7.814  0.2597  0.5167 -0.1179
 2924TIP3    H132967   1.198   0.575   7.778  1.0862 -0.5123 -0.2126
 2924TIP3    H232968   1.050   0.571   7.808  1.1545  2.0673  0.7659
 2925TIP3   OH232969   0.102   5.658   7.695 -0.1426  0.3094  0.1564
 2925TIP3    H132970   0.178   5.683   7.747  1.4337 -1.2623 -1.2685
 2925TIP3    H232971   0.028   5.698   7.740  1.4879  1.7404  1.7070
 2926TIP3   OH232972   0.920   0.371   9.214 -0.1762  0.1557 -0.0108
 2926TIP3    H132973   0.921   0.277   9.196  1.4651 -0.1115  1.2181
 2926TIP3    H232974   1.008   0.400   9.191  0.5871  0.6256  3.0728
 2927TIP3   OH232975   1.118   4.419   9.447 -0.3084 -0.7434 -0.3992
 2927TIP3    H132976   1.128   4.513   9.463  0.3682 -1.1087  1.6049
 2927TIP3    H232977   1.204   4.391   9.415  0.0521 -0.9609  0.7124
 2928TIP3   OH232978   2.342   3.493   8.554  0.6838 -0.3662 -0.5705
 2928TIP3    H132979   2.352   3.490   8.649 -0.3197 -0.9599 -0.4722
 2928TIP3    H232980   2.255   3.457   8.538  0.4806  0.5687 -1.6616
 2929TIP3   OH232981   2.107   6.240   0.723 -0.0579 -0.2146 -0.1304
 2929TIP3    H132982   2.091   6.190   0.643 -0.0146  1.7154 -1.4029
 2929TIP3    H232983   2.201   6.230   0.739  0.3038  0.8768 -1.4107
 2930TIP3   OH232984   7.071   3.898   2.154  0.2078 -0.6980 -0.0015
 2930TIP3    H132985   7.051   3.806   2.139 -2.4576  0.0676 -1.7846
 2930TIP3    H232986   7.106   3.930   2.070  0.0094  0.1604  0.2260
 2931TIP3   OH232987   2.411   0.709   8.522  0.5756 -0.6159 -0.4953
 2931TIP3    H132988   2.413   0.727   8.428  0.0204 -1.5176 -0.6818
 2931TIP3    H232989   2.485   0.650   8.536  0.3921 -0.8325 -0.4404
 2932TIP3   OH232990   6.022   2.786   1.719 -0.1995 -0.3333  0.4876
 2932TIP3    H132991   5.999   2.876   1.694 -0.4074 -0.2697  0.8970
 2932TIP3    H232992   6.118   2.787   1.723  0.0491 -0.9562 -2.5716
 2933TIP3   OH232993   7.136   1.886   9.555  0.6015 -0.0890  0.0572
 2933TIP3    H132994   7.088   1.879   9.638  3.5565  0.2124  1.9364
 2933TIP3    H232995   7.219   1.927   9.578  1.2063  0.9240 -3.2791
 2934TIP3   OH232996   3.675   6.054   7.852 -0.0715 -0.1246  0.2420
 2934TIP3    H132997   3.740   6.047   7.782  2.3952 -0.9714  2.4602
 2934TIP3    H232998   3.682   6.145   7.882 -1.2399  0.2832 -0.6297
 2935TIP3   OH232999   1.981   1.133   2.471 -0.0665  0.6074 -0.3722
 2935TIP3    H133000   1.999   1.069   2.403 -0.6525  1.3702 -1.2633
 2935TIP3    H233001   1.892   1.163   2.454  0.1005  1.4699  0.1871
 2936TIP3   OH233002   4.336   2.992   0.473 -0.0471  0.1066 -0.5047
 2936TIP3    H133003   4.334   2.928   0.402  2.1327  1.6721 -2.0926
 2936TIP3    H233004   4.403   2.960   0.532 -1.1665 -0.6718  0.3843
 2937TIP3   OH233005   5.908   0.275   0.338  0.2051 -0.6202  0.2962
 2937TIP3    H133006   5.846   0.265   0.266  1.6543  1.2453 -1.3376
 2937TIP3    H233007   5.930   0.185   0.363 -0.8803 -1.3185 -1.1016
 2938TIP3   OH233008   5.877   6.572   0.332 -0.1411 -0.4819 -0.4224
 2938TIP3    H133009   5.939   6.537   0.268  0.6960 -0.3302  0.2777
 2938TIP3    H233010   5.792   6.570   0.288  0.5157  0.2341 -1.7718
 2939TIP3   OH233011   0.680   7.096   2.433  0.4695  0.2706 -0.0582
 2939TIP3    H133012   0.608   7.140   2.479  0.0975  0.3338 -0.6865
 2939TIP3    H233013   0.707   7.026   2.492 -0.8008 -0.4050 -0.2473
 2940TIP3   OH233014   5.229   0.826   9.294 -0.2725  0.0933 -0.3930
 2940TIP3    H133015   5.139   0.827   9.327  0.3677 -1.4085  1.5739
 2940TIP3    H233016   5.239   0.738   9.256 -1.2130  1.8780 -5.7373
 2941TIP3   OH233017   6.479   0.064   7.596  0.3723 -0.1545 -0.8110
 2941TIP3    H133018   6.469   0.159   7.588  0.6917 -0.0020  0.3897
 2941TIP3    H233019   6.572   0.048   7.581  0.6509 -0.0577  0.6636
 2942TIP3   OH233020   5.765   5.158   1.631  0.2007 -0.0618  0.2799
 2942TIP3    H133021   5.713   5.132   1.708 -0.4728  1.5551  0.4066
 2942TIP3    H233022   5.825   5.225   1.664 -0.8336  1.4407 -0.8028
 2943TIP3   OH233023   7.175   2.004   1.469  0.5095  0.4406  0.4096
 2943TIP3    H133024   7.241   2.046   1.413  0.1151  2.0243  1.0624
 2943TIP3    H233025   7.208   2.018   1.558 -0.0855  0.1365  0.6785
 2944TIP3   OH233026   5.498   5.536   8.185  0.0755  0.2426 -0.5290
 2944TIP3    H133027   5.487   5.511   8.277  0.7016 -0.5931 -0.6757
 2944TIP3    H233028   5.473   5.459   8.135  0.8013  0.3188 -1.0253
 2945TIP3   OH233029   3.965   5.327   9.303  0.7331 -0.7237  0.2591
 2945TIP3    H133030   3.916   5.263   9.251 -1.5614  0.3447  0.9922
 2945TIP3    H233031   4.022   5.371   9.240 -1.5929  0.1808 -1.3240
 2946TIP3   OH233032   6.478   2.056   9.277  0.1335  0.6604  0.0923
 2946TIP3    H133033   6.534   1.989   9.238 -1.3830 -0.0578 -0.9612
 2946TIP3    H233034   6.533   2.134   9.281  1.8276 -0.5444  1.0442
 2947TIP3   OH233035   5.334   4.160   0.597 -0.1203 -0.2604 -0.3783
 2947TIP3    H133036   5.371   4.076   0.571  0.9583  0.4149 -1.1191
 2947TIP3    H233037   5.367   4.175   0.686 -0.8516 -0.9117  0.0103
 2948TIP3   OH233038   6.498   0.763   8.126  0.1420 -0.2875 -0.8803
 2948TIP3    H133039   6.443   0.793   8.054 -3.2656 -2.2049  0.6961
 2948TIP3    H233040   6.472   0.817   8.201  0.6864 -0.9966 -0.1524
 2949TIP3   OH233041   4.241   5.729   6.972 -0.0025  0.0330  0.4845
 2949TIP3    H133042   4.205   5.817   6.986  0.8429  0.3692  0.5592
 2949TIP3    H233043   4.271   5.701   7.058 -1.7483 -1.0215  0.8112
 2950TIP3   OH233044   1.635   5.952   2.395  0.0585 -0.1797  0.9864
 2950TIP3    H133045   1.614   5.876   2.450 -0.2559  0.1678  1.3418
 2950TIP3    H233046   1.640   5.915   2.306 -1.7658 -0.3366  0.9141
 2951TIP3   OH233047   1.054   5.309   8.663 -0.2851 -0.2944  0.4979
 2951TIP3    H133048   1.110   5.261   8.602 -0.7548  0.5804 -0.6596
 2951TIP3    H233049   0.972   5.321   8.615  0.1109  2.4426  0.3665
 2952TIP3   OH233050   4.783   5.517   0.153 -0.6297 -0.0486 -0.1765
 2952TIP3    H133051   4.694   5.553   0.156 -0.1095  1.2300  1.2553
 2952TIP3    H233052   4.770   5.422   0.149 -2.0447  0.1382 -0.9902
 2953TIP3   OH233053   4.376   6.244   9.508  0.4924 -0.1508  0.1525
 2953TIP3    H133054   4.455   6.298   9.500  1.1391 -1.1330 -0.2329
 2953TIP3    H233055   4.395   6.165   9.457  0.5011 -1.8333  2.5946
 2954TIP3   OH233056   2.008   1.489   1.548 -0.4211  0.0478 -0.3152
 2954TIP3    H133057   1.986   1.555   1.614  1.3000  0.7726 -0.4057
 2954TIP3    H233058   1.944   1.502   1.478 -1.3224  0.2867  0.5358
 2955TIP3   OH233059   2.196   4.690   1.639 -0.3045  0.4710 -0.7052
 2955TIP3    H133060   2.283   4.730   1.642 -0.1067  0.0134 -0.1385
 2955TIP3    H233061   2.164   4.697   1.729 -0.0170 -1.1734 -0.4506
 2956TIP3   OH233062   0.483   5.325   7.959 -0.0027  0.1988  0.2426
 2956TIP3    H133063   0.451   5.367   7.878  1.0981 -1.1170 -0.9269
 2956TIP3    H233064   0.413   5.266   7.984  0.4571 -0.9171 -0.9669
 2957TIP3   OH233065   6.073   5.358   1.033  0.1663 -0.6982  0.5144
 2957TIP3    H133066   6.164   5.329   1.041 -0.1497 -1.4122  1.9712
 2957TIP3    H233067   6.023   5.276   1.030 -0.3999 -0.3319 -1.1455
 2958TIP3   OH233068   1.271   4.648   2.273 -0.4319  0.2506  0.0434
 2958TIP3    H133069   1.252   4.599   2.193 -1.9561  2.0672 -0.7791
 2958TIP3    H233070   1.189   4.649   2.321 -0.2109  1.3149  0.4213
 2959TIP3   OH233071   1.956   7.224   9.246 -0.4391  0.4337  0.1036
 2959TIP3    H133072   2.035   7.199   9.198 -1.6471 -1.0985 -1.1722
 2959TIP3    H233073   1.903   7.271   9.182 -0.4577  1.7529  1.0497
 2960TIP3   OH233074   2.888   3.648   1.006 -0.4049 -0.2030  0.1098
 2960TIP3    H133075   2.820   3.696   0.961 -0.7241 -1.3030 -0.6375
 2960TIP3    H233076   2.922   3.708   1.072 -3.0397 -0.0846  1.4658
 2961TIP3   OH233077   5.520   1.278   1.715 -0.1759 -0.2190 -0.0622
 2961TIP3    H133078   5.471   1.350   1.675  0.3741  0.5724  0.6680
 2961TIP3    H233079   5.515   1.295   1.809  1.4035 -0.1824  0.0343
 2962TIP3   OH233080   0.839   1.226   7.888  0.0277  0.6073 -0.2777
 2962TIP3    H133081   0.838   1.174   7.808 -0.2468  0.1822 -0.0049
 2962TIP3    H233082   0.926   1.267   7.890 -0.0218  0.7454 -0.8665
 2963TIP3   OH233083   6.786   3.532   0.132  0.3907 -0.1382  0.5659
 2963TIP3    H133084   6.771   3.621   0.164  2.3391 -0.1136  1.5027
 2963TIP3    H233085   6.877   3.532   0.103  0.2093 -1.6470 -0.0812
 2964TIP3   OH233086   0.300   4.731   1.942  0.2521  0.2847 -0.2494
 2964TIP3    H133087   0.359   4.711   1.869  0.4693  2.6098 -0.7974
 2964TIP3    H233088   0.222   4.768   1.900  0.7491  2.5275  0.6517
 2965TIP3   OH233089   1.885   5.109   9.048 -0.2961  0.3975 -0.4818
 2965TIP3    H133090   1.849   5.042   8.990  1.6059 -1.1575  0.0225
 2965TIP3    H233091   1.888   5.067   9.134  0.2487  1.4001  0.0084
 2966TIP3   OH233092   5.615   3.452   1.893  0.8048 -0.6785 -0.1600
 2966TIP3    H133093   5.671   3.481   1.965  0.4369  0.6032 -0.3611
 2966TIP3    H233094   5.532   3.429   1.934  0.5938  0.0557 -0.1476
 2967TIP3   OH233095   6.179   6.360   8.306  0.0780 -0.5334 -0.1644
 2967TIP3    H133096   6.199   6.446   8.268 -0.8464 -0.2482 -0.0385
 2967TIP3    H233097   6.263   6.325   8.333  0.3848  0.6907  0.5117
 2968TIP3   OH233098   2.766   1.714   1.075 -0.1258 -0.1346 -0.0751
 2968TIP3    H133099   2.703   1.716   1.147 -1.1868  0.6627 -1.0047
 2968TIP3    H233100   2.822   1.639   1.094 -2.8413 -2.4006 -0.4859
 2969TIP3   OH233101   1.688   2.571   7.313 -0.0424 -0.2599 -0.3741
 2969TIP3    H133102   1.730   2.608   7.391  0.5640 -0.4079 -0.6283
 2969TIP3    H233103   1.622   2.636   7.289  1.2221  0.8283 -0.9997
 2970TIP3   OH233104   0.167   4.687   9.632 -0.4392  0.2800 -0.4140
 2970TIP3    H133105   0.086   4.664   9.585 -0.3641 -1.3174  0.1736
 2970TIP3    H233106   0.137   4.714   9.719 -0.3649 -0.0418 -0.2873
 2971TIP3   OH233107   5.718   3.600   0.705  0.6032  0.0880  0.2499
 2971TIP3    H133108   5.642   3.630   0.656  1.6319 -0.2231 -1.6495
 2971TIP3    H233109   5.685   3.583   0.794 -1.7202 -0.8554 -0.7141
 2972TIP3   OH233110   3.378   3.715   2.644  0.3123 -0.1354 -0.2619
 2972TIP3    H133111   3.373   3.660   2.566  0.2894  0.3281 -0.5910
 2972TIP3    H233112   3.461   3.692   2.684  0.4502 -0.1828 -0.5707
 2973TIP3   OH233113   5.728   7.141   8.386  0.0479  0.0143  0.3851
 2973TIP3    H133114   5.795   7.105   8.444  0.9612  1.2957  0.1578
 2973TIP3    H233115   5.740   7.093   8.304  0.6432  0.1919  0.3675
 2974TIP3   OH233116   1.391   4.123   9.471 -0.5556  0.1688 -0.1205
 2974TIP3    H133117   1.356   4.161   9.552 -1.1271  0.1155 -0.3345
 2974TIP3    H233118   1.368   4.031   9.476  1.9055 -0.4635  0.9682
 2975TIP3   OH233119   5.148   6.264   9.224 -0.0745  0.1375  0.3353
 2975TIP3    H133120   5.086   6.198   9.192  2.6267 -1.3949 -2.1293
 2975TIP3    H233121   5.233   6.236   9.192  1.9143  2.5018  2.9800
 2976TIP3   OH233122   3.367   2.997   1.055 -0.4147 -0.1756  0.3893
 2976TIP3    H133123   3.356   2.921   1.112  0.9863 -0.3234  0.4870
 2976TIP3    H233124   3.277   3.030   1.041 -1.0691 -1.9637  0.1486
 2977TIP3   OH233125   2.370   4.621   8.714 -0.1352 -0.2801 -0.1397
 2977TIP3    H133126   2.338   4.600   8.626 -1.2759  0.0314  0.1920
 2977TIP3    H233127   2.342   4.711   8.730 -0.5594 -0.5722  0.8193
 2978TIP3   OH233128   4.597   5.563   0.783  0.4330 -0.3210 -0.1602
 2978TIP3    H133129   4.666   5.596   0.841 -0.1545  0.6365  0.0172
 2978TIP3    H233130   4.640   5.552   0.699  0.3730  2.2883 -0.6102
 2979TIP3   OH233131   6.037   1.446   0.824  0.1084  0.5665 -0.3247
 2979TIP3    H133132   5.951   1.404   0.824  0.4706 -0.3134  2.0268
 2979TIP3    H233133   6.065   1.444   0.732 -0.9937 -2.1009 -0.6923
 2980TIP3   OH233134   0.544   3.554   8.540 -0.0493  0.1415  0.6231
 2980TIP3    H133135   0.469   3.607   8.513  0.6688  1.1321  0.5417
 2980TIP3    H233136   0.505   3.482   8.591 -1.2208 -0.4607 -1.0316
 2981TIP3   OH233137   7.145   0.585   9.095 -0.3916  0.4131 -0.0409
 2981TIP3    H133138   7.163   0.496   9.128  0.9439  0.2780 -1.0400
 2981TIP3    H233139   7.214   0.600   9.031 -1.0758  1.8906 -0.4501
 2982TIP3   OH233140   1.314   1.502   0.575  0.0751 -0.6399 -0.3385
 2982TIP3    H133141   1.245   1.456   0.527 -0.6981  0.8714 -0.7392
 2982TIP3    H233142   1.333   1.580   0.522  0.6211  0.0408  0.8091
 2983TIP3   OH233143   6.889   2.634   9.544  0.0695 -0.0588  0.3362
 2983TIP3    H133144   6.910   2.685   9.622 -0.8958  0.9119 -0.0053
 2983TIP3    H233145   6.841   2.558   9.577  2.1892 -1.2154  0.9234
 2984TIP3   OH233146   4.858   3.855   0.228  0.7651 -0.5756 -0.5795
 2984TIP3    H133147   4.939   3.828   0.186  1.6185  1.9951 -0.7645
 2984TIP3    H233148   4.837   3.940   0.189 -1.8415 -0.9740 -0.2730
 2985TIP3   OH233149   2.115   2.034   6.643  0.1854 -0.1252 -0.3162
 2985TIP3    H133150   2.191   1.977   6.657 -0.2056 -0.5764 -0.0216
 2985TIP3    H233151   2.107   2.083   6.725  0.0021 -0.2609 -0.2536
 2986TIP3   OH233152   6.393   5.327   0.014  0.4297  0.1534 -0.0303
 2986TIP3    H133153   6.463   5.342   0.078  1.0961  0.9787 -0.9250
 2986TIP3    H233154   6.434   5.271  -0.052  0.2474  0.6293 -0.5487
 2987TIP3   OH233155   1.204   0.447   2.530 -0.2763  0.0019 -0.2329
 2987TIP3    H133156   1.217   0.533   2.490  0.5571 -0.3902 -0.8507
 2987TIP3    H233157   1.269   0.443   2.600 -2.0782  0.8925  1.5933
 2988TIP3   OH233158   6.181   2.141   0.076 -0.4676 -0.0907 -0.0601
 2988TIP3    H133159   6.131   2.121   0.156 -0.3972  0.8400  0.2254
 2988TIP3    H233160   6.258   2.188   0.107  0.9778 -2.1045 -0.4330
 2989TIP3   OH233161   7.156   2.441   9.396 -0.3654  0.8716  0.3942
 2989TIP3    H133162   7.188   2.373   9.455  0.4877  0.6668 -0.2752
 2989TIP3    H233163   7.151   2.398   9.310 -0.6259  1.4242  0.1222
 2990TIP3   OH233164   6.154   6.459   0.774  0.3487 -0.3252 -0.0635
 2990TIP3    H133165   6.157   6.511   0.693 -0.5025 -1.3266 -0.7726
 2990TIP3    H233166   6.084   6.499   0.826 -0.1924 -0.6329 -0.5371
 2991TIP3   OH233167   3.940   5.085   9.015  0.2490 -0.0254  0.2392
 2991TIP3    H133168   3.970   5.173   8.993 -1.4660  0.1857 -1.5953
 2991TIP3    H233169   3.845   5.093   9.023  0.1623 -1.5238  1.0522
 2992TIP3   OH233170   0.635   4.816   9.603  0.0469  0.1608  0.0784
 2992TIP3    H133171   0.543   4.806   9.579 -0.2943  3.0502 -0.1829
 2992TIP3    H233172   0.637   4.898   9.653  2.2721 -0.6199  1.3765
 2993TIP3   OH233173   0.445   5.133   3.123  0.4575 -0.2087  0.1329
 2993TIP3    H133174   0.498   5.172   3.192  1.9616  0.9014 -1.5688
 2993TIP3    H233175   0.407   5.207   3.076  2.5249 -0.6817 -2.5134
 2994TIP3   OH233176   3.623   2.058   8.931 -0.3792 -0.1077 -0.3859
 2994TIP3    H133177   3.554   2.077   8.995  0.8962  0.5036  0.8810
 2994TIP3    H233178   3.598   2.105   8.852 -1.1926  0.4437  0.1916
 2995TIP3   OH233179   2.092   3.571   6.112  0.2309  0.0812 -0.3515
 2995TIP3    H133180   2.000   3.551   6.132  0.0806  0.6149 -0.4949
 2995TIP3    H233181   2.134   3.485   6.106  0.2924 -0.1739  2.2179
 2996TIP3   OH233182   1.030   2.636   1.635  0.8619 -0.3389  0.5106
 2996TIP3    H133183   1.034   2.663   1.727 -0.3153 -1.1926  0.8391
 2996TIP3    H233184   1.015   2.717   1.587 -1.0911 -0.1574  1.3331
 2997TIP3   OH233185   4.138   6.565   2.154  0.1447  0.7184 -0.1045
 2997TIP3    H133186   4.194   6.538   2.227  1.5778  1.3154 -0.9378
 2997TIP3    H233187   4.115   6.656   2.174  1.3258  1.2015 -0.8163
 2998TIP3   OH233188   4.318   0.396   1.746 -0.3117  0.3786  0.1497
 2998TIP3    H133189   4.346   0.330   1.809 -0.6231  0.5906  0.5128
 2998TIP3    H233190   4.284   0.467   1.799  1.6346  1.6078 -0.1503
 2999TIP3   OH233191   0.535   5.619   0.741 -0.0877 -0.0420 -0.1709
 2999TIP3    H133192   0.546   5.682   0.670 -0.4508  1.2746  0.8986
 2999TIP3    H233193   0.502   5.670   0.814 -0.7360 -1.5497  0.6487
 3000TIP3   OH233194   0.257   6.411   2.495 -0.0551 -0.0484 -0.1275
 3000TIP3    H133195   0.304   6.480   2.449  0.8559 -0.9953 -0.6723
 3000TIP3    H233196   0.219   6.455   2.571 -0.9149  1.3760 -1.3213
 3001TIP3   OH233197   6.975   7.257   1.509  0.4232  0.5081 -0.4213
 3001TIP3    H133198   6.964   7.162   1.510  0.8404  0.4375  1.2984
 3001TIP3    H233199   6.897   7.291   1.553  0.7660  0.8721 -0.0817
 3002TIP3   OH233200   3.516   2.759   6.906 -0.0446 -0.5598 -0.1536
 3002TIP3    H133201   3.525   2.664   6.904  1.0220 -0.5625  1.8581
 3002TIP3    H233202   3.606   2.791   6.911 -0.4428  0.3976  1.7270
 3003TIP3   OH233203   6.835   6.166   8.406 -0.4411 -0.4667  0.9756
 3003TIP3    H133204   6.781   6.199   8.479  0.3604  0.5384  1.1437
 3003TIP3    H233205   6.862   6.245   8.359 -1.6681 -1.1336 -0.9725
 3004TIP3   OH233206   5.558   4.048   0.453  0.6535 -0.1785 -0.5312
 3004TIP3    H133207   5.604   4.088   0.527 -0.6927 -0.5510  0.5530
 3004TIP3    H233208   5.539   4.121   0.394  1.1701  0.2352 -0.1916
 3005TIP3   OH233209   2.674   5.484   8.941 -0.1788  0.6801 -0.0005
 3005TIP3    H133210   2.649   5.495   8.849 -2.2654  0.6909  0.5049
 3005TIP3    H233211   2.609   5.534   8.989  0.7355  0.4763  1.5129
 3006TIP3   OH233212   1.496   6.368   0.591 -0.0635  0.0899 -0.0813
 3006TIP3    H133213   1.420   6.326   0.630 -0.2531 -0.3324 -0.8957
 3006TIP3    H233214   1.464   6.452   0.559  0.3332  0.9523  1.6206
 3007TIP3   OH233215   6.531   4.930   2.108  0.4033  0.1079 -0.8485
 3007TIP3    H133216   6.534   5.020   2.141 -0.3628  0.1799 -0.9514
 3007TIP3    H233217   6.504   4.877   2.183 -0.1164  0.1040 -1.0316
 3008TIP3   OH233218   2.045   3.673   0.919 -0.2836  0.0005  0.0220
 3008TIP3    H133219   1.998   3.641   0.842 -0.5213 -1.4605  0.7289
 3008TIP3    H233220   1.982   3.729   0.964  0.6622  2.9795 -2.0753
 3009TIP3   OH233221   1.303   6.121   8.985 -0.5169 -0.2774  0.1348
 3009TIP3    H133222   1.349   6.203   8.970 -3.4514  1.7231  1.2433
 3009TIP3    H233223   1.329   6.095   9.073 -0.1569 -0.1324  0.0732
 3010TIP3   OH233224   5.113   0.414   0.762  0.5450 -0.0687 -0.0301
 3010TIP3    H133225   5.052   0.345   0.789  0.7897  0.5961  2.5279
 3010TIP3    H233226   5.197   0.387   0.798  1.1084  0.5279 -0.8658
 3011TIP3   OH233227   5.996   4.763   8.775 -0.0947 -0.3376  0.2955
 3011TIP3    H133228   5.928   4.831   8.775  1.2549  1.0782 -0.0187
 3011TIP3    H233229   6.062   4.796   8.836  0.1626 -1.8482  0.8600
 3012TIP3   OH233230   1.264   1.643   2.997 -0.2820  0.1739  0.2115
 3012TIP3    H133231   1.199   1.692   3.048  0.7874  0.8194  0.9853
 3012TIP3    H233232   1.293   1.704   2.930 -0.1987  0.0000  0.0876
 3013TIP3   OH233233   3.832   0.431   0.735  0.3561  0.1171  0.1769
 3013TIP3    H133234   3.789   0.362   0.784 -0.6702  1.0396  0.6252
 3013TIP3    H233235   3.783   0.510   0.757  0.6380  0.7692 -1.3604
 3014TIP3   OH233236   2.516   3.037   2.948  0.1363 -0.7071 -0.4188
 3014TIP3    H133237   2.594   3.086   2.920 -1.0703  0.4856 -1.8377
 3014TIP3    H233238   2.447   3.103   2.955 -0.5181 -1.5265  2.0685
 3015TIP3   OH233239   2.853   2.708   2.035 -0.1609 -1.0668  0.2029
 3015TIP3    H133240   2.940   2.701   2.075  0.0875  0.7615  0.1155
 3015TIP3    H233241   2.794   2.725   2.109 -0.3004 -1.4292  0.1738
 3016TIP3   OH233242   4.117   4.381   9.911  0.4317  0.5582  0.1543
 3016TIP3    H133243   4.037   4.431   9.927  0.0922 -0.0979  0.5633
 3016TIP3    H233244   4.157   4.372   9.998  0.6595  0.4033  0.0341
 3017TIP3   OH233245   2.265   6.164   9.607  0.5088  0.3363  0.3425
 3017TIP3    H133246   2.288   6.244   9.655  2.2872  0.1002 -0.0405
 3017TIP3    H233247   2.282   6.186   9.516  2.0906 -0.7892  0.3291
 3018TIP3   OH233248   0.053   0.901   8.145 -0.1052  0.0249  0.8242
 3018TIP3    H133249   0.040   0.901   8.240  0.5956  0.8533  0.9316
 3018TIP3    H233250   0.107   0.823   8.129 -1.1650 -0.7572  0.9507
 3019TIP3   OH233251   1.038   2.762   8.580 -0.0999 -0.4601  0.3100
 3019TIP3    H133252   0.947   2.736   8.570 -0.3218  0.7855 -1.4143
 3019TIP3    H233253   1.034   2.850   8.618  0.4171 -0.7214  0.9813
 3020TIP3   OH233254   6.552   1.546   0.412 -0.9645 -0.2870 -0.5624
 3020TIP3    H133255   6.528   1.630   0.375 -0.0396 -0.4119 -1.5125
 3020TIP3    H233256   6.648   1.545   0.407 -0.8738 -0.7781  0.8315
 3021TIP3   OH233257   2.794   1.765   9.369 -0.2361  0.2100 -0.0407
 3021TIP3    H133258   2.841   1.843   9.397 -0.1482 -0.1128  0.7379
 3021TIP3    H233259   2.843   1.692   9.407  0.1905 -0.2886 -1.4721
 3022TIP3   OH233260   5.767   7.434   0.808  0.1547  0.0263 -0.1935
 3022TIP3    H133261   5.846   7.482   0.832  1.1135 -1.7288  0.3663
 3022TIP3    H233262   5.783   7.404   0.718  0.3247 -0.6734  0.0617
 3023TIP3   OH233263   0.139   0.937   0.842  0.5988 -0.3559  0.5677
 3023TIP3    H133264   0.089   0.968   0.918 -1.7129  0.2753 -1.0833
 3023TIP3    H233265   0.230   0.945   0.868 -0.0879  0.3828  3.0466
 3024TIP3   OH233266   1.895   6.385   0.831 -0.1250  0.2784 -0.2171
 3024TIP3    H133267   1.834   6.405   0.760 -1.9385  0.4327  1.3361
 3024TIP3    H233268   1.975   6.357   0.785 -1.5961 -0.7894 -2.3356
 3025TIP3   OH233269   5.725   5.818   9.825 -0.3865 -0.3459  0.3457
 3025TIP3    H133270   5.767   5.876   9.889  0.2493 -0.9112  0.4489
 3025TIP3    H233271   5.670   5.760   9.879  2.0323 -2.4708  0.7001
 3026TIP3   OH233272   2.270   3.214   6.695 -0.1078 -0.2428  0.3180
 3026TIP3    H133273   2.358   3.195   6.729  0.7178  0.0915 -1.5009
 3026TIP3    H233274   2.212   3.161   6.749  1.1556 -0.1677  1.8420
 3027TIP3   OH233275   3.088   0.891   9.862 -0.0212 -0.4479 -0.2259
 3027TIP3    H133276   3.143   0.813   9.864  0.1826 -0.2965  1.0320
 3027TIP3    H233277   3.097   0.925   9.773  2.0474 -0.3346 -0.0233
 3028TIP3   OH233278   1.883   2.730   7.159 -0.2333  0.0129  0.0843
 3028TIP3    H133279   1.828   2.682   7.220 -0.6680  1.9592  1.3195
 3028TIP3    H233280   1.973   2.704   7.182 -0.4488 -0.0515  0.8833
 3029TIP3   OH233281   6.717   5.974   0.878  0.1591  0.5595 -0.2976
 3029TIP3    H133282   6.660   6.047   0.851 -2.1339 -0.9525  0.1687
 3029TIP3    H233283   6.691   5.901   0.822  2.4193  0.0534 -0.7673
 3030TIP3   OH233284   1.032   7.432   1.312 -0.1782  0.7162 -0.1085
 3030TIP3    H133285   1.128   7.427   1.303 -0.1727 -0.1719  0.4162
 3030TIP3    H233286   1.002   7.457   1.224  0.6709  3.1643  0.2209
 3031TIP3   OH233287   4.847   2.938   1.932 -0.0248 -0.3095  0.1180
 3031TIP3    H133288   4.844   2.993   1.854  0.5137 -0.1435  0.2043
 3031TIP3    H233289   4.760   2.900   1.939 -0.0113 -0.5074 -0.6974
 3032TIP3   OH233290   4.946   1.139   8.706  0.3591  0.2257  0.5400
 3032TIP3    H133291   4.851   1.135   8.708  0.3742  0.0037  1.8017
 3032TIP3    H233292   4.966   1.221   8.659 -0.4560  0.4418  0.5648
 3033TIP3   OH233293   5.316   4.777   0.207  0.2040 -0.0464 -0.2312
 3033TIP3    H133294   5.322   4.776   0.111 -0.3685 -0.3890 -0.2708
 3033TIP3    H233295   5.406   4.763   0.237  0.2115 -1.1195 -0.7252
 3034TIP3   OH233296   3.207   1.692   0.190 -0.1026 -0.0024  0.6793
 3034TIP3    H133297   3.301   1.713   0.188 -0.0217 -0.2299 -1.9386
 3034TIP3    H233298   3.198   1.627   0.260  1.4633  0.9168  1.7913
 3035TIP3   OH233299   1.983   7.264   7.771 -0.4711  0.5854 -0.2195
 3035TIP3    H133300   1.920   7.316   7.820 -0.1250 -1.5744  2.7796
 3035TIP3    H233301   2.028   7.211   7.837  2.5066 -0.0753 -2.5291
 3036TIP3   OH233302   0.763   1.646   0.683  0.1217  0.6287  0.5081
 3036TIP3    H133303   0.752   1.553   0.700  0.1339  0.6972  0.9235
 3036TIP3    H233304   0.833   1.652   0.619 -0.8083  0.2860 -0.5588
 3037TIP3   OH233305   1.790   2.664   2.378  0.2361 -0.0899  0.2441
 3037TIP3    H133306   1.853   2.653   2.450  0.3791 -0.3679  0.0808
 3037TIP3    H233307   1.830   2.617   2.304  0.8035  1.4509 -0.4608
 3038TIP3   OH233308   3.664   5.956   1.836  0.8814 -0.1563 -0.4540
 3038TIP3    H133309   3.621   5.871   1.827  0.0259  0.0348  1.4017
 3038TIP3    H233310   3.611   6.015   1.782  0.1915 -0.3895 -0.0491
 3039TIP3   OH233311   4.383   3.472   0.615 -0.3865 -0.1999  0.0408
 3039TIP3    H133312   4.383   3.434   0.703  0.5817  0.7990  0.4998
 3039TIP3    H233313   4.475   3.494   0.598 -0.9286  2.5500  0.1196
 3040TIP3   OH233314   3.051   6.954   1.772 -0.4463  0.3324  0.0588
 3040TIP3    H133315   3.072   6.968   1.864 -1.4063 -2.5013  0.8005
 3040TIP3    H233316   3.133   6.926   1.732 -0.2027  0.8317  0.1933
 3041TIP3   OH233317   3.286   3.786   8.031  0.9429 -0.4567  0.2701
 3041TIP3    H133318   3.259   3.711   8.084 -1.6429  0.0346 -0.1996
 3041TIP3    H233319   3.347   3.834   8.087  1.7291 -2.2428  1.0300
 3042TIP3   OH233320   6.415   5.848   1.174 -0.5293 -0.4614 -0.1356
 3042TIP3    H133321   6.436   5.915   1.239 -1.5884 -1.1673  0.9766
 3042TIP3    H233322   6.500   5.818   1.141  0.0769 -0.7368  1.6026
 3043TIP3   OH233323   6.504   3.910   2.372  0.3394  0.1911 -0.1715
 3043TIP3    H133324   6.469   3.865   2.295 -0.0033 -0.7009  0.5005
 3043TIP3    H233325   6.598   3.908   2.360  0.2691  0.6760 -0.9055
 3044TIP3   OH233326   0.601   3.421   9.729 -0.8503 -0.0281 -0.1913
 3044TIP3    H133327   0.592   3.336   9.772 -0.9909  0.6196  1.0973
 3044TIP3    H233328   0.587   3.402   9.636 -1.6615 -1.2928  0.1639
 3045TIP3   OH233329   4.160   0.706   9.797 -0.1489  0.1347  0.3786
 3045TIP3    H133330   4.066   0.701   9.779  0.2012 -1.6327 -1.3648
 3045TIP3    H233331   4.170   0.658   9.880 -0.7606  0.1748  0.4834
 3046TIP3   OH233332   2.010   5.731   6.391 -0.1179  0.4694  0.2952
 3046TIP3    H133333   2.067   5.655   6.404  0.0425  0.7441  1.2496
 3046TIP3    H233334   1.931   5.712   6.443 -0.6982  0.3178 -0.6128
 3047TIP3   OH233335   4.037   5.446   2.226  0.4074 -0.2238  0.4316
 3047TIP3    H133336   3.977   5.378   2.194  0.2274 -0.4773  1.2843
 3047TIP3    H233337   3.986   5.494   2.292 -0.1344  1.9586 -1.4318
 3048TIP3   OH233338   1.699   5.074   6.162  0.4383  0.2426  0.2325
 3048TIP3    H133339   1.699   5.169   6.155 -0.3846  0.1951 -0.5246
 3048TIP3    H233340   1.607   5.050   6.169  0.6461 -0.4944  0.5316
 3049TIP3   OH233341   2.573   4.854   0.714  0.1357  0.3595 -0.9078
 3049TIP3    H133342   2.571   4.895   0.628  1.0874  0.8424 -0.7086
 3049TIP3    H233343   2.486   4.814   0.723 -1.3347  3.2647 -0.6812
 3050TIP3   OH233344   7.425   1.186   8.164 -0.3034 -0.1791 -0.4664
 3050TIP3    H133345   7.415   1.098   8.200 -0.6699  0.2259  0.4463
 3050TIP3    H233346   7.425   1.173   8.069 -0.4465 -1.1536 -0.3442
 3051TIP3   OH233347   5.278   6.772   0.195  0.3889  0.4145 -0.1951
 3051TIP3    H133348   5.259   6.740   0.107  2.5505 -1.4649 -0.0733
 3051TIP3    H233349   5.360   6.819   0.187  0.0027  1.2703  0.6383
 3052TIP3   OH233350   3.508   1.061   0.460 -0.0875  0.1343  0.6957
 3052TIP3    H133351   3.437   1.072   0.523 -0.3252 -1.1807  0.6838
 3052TIP3    H233352   3.588   1.063   0.513 -0.1074  1.7441  0.6928
 3053TIP3   OH233353   5.142   4.231   8.184  0.2284  0.3906  0.2697
 3053TIP3    H133354   5.162   4.137   8.186 -1.0095  0.1240  1.5446
 3053TIP3    H233355   5.207   4.267   8.124  1.9502 -0.9815  1.2020
 3054TIP3   OH233356   7.078   2.980   1.606 -0.2386 -0.3146 -0.1734
 3054TIP3    H133357   7.014   2.916   1.574  0.1987 -1.0762  0.4415
 3054TIP3    H233358   7.040   3.014   1.687 -0.8636  0.8569 -0.9206
 3055TIP3   OH233359   3.279   1.939   7.987  0.1302  0.2275 -0.4903
 3055TIP3    H133360   3.359   1.892   8.009  1.1948  1.3776 -1.7399
 3055TIP3    H233361   3.309   2.016   7.938 -1.6532  1.3804  0.1492
 3056TIP3   OH233362   3.123   1.270   2.416 -0.1222  0.3578  0.4931
 3056TIP3    H133363   3.030   1.294   2.413 -0.2012  0.3825  2.1238
 3056TIP3    H233364   3.125   1.178   2.391 -0.7309  0.0966  1.3374
 3057TIP3   OH233365   4.906   0.702   1.421 -0.0798 -0.2213  0.1594
 3057TIP3    H133366   4.838   0.756   1.382  0.4306 -0.0729 -0.5403
 3057TIP3    H233367   4.863   0.619   1.440 -0.7614  0.2714  0.8512
 3058TIP3   OH233368   7.438   1.348   8.852 -0.6461 -0.1423  0.0238
 3058TIP3    H133369   7.481   1.432   8.838 -0.9429 -0.2463 -1.7943
 3058TIP3    H233370   7.396   1.356   8.937 -1.4569  1.9040 -0.5097
 3059TIP3   OH233371   4.417   2.330   2.354 -0.0692  0.0929  0.0621
 3059TIP3    H133372   4.423   2.240   2.387  0.0292 -0.2504 -0.8674
 3059TIP3    H233373   4.504   2.349   2.320 -0.7099 -0.3594 -1.9538
 3060TIP3   OH233374   2.550   1.012   7.487  0.4317  0.1518  0.3581
 3060TIP3    H133375   2.645   1.003   7.485  0.4001 -0.6237  1.6602
 3060TIP3    H233376   2.517   0.927   7.458  0.0958  0.9710 -1.8625
 3061TIP3   OH233377   3.367   4.703   2.022 -0.6396  0.0255 -0.1046
 3061TIP3    H133378   3.287   4.662   1.988 -1.3555  0.9188  0.4455
 3061TIP3    H233379   3.344   4.796   2.029 -0.0615  0.0744  1.4865
 3062TIP3   OH233380   0.087   3.229   8.551  0.2119 -0.3780  0.1915
 3062TIP3    H133381   0.127   3.232   8.638  1.6619  0.7236 -0.4715
 3062TIP3    H233382   0.155   3.262   8.492 -1.4664  0.9893 -1.0843
 3063TIP3   OH233383   3.389   0.129   0.777  0.5567 -0.0128  0.4708
 3063TIP3    H133384   3.481   0.156   0.782  0.5209  0.5008 -1.2347
 3063TIP3    H233385   3.365   0.140   0.685 -0.8516 -1.3917  0.6301
 3064TIP3   OH233386   0.581   2.196   1.424 -0.1089  0.0889 -0.1100
 3064TIP3    H133387   0.569   2.125   1.487 -0.9837 -0.0384 -0.4034
 3064TIP3    H233388   0.640   2.160   1.358  1.5183  0.5095  1.0552
 3065TIP3   OH233389   0.031   6.454   1.652  0.4554 -0.4364  0.0371
 3065TIP3    H133390  -0.007   6.438   1.565 -0.8125 -2.1008  0.8435
 3065TIP3    H233391   0.013   6.547   1.669  0.6921 -0.0919 -1.4516
 3066TIP3   OH233392   7.101   2.343   1.565 -0.2365  0.8595  0.4592
 3066TIP3    H133393   7.063   2.282   1.629  1.0160 -0.4056  0.0659
 3066TIP3    H233394   7.161   2.397   1.616  0.4301  0.1455  0.4592
 3067TIP3   OH233395   6.221   4.723   0.143 -0.5953  0.2167 -0.3743
 3067TIP3    H133396   6.263   4.779   0.078 -0.6522 -0.2509 -0.8226
 3067TIP3    H233397   6.275   4.644   0.145 -0.7671  0.1061 -0.0786
 3068TIP3   OH233398   0.978   0.792   8.191  0.3770 -0.2192  0.5475
 3068TIP3    H133399   1.056   0.789   8.137  1.8225  0.6225  2.4802
 3068TIP3    H233400   0.914   0.841   8.138  1.5580  0.1703 -0.5602
 3069TIP3   OH233401   6.524   2.139   0.778 -0.1875  0.1458 -0.4994
 3069TIP3    H133402   6.434   2.170   0.791 -0.0321  0.7314 -0.8024
 3069TIP3    H233403   6.574   2.218   0.759  0.3760 -0.1921 -0.4296
 3070TIP3   OH233404   3.515   7.419   7.412 -0.8369 -0.0713 -0.7193
 3070TIP3    H133405   3.596   7.468   7.425 -0.6137 -0.3663 -0.9609
 3070TIP3    H233406   3.481   7.450   7.328 -1.7727  1.1388  0.0645
 3071TIP3   OH233407   5.832   1.834   1.742 -0.4628  0.2583  0.3304
 3071TIP3    H133408   5.789   1.882   1.672  1.0754  1.2411 -0.0052
 3071TIP3    H233409   5.853   1.901   1.808  1.8808  0.1674 -0.2308
 3072TIP3   OH233410   4.293   4.809   9.434  0.0766  0.3158 -0.2824
 3072TIP3    H133411   4.336   4.785   9.517 -2.6607 -0.7963  0.9465
 3072TIP3    H233412   4.311   4.735   9.376  2.1594  1.1796 -0.8225
 3073TIP3   OH233413   5.798   1.094   8.910  0.5031  0.2246  0.3181
 3073TIP3    H133414   5.732   1.084   8.841  0.2031  0.5414  0.5561
 3073TIP3    H233415   5.875   1.049   8.876  0.5218  0.8187 -0.4414
 3074TIP3   OH233416   0.360   2.374   1.399 -0.6613 -0.0723  0.2418
 3074TIP3    H133417   0.293   2.331   1.346 -1.3262  1.7316 -0.4582
 3074TIP3    H233418   0.437   2.319   1.389 -0.6020  0.4186 -3.0846
 3075TIP3   OH233419   4.619   7.333   8.697  0.5327  0.0151 -0.0108
 3075TIP3    H133420   4.536   7.307   8.737 -0.9182  1.6115 -1.7959
 3075TIP3    H233421   4.670   7.252   8.693  0.5471 -0.4131  4.2325
 3076TIP3   OH233422   1.406   1.000   7.418  0.2440 -0.0392  0.5224
 3076TIP3    H133423   1.358   0.925   7.453 -1.2440  1.2625  1.4222
 3076TIP3    H233424   1.382   1.002   7.325  0.6164 -0.8767  0.3938
 3077TIP3   OH233425   1.737   4.562   1.964  0.4923 -0.1370  0.0285
 3077TIP3    H133426   1.808   4.508   1.930  0.1467 -0.9804  0.6158
 3077TIP3    H233427   1.765   4.652   1.946  1.0521 -0.5013 -1.0020
 3078TIP3   OH233428   3.171   7.285   9.539 -0.2219  0.1426  0.3012
 3078TIP3    H133429   3.081   7.258   9.558 -0.7724  1.2055 -0.6428
 3078TIP3    H233430   3.164   7.379   9.521  0.9605  0.0985 -0.4573
 3079TIP3   OH233431   1.469   2.807   7.635  0.3800  0.2601 -0.3859
 3079TIP3    H133432   1.449   2.714   7.638  0.4047  0.2776  2.3891
 3079TIP3    H233433   1.560   2.811   7.606  1.1300 -0.7642  1.6486
 3080TIP3   OH233434   0.207   0.806   1.393 -0.1882  0.0276 -0.5298
 3080TIP3    H133435   0.265   0.730   1.381  1.1720  0.9624 -0.1483
 3080TIP3    H233436   0.218   0.857   1.312  0.5057  0.8399  0.0661
 3081TIP3   OH233437   0.866   2.937   0.759  0.8100 -0.9964  0.0085
 3081TIP3    H133438   0.915   3.002   0.710  1.0707 -0.6509  0.7092
 3081TIP3    H233439   0.836   2.874   0.694  0.8987 -0.3885 -0.6209
 3082TIP3   OH233440   2.475   4.415   1.013 -0.1962 -0.1757 -0.0686
 3082TIP3    H133441   2.421   4.341   1.039  0.0565 -0.0853  0.7233
 3082TIP3    H233442   2.563   4.392   1.042 -0.3458  1.0200  1.4430
 3083TIP3   OH233443   0.087   4.571   2.035 -0.0971 -0.0463 -1.0084
 3083TIP3    H133444   0.133   4.497   2.073  0.0004  0.3852 -0.2735
 3083TIP3    H233445   0.157   4.631   2.008 -0.2048  0.4281 -0.2591
 3084TIP3   OH233446   0.236   3.940   9.767 -0.8452 -0.1517  0.3820
 3084TIP3    H133447   0.238   4.032   9.793  1.2603 -0.0559  0.0381
 3084TIP3    H233448   0.327   3.910   9.775 -0.8024 -1.2636 -2.7927
 3085TIP3   OH233449   0.885   6.947   0.795  0.7612  0.8550  0.0216
 3085TIP3    H133450   0.969   6.967   0.836  0.7604  0.0499  0.4404
 3085TIP3    H233451   0.879   6.851   0.797 -0.8403  0.9349  1.3944
 3086TIP3   OH233452   4.565   1.270   9.661 -0.4438 -0.0547 -0.2273
 3086TIP3    H133453   4.631   1.339   9.668 -1.0096  0.9797 -3.4036
 3086TIP3    H233454   4.616   1.190   9.648  0.1894 -0.0432  1.8489
 3087TIP3   OH233455   3.465   1.501   0.056  0.1699 -0.4265 -0.1292
 3087TIP3    H133456   3.399   1.477   0.121  1.1158  0.0721  1.0409
 3087TIP3    H233457   3.413   1.534  -0.018 -0.8988  0.1784  0.8506
 3088TIP3   OH233458   3.915   3.653   8.626  0.0852  0.7194  0.2264
 3088TIP3    H133459   3.954   3.692   8.547 -0.3163  0.6944  0.0154
 3088TIP3    H233460   3.987   3.602   8.664 -0.4044 -1.5185 -1.5967
 3089TIP3   OH233461   0.084   2.080   7.999  0.0147 -0.0105 -0.2121
 3089TIP3    H133462   0.047   2.145   8.059  0.0925  0.5572 -0.7852
 3089TIP3    H233463   0.022   2.076   7.926 -1.7454 -2.8869  1.2145
 3090TIP3   OH233464   5.089   4.876   8.897 -0.1428 -0.5087  0.1602
 3090TIP3    H133465   5.157   4.824   8.853  0.9224  0.5710  0.4801
 3090TIP3    H233466   5.103   4.965   8.866 -2.4833 -0.4714 -1.0386
 3091TIP3   OH233467   2.032   2.757   9.543  0.1584 -0.0313 -0.1305
 3091TIP3    H133468   2.042   2.725   9.632 -0.7152  0.3428  0.1125
 3091TIP3    H233469   2.121   2.759   9.508  0.2396 -3.2689 -0.4037
 3092TIP3   OH233470   4.853   0.329   0.415 -0.0770 -0.0470  0.3073
 3092TIP3    H133471   4.934   0.291   0.380 -0.2594  0.6362 -0.9377
 3092TIP3    H233472   4.882   0.392   0.480  0.5214  1.3136 -1.2125
 3093TIP3   OH233473   3.269   1.318   8.715  0.1922 -0.4600  0.0766
 3093TIP3    H133474   3.249   1.263   8.790  0.5512 -0.5109  0.1362
 3093TIP3    H233475   3.205   1.293   8.649 -0.2403 -0.2868  0.4262
 3094TIP3   OH233476   0.863   7.438   1.079 -0.2078  0.1169 -0.1332
 3094TIP3    H133477   0.798   7.421   1.011 -0.5597  0.5834  0.0780
 3094TIP3    H233478   0.824   7.507   1.132  0.1362 -0.1324  0.4496
 3095TIP3   OH233479   5.181   2.557   9.703 -0.0902 -0.3370 -0.0787
 3095TIP3    H133480   5.089   2.569   9.727  0.3486  2.9369  0.3836
 3095TIP3    H233481   5.229   2.563   9.786  0.6993  0.7369 -0.5855
 3096TIP3   OH233482   2.447   2.028   9.977 -0.3161  0.0781  0.1967
 3096TIP3    H133483   2.417   1.982  10.056 -0.4131  0.2418  0.2552
 3096TIP3    H233484   2.512   2.090  10.009  1.2996 -1.3689 -0.1168
 3097TIP3   OH233485   5.821   3.803   9.321  0.0527  0.1001 -0.6264
 3097TIP3    H133486   5.843   3.713   9.297  1.9308  0.9047 -2.1574
 3097TIP3    H233487   5.728   3.811   9.299 -0.0666 -1.3454 -0.7758
 3098TIP3   OH233488   1.403   5.395   0.920 -0.3005  0.5879 -0.1011
 3098TIP3    H133489   1.361   5.406   0.835  0.3052  0.2373 -0.4485
 3098TIP3    H233490   1.344   5.337   0.969  0.5593 -1.3049 -1.1787
 3099TIP3   OH233491   6.986   6.486   8.526  0.2105 -0.2566 -0.1865
 3099TIP3    H133492   6.929   6.523   8.593  1.6449  0.5619  0.6410
 3099TIP3    H233493   7.073   6.487   8.566  1.2773  1.1228 -2.3362
 3100TIP3   OH233494   6.668   3.038   8.439 -0.3122 -0.0714  0.0356
 3100TIP3    H133495   6.714   3.027   8.356 -1.8247 -0.4661 -0.7867
 3100TIP3    H233496   6.735   3.024   8.505  1.2847  1.7399 -1.0938
 3101TIP3   OH233497   1.812   6.141   7.547  0.1865 -0.6539 -0.0777
 3101TIP3    H133498   1.752   6.112   7.616 -0.3898  0.1342 -0.2319
 3101TIP3    H233499   1.771   6.113   7.465 -0.2277  0.3144 -0.2103
 3102TIP3   OH233500   1.534   6.429   2.007 -0.1405  0.1364  0.6338
 3102TIP3    H133501   1.616   6.462   2.043  1.2266 -1.9966 -0.3081
 3102TIP3    H233502   1.541   6.446   1.913 -0.3838 -0.8216  0.4328
 3103TIP3   OH233503   2.740   0.708   1.278  0.0781  0.2086 -0.1497
 3103TIP3    H133504   2.822   0.752   1.304  1.0887 -0.3165 -2.2538
 3103TIP3    H233505   2.711   0.756   1.200 -0.9550 -0.4205 -0.1683
 3104TIP3   OH233506   0.301   0.864   0.250  0.0433  0.5176  0.1306
 3104TIP3    H133507   0.341   0.783   0.280 -0.1856  0.9822  1.8130
 3104TIP3    H233508   0.335   0.931   0.310 -0.4711  1.5199 -0.6563
 3105TIP3   OH233509   3.179   2.917   8.114 -0.1726 -0.0812 -0.4247
 3105TIP3    H133510   3.179   2.906   8.209 -0.6707  1.8259 -0.1684
 3105TIP3    H233511   3.132   2.999   8.099  2.1526  1.0480 -2.1431
 3106TIP3   OH233512   3.413   0.299   0.022  0.5665  0.2920  0.8713
 3106TIP3    H133513   3.482   0.275   0.083 -0.0157  1.6873  2.1399
 3106TIP3    H233514   3.372   0.376   0.061  0.5523  1.6231 -1.5614
 3107TIP3   OH233515   5.410   6.318   7.539 -0.0284  0.3049  0.2143
 3107TIP3    H133516   5.487   6.343   7.489  0.0660  1.9773  1.1286
 3107TIP3    H233517   5.409   6.222   7.536  1.3607  0.2980 -0.8468
 3108TIP3   OH233518   3.806   5.754   0.784 -0.2884  0.6910 -0.1267
 3108TIP3    H133519   3.797   5.691   0.713  0.5155 -0.5390  0.8342
 3108TIP3    H233520   3.899   5.754   0.805 -0.5729  0.6924  1.2277
 3109TIP3   OH233521   0.990   6.327   1.476 -0.0379  0.0367  0.4201
 3109TIP3    H133522   1.046   6.404   1.487 -2.1182  1.7451 -0.2995
 3109TIP3    H233523   0.987   6.312   1.382 -0.1179 -0.5920  0.5175
 3110TIP3   OH233524   3.268   2.406   1.062  0.0726  0.3594 -0.0694
 3110TIP3    H133525   3.183   2.409   1.018  0.1980  0.0941 -0.3387
 3110TIP3    H233526   3.295   2.314   1.055 -1.2526 -0.3918  3.1839
 3111TIP3   OH233527   6.731   5.094   9.761 -0.2651  0.0024 -0.4825
 3111TIP3    H133528   6.747   5.186   9.783  0.2350 -0.4854  1.3184
 3111TIP3    H233529   6.809   5.048   9.791 -1.5246 -1.3359  0.9061
 3112TIP3   OH233530   0.435   2.198   8.106  0.2831  0.3057 -0.5184
 3112TIP3    H133531   0.422   2.114   8.063 -2.1196  0.7411 -0.8152
 3112TIP3    H233532   0.461   2.257   8.035  0.8782  0.0544 -0.5127
 3113TIP3   OH233533   3.451   6.936   1.527  0.0518  0.2795  0.2376
 3113TIP3    H133534   3.468   6.953   1.619  0.1864  1.2682  0.0375
 3113TIP3    H233535   3.389   7.004   1.500  0.2851  0.2201 -0.4903
 3114TIP3   OH233536   0.787   7.046   7.240  0.0542 -0.0352 -0.1678
 3114TIP3    H133537   0.702   7.088   7.255 -0.5632 -0.6999 -1.5569
 3114TIP3    H233538   0.775   6.998   7.158  2.0053  0.4249 -0.7743
 3115TIP3   OH233539   3.789   6.370   2.280 -0.2310  0.2846  0.5470
 3115TIP3    H133540   3.843   6.353   2.357 -0.2134  1.4185  0.8029
 3115TIP3    H233541   3.703   6.334   2.302 -0.2480  0.6731  1.1359
 3116TIP3   OH233542   2.040   2.474   2.525 -0.2897 -0.4468 -0.5135
 3116TIP3    H133543   2.025   2.553   2.577 -1.0233 -0.8604 -0.0750
 3116TIP3    H233544   2.052   2.405   2.590 -1.2856 -0.9801 -0.8760
 3117TIP3   OH233545   0.740   1.555   6.876 -0.6241 -0.1101 -0.1364
 3117TIP3    H133546   0.755   1.498   6.952 -0.8759 -0.4502 -0.3367
 3117TIP3    H233547   0.827   1.579   6.847 -0.4299 -1.8590 -1.1429
 3118TIP3   OH233548   5.972   5.502   8.221 -0.1581 -0.5985 -0.8841
 3118TIP3    H133549   6.036   5.431   8.237  0.1196 -0.1540  0.0472
 3118TIP3    H233550   5.918   5.502   8.299  0.0747  0.4609 -0.7182
 3119TIP3   OH233551   5.575   2.345   9.261 -0.1405  0.5360  0.2451
 3119TIP3    H133552   5.592   2.377   9.172  0.1096  1.6683  0.6889
 3119TIP3    H233553   5.632   2.268   9.270  0.6137  1.0287 -0.2078
 3120TIP3   OH233554   3.602   7.319   8.122  0.5568 -0.1374  0.0610
 3120TIP3    H133555   3.564   7.362   8.045  0.0143 -1.4869 -0.4581
 3120TIP3    H233556   3.609   7.227   8.097  3.4113 -0.1172  0.4543
 3121TIP3   OH233557   2.558   3.962   1.129 -0.7519 -0.3508  0.7304
 3121TIP3    H133558   2.518   4.016   1.198 -2.3640 -1.0263  0.3779
 3121TIP3    H233559   2.614   3.900   1.176  0.1162  0.7949  1.2276
 3122TIP3   OH233560   4.910   1.332   7.553 -0.0542  0.0493 -0.4728
 3122TIP3    H133561   4.995   1.311   7.515  0.4589  1.3529 -0.0834
 3122TIP3    H233562   4.914   1.425   7.572 -1.3747  0.0198  0.0685
 3123TIP3   OH233563   4.762   1.159   1.287  0.6877 -0.7583  0.0651
 3123TIP3    H133564   4.768   1.191   1.377 -0.0353  0.6533 -0.3609
 3123TIP3    H233565   4.678   1.192   1.256  0.5117 -2.0075 -0.8467
 3124TIP3   OH233566   6.767   1.975   1.577 -0.4520 -0.2893  0.5244
 3124TIP3    H133567   6.827   1.959   1.503 -2.3068 -1.3838 -0.8259
 3124TIP3    H233568   6.686   2.005   1.536 -1.1755  0.1998  2.2297
 3125TIP3   OH233569   7.296   3.169   1.824 -0.1155  0.2552 -0.1464
 3125TIP3    H133570   7.272   3.177   1.917  0.6294  1.9745 -0.0744
 3125TIP3    H233571   7.306   3.259   1.794  1.5377 -0.3064 -1.4096
 3126TIP3   OH233572   2.984   2.274   8.123 -0.6837 -0.5418  0.2390
 3126TIP3    H133573   3.005   2.319   8.205  2.1694 -1.8997  0.3882
 3126TIP3    H233574   2.997   2.181   8.143  0.7737 -0.8659 -1.8815
 3127TIP3   OH233575   1.508   5.177   9.010 -0.7314  0.0117  0.8674
 3127TIP3    H133576   1.584   5.192   8.954 -0.2557 -3.8095  0.1876
 3127TIP3    H233577   1.434   5.208   8.959 -0.0219 -0.7592 -0.7150
 3128TIP3   OH233578   7.159   4.868   8.519 -0.5610 -0.3494 -0.3563
 3128TIP3    H133579   7.140   4.883   8.612 -0.1452 -2.9955  0.2360
 3128TIP3    H233580   7.250   4.898   8.508 -0.3915 -0.6200  0.2657
 3129TIP3   OH233581   6.671   5.376   0.076 -0.3835 -0.3054 -0.6642
 3129TIP3    H133582   6.667   5.331   0.161  2.4026 -0.5242 -0.5401
 3129TIP3    H233583   6.703   5.464   0.097 -1.8719  0.4374 -1.3191
 3130TIP3   OH233584   0.707   5.927   2.024  0.3316  0.4566  0.5629
 3130TIP3    H133585   0.687   5.835   2.005 -0.5108  0.2949  2.0828
 3130TIP3    H233586   0.711   5.969   1.938 -2.3534 -0.3805 -0.0715
 3131TIP3   OH233587   2.400   5.322   8.277 -0.5969  0.3733 -0.1256
 3131TIP3    H133588   2.355   5.397   8.315 -0.1835  1.3754 -1.5268
 3131TIP3    H233589   2.489   5.327   8.312 -0.8254 -0.0477  0.5390
 3132TIP3   OH233590   2.596   3.073   8.439 -0.2627  0.0875 -0.1231
 3132TIP3    H133591   2.540   3.129   8.493  0.6775  0.0596  0.8941
 3132TIP3    H233592   2.667   3.131   8.410  0.6553 -0.5124  0.8411
 3133TIP3   OH233593   6.090   3.265   9.813  0.0791  0.2839  0.0027
 3133TIP3    H133594   6.103   3.179   9.853 -0.3078 -0.5584 -1.5670
 3133TIP3    H233595   6.138   3.326   9.869 -1.1035 -0.6755  2.1501
 3134TIP3   OH233596   4.224   3.234   9.333  0.4151  0.1058 -0.1330
 3134TIP3    H133597   4.230   3.315   9.282  0.8418  0.0791 -0.1258
 3134TIP3    H233598   4.191   3.169   9.272 -1.1220  0.5648  0.1701
 3135TIP3   OH233599   3.421   6.858   9.986 -0.5074 -0.4465 -0.3079
 3135TIP3    H133600   3.431   6.890   9.896  1.0750  1.8958  0.5911
 3135TIP3    H233601   3.330   6.876  10.008 -1.5415 -3.0138 -2.0554
 3136TIP3   OH233602   2.098   4.901   7.520  0.1729  1.1563  0.2779
 3136TIP3    H133603   2.086   4.917   7.613  0.7557 -0.3986  0.6529
 3136TIP3    H233604   2.034   4.832   7.499  1.0488  0.4508 -0.1317
 3137TIP3   OH233605   0.210   3.369   7.238  0.8345  0.2608  0.4283
 3137TIP3    H133606   0.249   3.354   7.324  1.2818  0.7375  0.3191
 3137TIP3    H233607   0.165   3.287   7.217  3.8858 -1.3552 -0.5268
 3138TIP3   OH233608   5.780   0.068   8.505  0.0964  0.1056 -0.7282
 3138TIP3    H133609   5.795   0.118   8.425  0.6398 -0.1029 -0.7590
 3138TIP3    H233610   5.852   0.005   8.508 -0.3322 -0.3805 -0.4593
 3139TIP3   OH233611   0.274   5.183   8.061 -0.2122 -0.2495 -0.0293
 3139TIP3    H133612   0.204   5.234   8.101 -0.3182  0.4729 -1.0946
 3139TIP3    H233613   0.229   5.110   8.019 -0.2021 -0.4351  0.2791
 3140TIP3   OH233614   3.778   3.763   9.098 -0.5017 -0.9016 -0.2568
 3140TIP3    H133615   3.806   3.848   9.132  0.1567 -1.2743  0.1395
 3140TIP3    H233616   3.686   3.755   9.126  0.2526 -1.5654  2.2211
 3141TIP3   OH233617   4.012   2.386   7.611 -0.4070 -0.2738  0.6002
 3141TIP3    H133618   3.921   2.401   7.585  0.3595 -0.0358 -2.3146
 3141TIP3    H233619   4.059   2.373   7.528  2.4757  1.0197  1.8903
 3142TIP3   OH233620   1.406   0.016   2.316  1.1384  0.1144  0.2284
 3142TIP3    H133621   1.421  -0.058   2.375  1.7680 -0.2629 -0.3731
 3142TIP3    H233622   1.423   0.094   2.369  1.7450 -0.2193  0.5377
 3143TIP3   OH233623   1.490   2.816   1.769 -0.7152  0.4552  0.1008
 3143TIP3    H133624   1.579   2.846   1.786 -0.6291  0.9287 -1.0490
 3143TIP3    H233625   1.467   2.856   1.685 -2.9915  2.5309  1.5760
 3144TIP3   OH233626   1.646   4.046   9.721 -0.4528 -0.6147  0.3495
 3144TIP3    H133627   1.651   3.967   9.666 -0.6404  0.5208 -1.3894
 3144TIP3    H233628   1.562   4.086   9.697 -0.6660 -0.2129  1.6925
 3145TIP3   OH233629   7.121   6.229   1.958 -0.0346  0.5381 -0.4463
 3145TIP3    H133630   7.110   6.290   1.886 -1.8033  2.1347  1.0624
 3145TIP3    H233631   7.211   6.241   1.987 -0.2574  2.2406 -0.3759
 3146TIP3   OH233632   7.177   7.373   9.998 -0.1670 -0.2417 -0.3700
 3146TIP3    H133633   7.253   7.324  10.030  0.6128  1.2633  0.1568
 3146TIP3    H233634   7.105   7.345  10.056  0.4695 -0.0825  0.5266
 3147TIP3   OH233635   3.550   2.483   7.427 -0.4571 -0.1214  0.3766
 3147TIP3    H133636   3.537   2.572   7.396 -0.1364  0.0615  0.7523
 3147TIP3    H233637   3.524   2.427   7.354  0.0873  0.2921 -0.1368
 3148TIP3   OH233638   1.421   5.919   7.281  0.1464 -0.6520  0.0265
 3148TIP3    H133639   1.511   5.946   7.303  0.0595 -1.7903  1.9780
 3148TIP3    H233640   1.432   5.856   7.210  1.0765 -2.1121  1.4098
 3149TIP3   OH233641   7.064   5.432   0.064  0.1426 -0.3845  0.0175
 3149TIP3    H133642   7.023   5.348   0.041  0.0615 -0.4311  0.3344
 3149TIP3    H233643   7.066   5.433   0.159 -2.0098  1.0216  0.0971
 3150TIP3   OH233644   6.529   2.485   0.064 -0.0428  0.2096  0.0335
 3150TIP3    H133645   6.506   2.573   0.035  0.5090  0.4864  0.4368
 3150TIP3    H233646   6.624   2.481   0.056 -0.1614 -0.7755 -1.1937
 3151TIP3   OH233647   2.105   7.112   8.953  0.7457 -0.2253 -0.1243
 3151TIP3    H133648   2.121   7.062   9.034 -2.0848 -0.7270  0.2163
 3151TIP3    H233649   2.107   7.047   8.884  2.8669  0.1618 -0.4973
 3152TIP3   OH233650   7.291   2.249   2.168 -0.4223 -0.2354  0.3601
 3152TIP3    H133651   7.374   2.225   2.127  1.2665  0.3254  3.1585
 3152TIP3    H233652   7.272   2.178   2.230 -0.6586  0.8062  1.5417
 3153TIP3   OH233653   0.649   6.889   9.641  0.6254  0.1141  0.2761
 3153TIP3    H133654   0.565   6.900   9.686  0.1746 -2.5797  0.2374
 3153TIP3    H233655   0.712   6.938   9.696 -0.8192  1.6660  0.6301
 3154TIP3   OH233656   1.337   2.442   9.366  0.1932 -0.4054  0.4847
 3154TIP3    H133657   1.382   2.370   9.323 -0.3042 -1.1767  1.2332
 3154TIP3    H233658   1.406   2.491   9.410  0.5120 -0.5323  0.1308
 3155TIP3   OH233659   6.678   3.941   1.581 -0.1597 -0.3957  0.2192
 3155TIP3    H133660   6.723   3.985   1.653 -0.3159 -0.4791  0.3667
 3155TIP3    H233661   6.743   3.879   1.547  0.1707  0.1592 -0.1879
 3156TIP3   OH233662   0.996   3.437   0.010  0.0651 -0.0622  0.4581
 3156TIP3    H133663   0.974   3.411  -0.080  1.3266  0.9909 -0.1938
 3156TIP3    H233664   1.002   3.532   0.007  3.2377 -0.1375  0.8414
 3157TIP3   OH233665   2.343   0.138   7.515  0.5346  0.3343  0.2036
 3157TIP3    H133666   2.429   0.128   7.555  0.4878  0.3917  0.3197
 3157TIP3    H233667   2.290   0.179   7.583  0.2539 -0.2593  0.3509
 3158TIP3   OH233668   4.496   0.095   8.155 -0.1580  0.0908  0.0126
 3158TIP3    H133669   4.489   0.153   8.079  0.6931  1.8419  1.2078
 3158TIP3    H233670   4.576   0.044   8.138  0.6964  1.3148  0.2527
 3159TIP3   OH233671   5.133   6.698   7.625  0.2915  0.0446 -0.7365
 3159TIP3    H133672   5.057   6.753   7.643  1.3379  2.0136 -2.0049
 3159TIP3    H233673   5.191   6.711   7.700  1.1734  1.9175 -1.6834
 3160TIP3   OH233674   0.859   0.969   9.608  0.3704 -0.2245  0.4679
 3160TIP3    H133675   0.933   0.908   9.610  0.5054 -0.0561  0.6133
 3160TIP3    H233676   0.871   1.025   9.685 -0.5812 -0.9838  1.1968
 3161TIP3   OH233677   5.655   4.258   8.836 -0.5713  0.2627  0.9006
 3161TIP3    H133678   5.577   4.271   8.888 -1.9388 -0.4907 -0.8553
 3161TIP3    H233679   5.641   4.174   8.791  0.4583  0.9157 -0.7427
 3162TIP3   OH233680   5.499   3.444   9.937  0.0047  0.1546 -0.6195
 3162TIP3    H133681   5.571   3.506   9.948  0.3202 -0.4567  1.2052
 3162TIP3    H233682   5.432   3.493   9.889  1.2860  1.0073 -1.6170
 3163TIP3   OH233683   7.236   7.011   7.830  0.4819 -0.2435  0.0299
 3163TIP3    H133684   7.241   6.966   7.914  2.0574 -0.6460 -0.2493
 3163TIP3    H233685   7.146   7.044   7.826  0.1153 -0.9786  1.4641
 3164TIP3   OH233686   2.602   5.170   6.954  0.3030  0.1488  0.0206
 3164TIP3    H133687   2.537   5.174   7.024 -0.1253  0.7797 -0.4108
 3164TIP3    H233688   2.680   5.211   6.992  0.5985 -0.9644  0.6734
 3165TIP3   OH233689   6.348   1.812   0.888  0.1370  0.1362  0.3869
 3165TIP3    H133690   6.256   1.789   0.883  0.5650 -1.8038  0.3769
 3165TIP3    H233691   6.364   1.827   0.981  0.1647 -1.4387  0.6782
 3166TIP3   OH233692   4.725   3.528   1.652 -0.1172 -0.1769 -0.4027
 3166TIP3    H133693   4.643   3.479   1.657 -2.0352  2.7505 -0.5938
 3166TIP3    H233694   4.707   3.598   1.589  3.3729 -0.7415 -2.2529
 3167TIP3   OH233695   2.041   4.912   7.783 -0.1180 -0.8534 -0.0850
 3167TIP3    H133696   1.999   4.833   7.815  0.1409 -0.7741  0.4703
 3167TIP3    H233697   2.130   4.907   7.818 -0.9608  1.2104  2.7159
 3168TIP3   OH233698   1.246   2.507   9.634  0.3839  0.0017 -0.1675
 3168TIP3    H133699   1.329   2.464   9.615 -0.0506 -0.7462 -0.4536
 3168TIP3    H233700   1.232   2.567   9.561  0.8527  0.4133  0.0800
 3169TIP3   OH233701   2.926   6.837   8.882 -0.3836 -0.0686  0.0922
 3169TIP3    H133702   2.887   6.924   8.892 -1.3825 -0.5367  0.3839
 3169TIP3    H233703   2.879   6.782   8.945 -1.3257 -1.3226 -1.6035
 3170TIP3   OH233704   6.522   7.215   1.666 -0.0764 -0.6501  0.6111
 3170TIP3    H133705   6.451   7.165   1.627 -0.3061  0.2905 -0.2088
 3170TIP3    H233706   6.481   7.297   1.694  0.3527 -0.7765  1.6622
 3171TIP3   OH233707   5.680   1.594   8.667 -0.0692  0.1890  0.3368
 3171TIP3    H133708   5.661   1.579   8.575  0.9583 -0.8046  0.2653
 3171TIP3    H233709   5.616   1.541   8.714 -1.2068  1.4251  0.2432
 3172TIP3   OH233710   0.554   5.337   9.671  0.0304  0.1067 -0.2958
 3172TIP3    H133711   0.497   5.309   9.599 -2.9481  1.0781  1.4962
 3172TIP3    H233712   0.615   5.398   9.630 -1.3969  0.4509 -2.0817
 3173TIP3   OH233713   7.435   6.010   6.891 -0.4876  0.1903 -0.2866
 3173TIP3    H133714   7.460   5.952   6.819 -1.7312 -0.2211 -0.4109
 3173TIP3    H233715   7.514   6.017   6.945  0.0298 -0.6516 -0.9087
 3174TIP3   OH233716   3.574   1.446   2.119 -0.0234  0.3276 -0.0132
 3174TIP3    H133717   3.601   1.469   2.030  1.1442 -0.8997 -0.0118
 3174TIP3    H233718   3.503   1.507   2.139 -0.7165  0.2540 -2.0001
 3175TIP3   OH233719   2.147   6.362   0.367 -0.6375  0.0550 -0.1453
 3175TIP3    H133720   2.103   6.433   0.321  0.5017 -0.3798 -2.0057
 3175TIP3    H233721   2.081   6.329   0.429 -1.7927  1.4982 -0.5508
 3176TIP3   OH233722   2.069   5.279   2.504 -0.6602 -0.4226  0.6881
 3176TIP3    H133723   1.987   5.239   2.533 -1.1376 -0.4798 -0.6353
 3176TIP3    H233724   2.136   5.241   2.560 -1.3974 -1.2859  1.0055
 3177TIP3   OH233725   0.213   6.379   9.610 -0.4042 -0.5062 -0.1513
 3177TIP3    H133726   0.167   6.458   9.580 -0.7206  0.1103  1.8228
 3177TIP3    H233727   0.302   6.408   9.628 -0.5163 -0.5984  0.5667
 3178TIP3   OH233728   3.347   1.527   7.873  0.2814  0.1671  0.6063
 3178TIP3    H133729   3.420   1.569   7.825 -0.8790  1.1667 -0.3735
 3178TIP3    H233730   3.289   1.600   7.896 -1.3467 -0.7617 -0.3251
 3179TIP3   OH233731   4.142   6.416   9.402  0.5991  0.2262  0.0023
 3179TIP3    H133732   4.121   6.476   9.473 -0.5596  1.8817 -1.6507
 3179TIP3    H233733   4.216   6.457   9.357  1.0800 -0.6134  0.0086
 3180TIP3   OH233734   2.031   4.651   9.680  0.4566 -0.6067 -0.1018
 3180TIP3    H133735   1.966   4.616   9.741  1.7980  0.5402  2.0841
 3180TIP3    H233736   1.982   4.713   9.626 -0.6074 -1.0725  0.3061
 3181TIP3   OH233737   3.990   0.167   9.799  0.7610  0.2952  0.2848
 3181TIP3    H133738   3.999   0.080   9.762  3.1327  0.1172  1.1193
 3181TIP3    H233739   3.973   0.224   9.724  2.1341 -0.4910 -0.6649
 3182TIP3   OH233740   4.677   6.616   2.673  0.6315  0.0747  0.3698
 3182TIP3    H133741   4.725   6.541   2.708  0.0454 -0.0483  0.9274
 3182TIP3    H233742   4.745   6.676   2.641  1.0786 -1.1386 -1.0515
 3183TIP3   OH233743   2.708   7.375   8.126  0.1636 -0.1972  0.3613
 3183TIP3    H133744   2.772   7.436   8.090 -2.1953  1.2230 -1.8218
 3183TIP3    H233745   2.633   7.431   8.149 -1.8350 -2.1286 -1.0913
 3184TIP3   OH233746   1.027   4.780   9.328  0.7459  0.5221  0.4999
 3184TIP3    H133747   1.106   4.729   9.350  1.3339  1.5517  0.8290
 3184TIP3    H233748   0.961   4.749   9.390  0.8167 -0.5099  0.0793
 3185TIP3   OH233749   0.963   3.892   0.663 -0.1531 -0.2947 -0.1420
 3185TIP3    H133750   0.897   3.937   0.715  0.7659  0.5804  0.2888
 3185TIP3    H233751   0.912   3.836   0.604 -1.2513 -0.1804  0.6622
 3186TIP3   OH233752   2.205   2.837   0.384  0.0327  0.0365 -0.3146
 3186TIP3    H133753   2.138   2.899   0.410  0.2699  1.0005 -1.8365
 3186TIP3    H233754   2.157   2.765   0.342 -0.2461 -0.8954  1.5068
 3187TIP3   OH233755   2.101   5.906   2.062 -0.1810  0.0177  0.2405
 3187TIP3    H133756   2.139   5.846   2.126 -0.6205 -0.8915 -0.3219
 3187TIP3    H233757   2.040   5.851   2.012  1.0834  0.3679 -1.8017
 3188TIP3   OH233758   4.994   5.871   1.584 -0.1361  0.3811 -0.2835
 3188TIP3    H133759   4.994   5.799   1.647 -0.4215 -0.1629 -0.8931
 3188TIP3    H233760   4.981   5.949   1.637 -0.8288 -0.1046  0.2852
 3189TIP3   OH233761   4.425   3.364   8.620 -0.6619 -0.3825 -0.6645
 3189TIP3    H133762   4.391   3.291   8.672  0.9003  0.7606  2.1968
 3189TIP3    H233763   4.478   3.322   8.552 -2.0271 -1.9398 -0.8329
 3190TIP3   OH233764   2.085   0.297   1.080 -0.3223  0.8117 -0.3970
 3190TIP3    H133765   2.080   0.231   1.148  1.0441  1.5289  0.4465
 3190TIP3    H233766   2.020   0.363   1.105 -2.2143 -0.4860 -1.6319
 3191TIP3   OH233767   4.298   6.661   0.442  0.1565 -0.1146 -0.2213
 3191TIP3    H133768   4.355   6.636   0.369  0.3516  0.9520 -0.4412
 3191TIP3    H233769   4.256   6.741   0.413 -0.3217 -0.0823  0.5552
 3192TIP3   OH233770   4.625   0.757   0.900  0.3203  0.0510  0.0977
 3192TIP3    H133771   4.592   0.835   0.945 -1.4263 -0.6306  0.0927
 3192TIP3    H233772   4.591   0.684   0.952  0.2797 -0.7230 -0.9862
 3193TIP3   OH233773   4.497   3.778   2.106  0.5643 -0.1661 -0.1102
 3193TIP3    H133774   4.521   3.692   2.142  2.6333  0.6055  0.5204
 3193TIP3    H233775   4.532   3.841   2.170  0.0050  1.1642 -1.0738
 3194TIP3   OH233776   5.336   3.580   0.172 -0.4034  0.2690 -0.3322
 3194TIP3    H133777   5.392   3.508   0.145 -0.9177 -0.1249 -0.3720
 3194TIP3    H233778   5.395   3.642   0.214  0.2953  0.5274 -1.6221
 3195TIP3   OH233779   4.593   5.332   8.699 -0.4640 -0.7526 -0.1867
 3195TIP3    H133780   4.621   5.407   8.752  1.5640 -1.7634  0.2596
 3195TIP3    H233781   4.560   5.372   8.618  0.8227  0.6397 -0.0755
 3196TIP3   OH233782   3.889   3.903   9.774 -0.0026  0.2265  0.0839
 3196TIP3    H133783   3.984   3.908   9.768 -0.0650  0.0627 -1.2739
 3196TIP3    H233784   3.872   3.875   9.864  1.2674 -0.5454  0.1014
 3197TIP3   OH233785   3.138   4.548   9.623  0.4432  0.2410 -0.5317
 3197TIP3    H133786   3.051   4.532   9.660  0.3029  1.0399 -0.4884
 3197TIP3    H233787   3.157   4.639   9.646  1.0151  0.2690 -1.0945
 3198TIP3   OH233788   1.703   6.571   1.486  0.3155 -0.1137  0.5544
 3198TIP3    H133789   1.776   6.537   1.538  0.3120  0.1835  0.7611
 3198TIP3    H233790   1.729   6.558   1.395  1.3046  1.3547  0.5968
 3199TIP3   OH233791   2.718   7.121   9.153  0.8880 -0.0736  0.6009
 3199TIP3    H133792   2.777   7.061   9.201  0.9251 -0.1779  0.4252
 3199TIP3    H233793   2.741   7.108   9.061  1.0689  0.3946  0.5773
 3200TIP3   OH233794   4.006   0.668   8.831  0.7188  0.0353  0.5592
 3200TIP3    H133795   3.980   0.617   8.908 -0.2174 -0.0860  0.1718
 3200TIP3    H233796   4.018   0.602   8.762 -1.6334  0.3824 -0.2599
 3201TIP3   OH233797   5.938   6.362   8.066  0.1702  0.1408 -0.3172
 3201TIP3    H133798   5.977   6.429   8.010 -0.2907 -0.1980 -1.0563
 3201TIP3    H233799   5.982   6.281   8.040 -0.2355 -0.0610 -0.3676
 3202TIP3   OH233800   1.841   1.380   8.850 -0.6995 -0.3295  0.4456
 3202TIP3    H133801   1.911   1.331   8.807 -1.3892 -1.2775  0.3751
 3202TIP3    H233802   1.886   1.452   8.894  0.4247 -1.3343  1.0129
 3203TIP3   OH233803   6.652   0.288   9.949 -0.0283  0.2093  0.0919
 3203TIP3    H133804   6.638   0.266   9.857 -0.4601  0.4486  0.0935
 3203TIP3    H233805   6.564   0.309   9.982 -0.0595 -1.0123  0.8617
 3204TIP3   OH233806   0.836   0.853   0.047 -0.2230 -0.2017  0.3148
 3204TIP3    H133807   0.926   0.826   0.033  0.0999  0.3813  1.1567
 3204TIP3    H233808   0.821   0.922  -0.017 -0.6354 -1.4177 -0.9646
 3205TIP3   OH233809   4.618   6.219   0.310 -0.3037 -0.3932 -0.6921
 3205TIP3    H133810   4.568   6.291   0.271 -0.3965 -0.6083 -0.9706
 3205TIP3    H233811   4.552   6.151   0.326 -0.4867  0.1165  0.9084
 3206TIP3   OH233812   4.027   1.046   9.273 -0.0124 -0.0423 -0.2105
 3206TIP3    H133813   4.090   0.980   9.244 -0.7776  1.1430 -5.7091
 3206TIP3    H233814   4.073   1.129   9.263 -0.8750  0.5799  0.7984
 3207TIP3   OH233815   0.216   2.939   8.130 -0.1924 -0.0462  0.0216
 3207TIP3    H133816   0.153   2.955   8.200  0.7640  1.0884  0.6652
 3207TIP3    H233817   0.277   2.876   8.166 -0.4168 -0.4319 -0.2637
 3208TIP3   OH233818   3.771   3.315   8.501  0.0100  0.1289 -0.3637
 3208TIP3    H133819   3.717   3.247   8.542 -0.8445  1.8956  1.6323
 3208TIP3    H233820   3.715   3.351   8.432  0.0039 -0.4004 -0.6360
 3209TIP3   OH233821   3.664   6.986   8.483  0.4539  0.4979  0.4389
 3209TIP3    H133822   3.727   7.024   8.422  0.1909  0.8167  0.3565
 3209TIP3    H233823   3.704   6.905   8.513  0.1443 -0.1845 -0.9470
 3210TIP3   OH233824   6.977   0.580   0.769 -0.2286 -0.6990  0.0501
 3210TIP3    H133825   6.996   0.606   0.678 -1.1093 -0.4304 -0.0718
 3210TIP3    H233826   6.919   0.504   0.760  0.5384 -1.3397  0.4042
 3211TIP3   OH233827   5.924   1.011   9.983  0.7210  0.2524 -0.0738
 3211TIP3    H133828   5.986   1.074   9.947 -0.4857  1.5694  0.0589
 3211TIP3    H233829   5.969   0.972  10.057  1.4613  1.0376 -0.1025
 3212TIP3   OH233830   3.805   7.060   0.908 -0.1325  0.0992  0.0335
 3212TIP3    H133831   3.756   7.093   0.984 -0.8742 -1.4650  0.2822
 3212TIP3    H233832   3.880   7.119   0.901 -0.2523  0.5341  1.7466
 3213TIP3   OH233833   5.391   2.088   1.483  0.5684  0.1378  0.2878
 3213TIP3    H133834   5.409   1.997   1.461  0.7022  0.5773 -1.6297
 3213TIP3    H233835   5.306   2.106   1.442 -0.5099  0.3159  2.4651
 3214TIP3   OH233836   2.348   7.274   8.952  0.2986  0.4630 -0.4021
 3214TIP3    H133837   2.261   7.234   8.947  0.2965  0.6050 -1.7960
 3214TIP3    H233838   2.402   7.221   8.893  1.6546 -0.7599  1.8020
 3215TIP3   OH233839   7.358   4.323   7.137  0.2071  0.2440  0.7751
 3215TIP3    H133840   7.412   4.343   7.061  2.1781  1.3510  2.3775
 3215TIP3    H233841   7.420   4.314   7.210 -1.6902  0.8801  2.5923
 3216TIP3   OH233842   7.438   5.232   9.671 -0.0774 -0.5223 -0.0786
 3216TIP3    H133843   7.419   5.220   9.578 -0.7699 -0.5919  0.0617
 3216TIP3    H233844   7.353   5.253   9.709 -0.0070 -1.6208  0.7196
 3217TIP3   OH233845   0.869   2.280   1.198 -0.2339  0.1468 -0.1793
 3217TIP3    H133846   0.869   2.195   1.242  1.7791  0.0480 -0.2675
 3217TIP3    H233847   0.960   2.293   1.171 -0.6363  2.0221 -0.7932
 3218TIP3   OH233848   3.822   7.321   0.235  0.1797 -0.4565  0.0158
 3218TIP3    H133849   3.759   7.387   0.263  0.3959 -0.7027  1.1053
 3218TIP3    H233850   3.898   7.372   0.204 -0.2740 -0.1782 -0.6686
 3219TIP3   OH233851   2.749   1.814   6.812 -0.3015 -0.1081  0.1338
 3219TIP3    H133852   2.716   1.896   6.848 -0.1867  0.8584 -1.7918
 3219TIP3    H233853   2.830   1.839   6.766 -0.1021 -1.3495 -0.2314
 3220TIP3   OH233854   2.766   3.060   1.233  0.3334 -0.3842  0.2840
 3220TIP3    H133855   2.769   2.995   1.303 -0.0339 -1.9260 -1.0696
 3220TIP3    H233856   2.673   3.078   1.221  0.4054 -0.0076  0.2880
 3221TIP3   OH233857   2.385   7.075   0.098 -0.0515 -0.2079  0.3296
 3221TIP3    H133858   2.452   7.074   0.167  0.1730 -1.0974  0.1134
 3221TIP3    H233859   2.351   6.986   0.097 -2.0136  0.4643  1.1581
 3222TIP3   OH233860   0.572   4.137   7.974  0.1096  0.0313  0.0083
 3222TIP3    H133861   0.594   4.162   8.063  0.4800 -0.2538  0.0003
 3222TIP3    H233862   0.477   4.142   7.970  0.1907  1.9374 -0.1543
 3223TIP3   OH233863   2.369   6.695   2.670  0.4600 -0.0983 -0.5120
 3223TIP3    H133864   2.429   6.705   2.744  1.8135 -1.9028 -1.3180
 3223TIP3    H233865   2.393   6.766   2.610 -0.0506  0.8174  0.3163
 3224TIP3   OH233866   2.762   3.769   7.922 -0.4062  0.3240 -0.1827
 3224TIP3    H133867   2.693   3.828   7.951 -1.5975 -1.3328  0.4811
 3224TIP3    H233868   2.816   3.755   8.001  1.6664  2.7500 -1.0213
 3225TIP3   OH233869   0.589   1.737   7.434  0.1275 -0.4099 -0.3370
 3225TIP3    H133870   0.654   1.800   7.465  0.1656  0.2658 -1.6976
 3225TIP3    H233871   0.518   1.791   7.400  0.3984 -1.0589 -2.0249
 3226TIP3   OH233872   7.122   5.775   9.262 -0.3113  0.1081 -0.2969
 3226TIP3    H133873   7.042   5.772   9.210 -0.7966 -1.4269  0.4974
 3226TIP3    H233874   7.183   5.717   9.216 -0.9231 -1.7080  1.0492
 3227TIP3   OH233875   4.456   3.196   8.409  0.1030 -0.3349  0.2451
 3227TIP3    H133876   4.368   3.221   8.380  0.4011 -1.1456 -1.4276
 3227TIP3    H233877   4.514   3.231   8.342  0.9323 -1.2493  0.4741
 3228TIP3   OH233878   1.293   4.404   1.592 -0.8187  0.3687 -0.4002
 3228TIP3    H133879   1.208   4.368   1.568 -1.9327  2.4130  0.1875
 3228TIP3    H233880   1.284   4.498   1.578  1.1812  0.7027  0.1905
 3229TIP3   OH233881   2.283   4.648   7.376 -0.4581 -0.0844 -1.5124
 3229TIP3    H133882   2.235   4.649   7.459  0.0944 -1.1557 -1.1540
 3229TIP3    H233883   2.217   4.667   7.309 -0.8570  1.0646 -0.8174
 3230TIP3   OH233884   1.350   4.810   7.923 -0.0995  0.4850 -1.0105
 3230TIP3    H133885   1.393   4.736   7.879  1.4414  1.6883 -1.5981
 3230TIP3    H233886   1.422   4.867   7.950 -1.1752  1.0365  0.8252
 3231TIP3   OH233887   5.503   2.701   8.398 -0.2947  0.7302 -0.0171
 3231TIP3    H133888   5.521   2.791   8.424  0.8023  0.9370 -1.3951
 3231TIP3    H233889   5.582   2.652   8.422 -1.4125 -0.2205  2.0477
 3232TIP3   OH233890   5.860   1.181   1.371  0.1181 -0.2484 -0.4633
 3232TIP3    H133891   5.900   1.208   1.289 -1.7026  0.4127 -1.1788
 3232TIP3    H233892   5.804   1.106   1.347  1.0464 -1.2995  0.5427
 3233TIP3   OH233893   5.523   6.834   0.882 -0.1883 -0.0787 -0.3434
 3233TIP3    H133894   5.537   6.913   0.936 -2.3313  1.1757 -1.4875
 3233TIP3    H233895   5.588   6.841   0.812  1.5816 -0.9129  1.1456
 3234TIP3   OH233896   3.666   4.254   0.425 -0.2007  0.3667  0.0999
 3234TIP3    H133897   3.633   4.212   0.504  0.8205  2.2917  1.6091
 3234TIP3    H233898   3.691   4.181   0.368  0.3226 -1.0744  2.0781
 3235TIP3   OH233899   6.653   4.586   7.561 -0.2743 -0.4495 -0.2298
 3235TIP3    H133900   6.614   4.515   7.510 -0.3407 -0.2757 -0.4235
 3235TIP3    H233901   6.742   4.593   7.528 -0.1236 -0.7435  0.1050
 3236TIP3   OH233902   3.617   3.569   9.731  0.0682  0.1298 -0.0805
 3236TIP3    H133903   3.583   3.480   9.724 -1.7902  0.9133 -2.6905
 3236TIP3    H233904   3.549   3.618   9.777  0.3872  0.4901  0.0186
 3237TIP3   OH233905   0.711   2.021   2.936 -0.0351 -0.1173 -0.3979
 3237TIP3    H133906   0.667   2.097   2.898  0.1467 -0.0291 -0.4350
 3237TIP3    H233907   0.804   2.037   2.920  0.1024  0.2372  0.6443
 3238TIP3   OH233908   4.214   4.285   0.158  0.1435 -0.2205 -0.2362
 3238TIP3    H133909   4.215   4.190   0.161 -0.8839 -0.3036 -1.6530
 3238TIP3    H233910   4.122   4.310   0.168  0.2002  0.5308 -1.3397
 3239TIP3   OH233911   4.333   5.794   9.211  0.1738 -0.3380  0.9496
 3239TIP3    H133912   4.375   5.848   9.144 -1.1716  0.4018  0.6751
 3239TIP3    H233913   4.399   5.728   9.233  2.0150  1.5522  1.5039
 3240TIP3   OH233914   0.717   3.245   8.754  0.1804  0.0279 -0.3829
 3240TIP3    H133915   0.660   3.215   8.825 -0.9016  1.1894 -0.7126
 3240TIP3    H233916   0.699   3.185   8.681 -0.1898  0.0233 -0.2901
 3241TIP3   OH233917   3.283   0.888   8.013  0.2263 -0.0116 -0.1268
 3241TIP3    H133918   3.239   0.899   8.098 -2.8739 -2.0782 -1.3080
 3241TIP3    H233919   3.345   0.816   8.028  0.7816  0.6017  0.6792
 3242TIP3   OH233920   4.039   6.750   2.460  0.2929 -0.2226  0.1105
 3242TIP3    H133921   3.990   6.778   2.537  1.5268 -0.8317  1.1579
 3242TIP3    H233922   4.130   6.772   2.481  0.6127 -0.0571 -1.3436
 3243TIP3   OH233923   6.497   6.164   0.870  0.5446  0.2450 -0.3775
 3243TIP3    H133924   6.448   6.083   0.884  0.1218  0.3618 -1.1594
 3243TIP3    H233925   6.457   6.204   0.793  2.0671  0.1778 -1.2501
 3244TIP3   OH233926   2.597   2.421   1.363  0.1083 -0.7254 -0.2841
 3244TIP3    H133927   2.572   2.360   1.294 -0.8717  1.3232 -1.8546
 3244TIP3    H233928   2.678   2.461   1.331 -0.0269 -0.1846  0.0340
 3245TIP3   OH233929   3.417   4.040   0.973  0.1642  0.2825 -0.2132
 3245TIP3    H133930   3.411   4.131   1.000 -1.7486 -0.1742  1.1019
 3245TIP3    H233931   3.436   3.992   1.054 -0.0519 -0.5864 -0.6608
 3246TIP3   OH233932   3.959   3.215   8.276  0.3948 -0.2012  0.3570
 3246TIP3    H133933   3.883   3.244   8.328 -0.4812  2.2640 -2.0053
 3246TIP3    H233934   3.920   3.182   8.194  1.8047  0.0314 -0.4346
 3247TIP3   OH233935   2.662   4.294   8.628 -0.1909 -0.4736 -0.0001
 3247TIP3    H133936   2.702   4.304   8.542  0.2589 -0.2239  0.2398
 3247TIP3    H233937   2.710   4.354   8.685 -0.1497 -1.0069  0.5383
 3248TIP3   OH233938   4.563   4.034   1.766  1.2299 -0.2565 -0.3448
 3248TIP3    H133939   4.581   3.949   1.804  0.8433  0.0794  0.6329
 3248TIP3    H233940   4.640   4.055   1.714  1.9456 -0.5590  0.5843
 3249TIP3   OH233941   2.354   2.160   9.272 -0.3962  0.1505 -0.5918
 3249TIP3    H133942   2.442   2.171   9.309 -1.0997 -0.7495  1.4934
 3249TIP3    H233943   2.355   2.212   9.192  2.7740 -1.6507 -1.9191
 3250TIP3   OH233944   7.310   6.277   1.466 -0.5437  0.0307 -1.0085
 3250TIP3    H133945   7.282   6.321   1.386 -1.6180 -0.5668 -0.9783
 3250TIP3    H233946   7.232   6.275   1.521  0.0009 -0.1895 -0.2262
 3251TIP3   OH233947   5.461   0.341   9.572 -0.2260 -1.0028 -0.0097
 3251TIP3    H133948   5.441   0.342   9.478  1.3717  2.9887 -0.4994
 3251TIP3    H233949   5.555   0.324   9.576 -0.1042 -0.2341  0.7547
 3252TIP3   OH233950   5.164   3.904   1.028 -0.1113  0.7841 -0.3619
 3252TIP3    H133951   5.091   3.843   1.013 -1.6422  1.9877  1.5646
 3252TIP3    H233952   5.159   3.924   1.122  0.2601  3.8533 -0.8805
 3253TIP3   OH233953   4.066   6.225   9.674 -0.0424  0.0981  0.6066
 3253TIP3    H133954   4.090   6.188   9.589 -1.0409  1.0049 -0.0792
 3253TIP3    H233955   4.033   6.312   9.655 -0.9718  0.0438  1.8517
 3254TIP3   OH233956   0.871   4.304   7.319 -0.1986 -0.2346 -0.6405
 3254TIP3    H133957   0.930   4.284   7.391 -0.4603 -0.2045 -0.4174
 3254TIP3    H233958   0.816   4.226   7.310  0.0994 -0.4018 -1.0740
 3255TIP3   OH233959   2.818   4.466   9.262 -0.2446 -0.7122 -0.2022
 3255TIP3    H133960   2.754   4.534   9.239 -0.5094 -0.2049  1.7920
 3255TIP3    H233961   2.885   4.472   9.195 -0.3777  1.3977 -0.2101
 3256TIP3   OH233962   3.128   6.126   2.332  1.0101  0.0521 -0.5815
 3256TIP3    H133963   3.118   6.116   2.237  0.2645 -0.3976 -0.4650
 3256TIP3    H233964   3.123   6.221   2.347 -0.2524  0.0518 -0.8644
 3257TIP3   OH233965   5.076   2.039   9.097  0.1853  0.4751  0.0440
 3257TIP3    H133966   4.994   2.049   9.050 -0.9982  1.4410  2.1621
 3257TIP3    H233967   5.125   1.973   9.047 -3.1362 -2.5278  0.3714
 3258TIP3   OH233968   6.761   0.056   7.554  0.7484  0.3332 -0.3921
 3258TIP3    H133969   6.854   0.074   7.563  1.4397 -0.5556 -4.1845
 3258TIP3    H233970   6.753   0.005   7.473 -3.0328  0.4293 -0.2832
 3259TIP3   OH233971   3.821   2.318   7.922 -0.4825 -0.1326 -0.2487
 3259TIP3    H133972   3.796   2.226   7.918 -0.3054 -0.2360  0.6275
 3259TIP3    H233973   3.740   2.366   7.909 -0.7498 -0.4308  0.2920
 3260TIP3   OH233974   6.057   4.256   8.933 -0.2933  0.0069 -0.0652
 3260TIP3    H133975   5.978   4.236   8.983 -0.3766  2.5247  0.9584
 3260TIP3    H233976   6.036   4.338   8.887  1.6482  0.6682  0.1464
 3261TIP3   OH233977   3.588   7.433   1.741  0.4447 -0.0329 -0.6325
 3261TIP3    H133978   3.681   7.424   1.764  0.0988 -0.2105  0.7563
 3261TIP3    H233979   3.550   7.481   1.814 -0.3179  1.2460 -1.8242
 3262TIP3   OH233980   5.105   0.764   1.900 -0.7510  0.0926 -0.1628
 3262TIP3    H133981   5.018   0.783   1.934 -1.5282 -0.9112 -1.5184
 3262TIP3    H233982   5.161   0.766   1.978 -2.1557 -0.3383  0.9050
 3263TIP3   OH233983   5.293   3.205   9.620 -0.5283 -0.1202 -0.7136
 3263TIP3    H133984   5.284   3.233   9.711 -0.2592 -0.8276 -0.4613
 3263TIP3    H233985   5.350   3.128   9.625  0.6589  0.6674 -1.6331
 3264TIP3   OH233986   2.556   6.331   8.715 -0.3033  0.6490 -0.1139
 3264TIP3    H133987   2.650   6.316   8.726 -0.6869 -1.3613  0.9660
 3264TIP3    H233988   2.537   6.301   8.626 -0.3648 -1.8746  0.6761
 3265TIP3   OH233989   4.414   5.168   0.148  0.5880  0.6541 -0.2437
 3265TIP3    H133990   4.386   5.249   0.191  0.5828  1.2791 -1.3914
 3265TIP3    H233991   4.374   5.171   0.061  0.5500 -0.6116 -0.2931
 3266TIP3   OH233992   3.840   2.883   8.291 -0.1976 -0.0885 -0.0666
 3266TIP3    H133993   3.838   2.793   8.257  0.0373 -0.3976  0.7297
 3266TIP3    H233994   3.921   2.920   8.256 -0.1300 -0.2885 -0.1230
 3267TIP3   OH233995   5.811   2.162   9.297  0.1681 -0.3677 -0.4812
 3267TIP3    H133996   5.873   2.182   9.367 -0.8853 -0.3757  0.4846
 3267TIP3    H233997   5.781   2.073   9.316  0.0762 -0.4743 -1.0954
 3268TIP3   OH233998   5.765   4.931   9.092  0.5324  0.7749 -0.1954
 3268TIP3    H133999   5.676   4.896   9.089  0.2245  1.5128  0.0273
 3268TIP3    H234000   5.767   4.984   9.173  0.5127  2.4331 -1.2279
 3269TIP3   OH234001   1.600   4.656   0.386  0.2694  0.1895  0.1388
 3269TIP3    H134002   1.658   4.724   0.352 -0.0700  0.9871  1.0965
 3269TIP3    H234003   1.606   4.666   0.482 -0.6241 -0.4076  0.2628
 3270TIP3   OH234004   5.090   1.270   0.993  0.2631  0.2997 -0.1352
 3270TIP3    H134005   5.013   1.285   0.938  0.8662 -0.7549 -1.2959
 3270TIP3    H234006   5.054   1.241   1.077 -0.6566  1.7077 -0.0147
 3271TIP3   OH234007   4.716   1.503   9.627 -0.2232 -0.1349  0.0776
 3271TIP3    H134008   4.787   1.495   9.564 -0.5133  0.1291 -0.2891
 3271TIP3    H234009   4.759   1.515   9.712  0.1685 -0.4418 -0.0795
 3272TIP3   OH234010   1.781   4.089   1.434 -0.1647  0.0608  0.2041
 3272TIP3    H134011   1.862   4.139   1.430 -1.0481  1.5511  0.0471
 3272TIP3    H234012   1.724   4.140   1.493 -1.5147 -0.1235 -0.8848
 3273TIP3   OH234013   4.287   0.567   9.120 -0.0772 -0.1083 -0.1465
 3273TIP3    H134014   4.261   0.524   9.039  1.5768  0.1292 -0.8426
 3273TIP3    H234015   4.341   0.502   9.165  1.2043  0.6908 -0.5045
 3274TIP3   OH234016   2.100   3.291   8.383 -0.1667 -0.2719  0.5230
 3274TIP3    H134017   2.115   3.209   8.336  0.3739 -0.3506  0.8249
 3274TIP3    H234018   2.008   3.286   8.411 -0.1745 -0.7159  0.4226
 3275TIP3   OH234019   4.407   0.951   0.815  0.7525 -0.1540 -0.5847
 3275TIP3    H134020   4.402   0.884   0.747 -0.0753 -1.7046  0.9157
 3275TIP3    H234021   4.357   0.915   0.889  0.8222  1.8445  0.5364
 3276TIP3   OH234022   2.348   5.856   9.068 -0.1704  1.1451  0.2090
 3276TIP3    H134023   2.285   5.784   9.066  0.7221  0.3684 -0.3158
 3276TIP3    H234024   2.309   5.923   9.013  0.4786 -0.2163 -2.0251
 3277TIP3   OH234025   3.591   4.352   6.728 -0.2423 -0.3104 -0.0894
 3277TIP3    H134026   3.506   4.371   6.769  0.6206  2.1079  0.7360
 3277TIP3    H234027   3.656   4.386   6.789  1.2797 -0.6533 -1.4379
 3278TIP3   OH234028   1.658   0.932   1.360 -0.2319 -0.2335  0.7700
 3278TIP3    H134029   1.609   0.850   1.373 -1.6724  0.2222 -1.1880
 3278TIP3    H234030   1.712   0.915   1.283 -1.1632  0.8783 -0.1629
 3279TIP3   OH234031   0.738   0.702   0.482  0.0835 -0.1593  0.3658
 3279TIP3    H134032   0.735   0.779   0.425  0.1358 -0.8055 -0.5285
 3279TIP3    H234033   0.768   0.736   0.567  0.7053  0.7028 -0.1855
 3280TIP3   OH234034   1.545   6.774   1.563  0.3411  0.4672 -0.9037
 3280TIP3    H134035   1.586   6.705   1.511 -1.2652  0.3379 -2.0807
 3280TIP3    H234036   1.592   6.853   1.540  2.0993 -0.1511  0.3368
 3281TIP3   OH234037   7.339   2.802   0.921  0.6113 -0.3907 -0.1705
 3281TIP3    H134038   7.396   2.776   0.849  0.9835  0.2443 -0.1227
 3281TIP3    H234039   7.252   2.773   0.896  1.1559 -2.7710  0.4416
 3282TIP3   OH234040   0.558   3.666   2.166  0.0051 -0.0767 -0.2287
 3282TIP3    H134041   0.555   3.702   2.077 -1.3898 -0.5954 -0.4133
 3282TIP3    H234042   0.471   3.628   2.180 -0.0256  0.5448  1.5877
 3283TIP3   OH234043   5.248   5.904   2.050  0.2849 -0.0024 -0.0696
 3283TIP3    H134044   5.276   5.813   2.047  1.1908  0.1658  1.8096
 3283TIP3    H234045   5.154   5.901   2.031  0.3237 -1.2907 -0.1452
 3284TIP3   OH234046   0.293   5.510   8.496 -0.4633 -0.0400  0.0205
 3284TIP3    H134047   0.273   5.447   8.565  0.9925  0.0020  0.5236
 3284TIP3    H234048   0.216   5.509   8.439 -1.1323 -1.0695  0.8999
 3285TIP3   OH234049   1.645   1.318   9.765  0.0259  0.2784  0.3542
 3285TIP3    H134050   1.688   1.236   9.741  0.1865  0.3587  0.3611
 3285TIP3    H234051   1.563   1.318   9.716 -0.2217 -0.1308  0.7540
 3286TIP3   OH234052   7.424   3.088   9.275  0.3476  0.0149  0.1743
 3286TIP3    H134053   7.349   3.029   9.268  0.8243 -0.6330  0.4015
 3286TIP3    H234054   7.423   3.117   9.366  0.1020  0.3833  0.0588
 3287TIP3   OH234055   2.911   6.233   0.951  0.5276 -0.4587 -0.2943
 3287TIP3    H134056   2.983   6.181   0.916  0.7910 -0.5538  0.3699
 3287TIP3    H234057   2.938   6.253   1.041  0.4794  0.8962 -0.5578
 3288TIP3   OH234058   5.673   3.015   8.066  0.1812  0.1061 -0.3080
 3288TIP3    H134059   5.616   2.938   8.069 -0.5880  0.6464 -0.7912
 3288TIP3    H234060   5.619   3.084   8.027  0.7384  0.9902  0.4239
 3289TIP3   OH234061   3.470   2.293   0.468  0.4485  0.2454 -0.3156
 3289TIP3    H134062   3.556   2.285   0.510  0.8065 -0.7349 -1.2066
 3289TIP3    H234063   3.409   2.307   0.541  0.8103 -3.0587  0.7712
 3290TIP3   OH234064   2.536   1.641   7.798 -0.1198  0.2531 -0.3061
 3290TIP3    H134065   2.576   1.566   7.755 -1.9692 -0.6034 -0.5999
 3290TIP3    H234066   2.556   1.629   7.891 -1.0726 -1.0634 -0.2486
 3291TIP3   OH234067   0.259   5.090   8.525  0.4610 -0.1363 -0.2710
 3291TIP3    H134068   0.346   5.052   8.515  0.2917 -0.3018 -1.1946
 3291TIP3    H234069   0.213   5.030   8.583  0.4687 -0.9021 -1.0365
 3292TIP3   OH234070   4.178   6.052   9.870 -0.4033  0.4781 -0.8541
 3292TIP3    H134071   4.151   6.126   9.815 -0.8521  0.0720 -1.1834
 3292TIP3    H234072   4.151   5.974   9.821  0.6319  0.0737 -0.8058
 3293TIP3   OH234073   3.909   5.604   2.403  0.3700  0.0195 -0.4430
 3293TIP3    H134074   3.885   5.629   2.492 -1.1778 -0.4544 -0.6923
 3293TIP3    H234075   3.894   5.683   2.351 -0.8160 -0.2876 -0.6058
 3294TIP3   OH234076   5.122   4.735   9.139  0.0015  0.3714  0.1567
 3294TIP3    H134077   5.168   4.809   9.179  1.3180  0.7199 -1.8579
 3294TIP3    H234078   5.108   4.761   9.048 -0.6617 -1.3545 -0.2857
 3295TIP3   OH234079   4.398   0.613   0.247  0.2791 -0.0553 -0.5674
 3295TIP3    H134080   4.480   0.661   0.257  0.1180 -0.0543  1.1125
 3295TIP3    H234081   4.406   0.539   0.307 -0.9439 -0.0487 -0.3610
 3296TIP3   OH234082   2.480   5.685   0.956 -0.7150  0.1424  0.7915
 3296TIP3    H134083   2.405   5.645   1.001 -0.9281  1.6025  1.8097
 3296TIP3    H234084   2.444   5.761   0.911  0.0541  0.5499  0.8383
 3297TIP3   OH234085   5.038   5.864   9.299 -0.4670  0.3228 -0.0762
 3297TIP3    H134086   4.993   5.914   9.367 -0.0658  0.8335 -0.1782
 3297TIP3    H234087   5.129   5.894   9.304 -0.3871  0.1860 -0.6756
 3298TIP3   OH234088   0.343   1.796   0.433  0.0020 -0.0306  0.0114
 3298TIP3    H134089   0.354   1.869   0.494 -3.2811  0.2488  0.4572
 3298TIP3    H234090   0.377   1.829   0.350  0.7733  1.1109  0.7489
 3299TIP3   OH234091   6.831   5.328   2.029  0.2751  0.4193 -0.3741
 3299TIP3    H134092   6.857   5.393   1.964  0.2849 -1.0598 -1.9032
 3299TIP3    H234093   6.905   5.267   2.035  1.1347  1.5575  2.5409
 3300TIP3   OH234094   5.476   6.344   9.187 -0.2179  0.3892  0.0046
 3300TIP3    H134095   5.484   6.340   9.091  0.7320 -1.0102  0.1091
 3300TIP3    H234096   5.566   6.337   9.218 -0.4233  1.7965  1.0094
 3301TIP3   OH234097   1.672   6.192   2.122  0.4069 -0.2546  0.3786
 3301TIP3    H134098   1.665   6.122   2.057  3.3836 -0.6133  0.2956
 3301TIP3    H234099   1.630   6.267   2.080 -1.6978 -1.6065 -0.0634
 3302TIP3   OH234100   6.709   2.766   9.100 -0.0188  0.1300  0.1387
 3302TIP3    H134101   6.796   2.725   9.104 -0.3374 -0.5945 -0.3343
 3302TIP3    H234102   6.675   2.758   9.190  0.5925  0.8704  0.4561
 3303TIP3   OH234103   0.591   0.899   7.019 -0.1908 -0.0018  0.0671
 3303TIP3    H134104   0.578   0.806   7.001 -0.5881 -0.2377  1.5135
 3303TIP3    H234105   0.657   0.902   7.088 -1.1571  0.7209  0.9966
 3304TIP3   OH234106   3.334   6.000   9.976 -0.3401 -0.0762  0.1362
 3304TIP3    H134107   3.401   6.011  10.044  0.4946  1.8702 -0.9074
 3304TIP3    H234108   3.251   6.004  10.023  0.1508  2.9382  0.9685
 3305TIP3   OH234109   4.286   7.128   0.476  0.2161 -0.0420 -0.4176
 3305TIP3    H134110   4.326   7.125   0.563  0.3265  0.2747 -0.4588
 3305TIP3    H234111   4.208   7.183   0.488 -1.0686 -1.8471  0.0188
 3306TIP3   OH234112   1.551   5.012   0.042 -0.0573 -0.0881 -0.7200
 3306TIP3    H134113   1.550   5.107   0.051 -0.9880 -0.1352 -0.1247
 3306TIP3    H234114   1.569   4.997  -0.051  2.5605  0.5979 -0.4145
 3307TIP3   OH234115   6.843   1.112   1.494  0.1536 -0.1729 -0.2508
 3307TIP3    H134116   6.761   1.109   1.543 -0.2115  1.3102 -0.7160
 3307TIP3    H234117   6.831   1.051   1.422 -0.7799  0.4564 -0.6454
 3308TIP3   OH234118   7.055   3.050   9.496  0.0082 -0.0364 -0.1237
 3308TIP3    H134119   7.016   3.008   9.572 -0.8864  2.5384  0.9592
 3308TIP3    H234120   7.101   3.126   9.532  1.7891 -0.1659 -1.9242
 3309TIP3   OH234121   7.274   2.900   1.910 -0.3362 -0.2317  0.0955
 3309TIP3    H134122   7.255   2.979   1.859  0.4140 -1.4299 -2.1348
 3309TIP3    H234123   7.313   2.933   1.991 -0.1550  1.6878 -0.7215
 3310TIP3   OH234124   0.589   3.945   1.485 -0.3364 -0.5214  0.3328
 3310TIP3    H134125   0.512   3.888   1.485  0.2797 -1.4377  2.0874
 3310TIP3    H234126   0.589   3.985   1.572  0.5591  0.3494 -0.0472
 3311TIP3   OH234127   2.075   1.398   2.227 -0.6324  0.4552 -0.3388
 3311TIP3    H134128   2.168   1.378   2.216 -0.9833 -0.6846 -1.4871
 3311TIP3    H234129   2.066   1.418   2.320  0.5117 -0.8280  0.0821
 3312TIP3   OH234130   5.339   2.462   8.297 -0.0814  0.0963  0.0404
 3312TIP3    H134131   5.354   2.532   8.361 -0.0770 -0.1057  0.2657
 3312TIP3    H234132   5.404   2.395   8.320 -0.3415 -0.1463  0.0761
 3313TIP3   OH234133   3.816   3.372   9.347  0.0296 -0.1496  0.2812
 3313TIP3    H134134   3.837   3.441   9.283  0.7811  0.8755  1.5837
 3313TIP3    H234135   3.842   3.291   9.303  1.3868  0.6026 -0.3861
 3314TIP3   OH234136   7.097   4.629   2.098 -0.7494  0.2237  0.6618
 3314TIP3    H134137   7.020   4.629   2.155 -0.5975 -0.8184  0.8923
 3314TIP3    H234138   7.087   4.551   2.044 -0.8302  1.1372 -0.6889
 3315TIP3   OH234139   7.439   3.017   7.582 -0.0852 -0.5421 -0.0954
 3315TIP3    H134140   7.533   3.010   7.566 -0.0405  1.1821 -0.9147
 3315TIP3    H234141   7.411   2.928   7.600  1.8125 -1.0074  0.8690
 3316TIP3   OH234142   6.615   5.182   0.275 -0.5014  0.2488 -0.5983
 3316TIP3    H134143   6.533   5.208   0.318  1.4583  1.9617  2.5488
 3316TIP3    H234144   6.590   5.114   0.214 -4.4578  1.7229 -0.8956
 3317TIP3   OH234145   1.490   1.355   0.830  0.2787  0.0580 -0.8321
 3317TIP3    H134146   1.499   1.419   0.900 -1.7598 -0.8099  0.3122
 3317TIP3    H234147   1.449   1.404   0.758 -4.3937 -0.4361  1.1453
 3318TIP3   OH234148   4.094   5.081   0.775 -0.1941 -0.1672 -0.4603
 3318TIP3    H134149   4.147   5.132   0.713 -0.1145 -0.0520 -0.2990
 3318TIP3    H234150   4.054   5.013   0.722 -0.1632 -0.0398 -0.6482
 3319TIP3   OH234151   1.781   3.946   2.768  0.4674  0.1354  0.1403
 3319TIP3    H134152   1.795   3.862   2.725 -0.2074  0.3128 -0.4404
 3319TIP3    H234153   1.728   3.996   2.706 -0.3152  0.4842  1.0683
 3320TIP3   OH234154   0.191   0.210   0.589 -0.1619  0.1333  0.4173
 3320TIP3    H134155   0.219   0.278   0.527 -3.2556 -0.3080 -1.6636
 3320TIP3    H234156   0.194   0.129   0.538 -0.3558 -0.6737  1.6478
 3321TIP3   OH234157   4.816   7.088   9.117  0.6752  0.3797 -0.2493
 3321TIP3    H134158   4.768   7.018   9.072  0.8863 -1.1558  1.7422
 3321TIP3    H234159   4.811   7.163   9.058 -2.5832 -0.2520 -0.9760
 3322TIP3   OH234160   6.897   4.125   0.771 -0.2795 -0.7117  0.5638
 3322TIP3    H134161   6.861   4.040   0.746  0.4795 -1.1258  0.8239
 3322TIP3    H234162   6.931   4.112   0.860 -0.4616 -0.0422  0.7367
 3323TIP3   OH234163   2.406   6.581   2.414  0.3571  0.4145  0.1306
 3323TIP3    H134164   2.491   6.623   2.402 -0.1798  1.2676 -0.9279
 3323TIP3    H234165   2.381   6.603   2.504  1.4234 -0.1933  0.5869
 3324TIP3   OH234166   7.440   4.865   6.680  0.2349  0.5347 -0.2603
 3324TIP3    H134167   7.525   4.821   6.686 -0.6966 -1.3492 -0.1071
 3324TIP3    H234168   7.434   4.893   6.589  0.3495 -0.7960 -0.7069
 3325TIP3   OH234169   0.805   4.763   8.255  0.2002  0.6583  1.0154
 3325TIP3    H134170   0.746   4.793   8.186 -0.3278 -1.4887  0.4760
 3325TIP3    H234171   0.748   4.750   8.332  0.2230  0.0415  0.9326
 3326TIP3   OH234172   7.386   7.229   0.213  0.1322  0.5399  0.5927
 3326TIP3    H134173   7.387   7.250   0.306  0.4576  3.0783  0.0917
 3326TIP3    H234174   7.476   7.245   0.184  0.2909 -1.2077 -0.0091
 3327TIP3   OH234175   6.091   6.339   9.101 -0.3662 -0.1707 -0.1603
 3327TIP3    H134176   6.109   6.390   9.022 -2.3680 -0.6162 -0.9798
 3327TIP3    H234177   6.138   6.384   9.171 -1.1330  2.1374 -1.0504
 3328TIP3   OH234178   6.684   6.144   0.056  0.1786  0.3504  0.5961
 3328TIP3    H134179   6.695   6.190  -0.027  0.0698 -0.5538  0.0619
 3328TIP3    H234180   6.772   6.112   0.077  0.3818  1.3095  1.2920
 3329TIP3   OH234181   1.253   4.264   9.717  0.4220 -0.1152 -0.0840
 3329TIP3    H134182   1.280   4.356   9.724 -0.6852  0.3578 -1.6122
 3329TIP3    H234183   1.166   4.262   9.758  0.7951 -0.6856  0.7133
 3330TIP3   OH234184   0.484   2.312   1.909  0.2456  0.2477 -0.2863
 3330TIP3    H134185   0.497   2.320   1.814  0.9344  2.8167 -0.0689
 3330TIP3    H234186   0.432   2.389   1.932 -1.4060 -1.2380  1.2406
 3331TIP3   OH234187   4.718   2.229   8.493  1.0154 -0.3981 -0.3513
 3331TIP3    H134188   4.685   2.317   8.511  0.7758 -0.7581  1.0874
 3331TIP3    H234189   4.807   2.229   8.526  1.5291 -0.2866 -1.6652
 3332TIP3   OH234190   0.662   7.115   7.850 -0.1505  0.0144 -0.3491
 3332TIP3    H134191   0.579   7.162   7.854  0.0147  0.3328 -0.6474
 3332TIP3    H234192   0.684   7.112   7.757  0.8121  1.0579 -0.1719
 3333TIP3   OH234193   0.313   6.068   7.672  0.0284 -0.2578 -0.0244
 3333TIP3    H134194   0.395   6.115   7.683  0.7934 -1.3899 -0.7553
 3333TIP3    H234195   0.299   6.066   7.577 -1.0426  0.2313  0.1032
 3334TIP3   OH234196   6.335   6.825   0.319  0.5355  0.3070  0.3908
 3334TIP3    H134197   6.259   6.772   0.299  1.5628 -2.0425  2.2178
 3334TIP3    H234198   6.305   6.915   0.310 -1.4444 -0.5025 -2.2984
 3335TIP3   OH234199   4.784   5.046   9.813 -0.0159  0.8734  0.0471
 3335TIP3    H134200   4.739   5.031   9.896  1.4870  1.3704  0.9917
 3335TIP3    H234201   4.873   5.017   9.829 -0.2794 -1.5920 -2.2540
 3336TIP3   OH234202   4.008   3.733   8.360 -0.1611  0.3015  0.4636
 3336TIP3    H134203   3.978   3.649   8.324 -1.6944  1.0046  0.0317
 3336TIP3    H234204   3.987   3.797   8.292 -0.7217  1.2998  1.5583
 3337TIP3   OH234205   6.478   3.132   0.064 -0.1217 -0.0380 -0.0739
 3337TIP3    H134206   6.523   3.122   0.148 -2.3875 -0.7914  1.1381
 3337TIP3    H234207   6.458   3.226   0.058  2.4839  0.5358 -1.2011
 3338TIP3   OH234208   7.186   2.500   9.107 -0.0355  0.5858  0.4571
 3338TIP3    H134209   7.280   2.515   9.113  0.0028  0.9110 -0.7617
 3338TIP3    H234210   7.172   2.464   9.019 -0.7674 -1.7944  1.4518
 3339TIP3   OH234211   0.608   6.360   0.318 -0.2299 -0.3473  0.1088
 3339TIP3    H134212   0.544   6.332   0.253 -0.6826 -0.0556  0.4254
 3339TIP3    H234213   0.686   6.309   0.298 -0.1158  0.2939 -1.1339
 3340TIP3   OH234214   2.639   5.384   6.351 -0.0661  0.7726  0.0699
 3340TIP3    H134215   2.595   5.426   6.424  0.7044  0.2657  0.8507
 3340TIP3    H234216   2.672   5.456   6.297 -0.0716  1.1528  0.5763
 3341TIP3   OH234217   7.357   4.232   1.716 -0.2029  0.1417 -0.1062
 3341TIP3    H134218   7.299   4.205   1.787 -0.7189  2.3928  0.4053
 3341TIP3    H234219   7.302   4.231   1.638 -0.0687 -0.7353 -0.2020
 3342TIP3   OH234220   2.382   5.312   8.845 -0.0522  0.2757 -0.4152
 3342TIP3    H134221   2.336   5.250   8.902  0.2269 -1.5853 -2.0655
 3342TIP3    H234222   2.354   5.288   8.756  0.7373  1.9950 -1.1778
 3343TIP3   OH234223   0.769   1.999   1.664 -0.0930  0.2288  0.1838
 3343TIP3    H134224   0.792   1.951   1.743 -0.7722 -1.4874 -0.5993
 3343TIP3    H234225   0.678   1.973   1.646 -0.2653  1.3339 -0.6280
 3344TIP3   OH234226   2.621   1.997   6.964  0.4760  0.4274  0.8199
 3344TIP3    H134227   2.666   2.074   6.999 -0.0790  0.0569  2.4123
 3344TIP3    H234228   2.534   2.000   7.004 -0.0823 -0.1932 -0.3153
 3345TIP3   OH234229   1.864   4.472   1.409  0.0619  0.3431  0.4803
 3345TIP3    H134230   1.946   4.499   1.368 -0.4084  1.3205  0.1702
 3345TIP3    H234231   1.815   4.429   1.339 -0.3985  1.2837  0.2154
 3346TIP3   OH234232   4.925   5.000   0.719 -0.2508  0.3854  0.4646
 3346TIP3    H134233   4.971   5.045   0.648 -0.2690  2.3663  1.6422
 3346TIP3    H234234   4.993   4.951   0.765 -0.1993 -0.7213 -0.7327
 3347TIP3   OH234235   5.894   7.127   0.540 -0.1582  0.0687 -0.1615
 3347TIP3    H134236   5.865   7.055   0.484 -0.0555 -1.2124  1.3502
 3347TIP3    H234237   5.841   7.202   0.513 -1.2533 -0.9282 -0.8589
 3348TIP3   OH234238   3.228   2.656   8.246  0.0799 -0.5069  0.1036
 3348TIP3    H134239   3.249   2.702   8.327 -1.9374 -1.8149  1.4621
 3348TIP3    H234240   3.255   2.716   8.177  4.6507 -0.4799  1.5340
 3349TIP3   OH234241   2.504   4.644   8.945  0.5208  0.7389  0.0558
 3349TIP3    H134242   2.472   4.625   8.857  1.7956 -3.4281  0.2698
 3349TIP3    H234243   2.597   4.662   8.932  0.3896  1.7766  0.4559
 3350TIP3   OH234244   3.778   7.106   0.009 -0.1646 -0.3980  0.2110
 3350TIP3    H134245   3.786   7.176   0.074 -0.8805 -0.6839  0.6194
 3350TIP3    H234246   3.691   7.118  -0.029  0.3037 -0.1291 -0.8411
 3351TIP3   OH234247   5.993   2.469   0.045 -0.3578 -0.3389 -0.3709
 3351TIP3    H134248   5.952   2.473  -0.041 -1.0726  0.1692 -0.0143
 3351TIP3    H234249   6.086   2.483   0.028 -0.4580 -0.5251 -1.0881
 3352TIP3   OH234250   6.324   2.526   8.611 -0.2137 -0.4247  0.3789
 3352TIP3    H134251   6.259   2.584   8.569  0.2278 -0.7560 -0.8066
 3352TIP3    H234252   6.306   2.535   8.705 -2.2518 -0.8192  0.0868
 3353TIP3   OH234253   6.030   5.803   7.326 -0.3558  0.1843 -0.2439
 3353TIP3    H134254   5.959   5.769   7.273  1.1905 -1.6632 -1.2493
 3353TIP3    H234255   6.074   5.725   7.362  1.3996  1.2066 -0.0164
 3354TIP3   OH234256   3.188   2.869   7.694  0.3951 -0.3672  0.1566
 3354TIP3    H134257   3.150   2.794   7.649  1.8610 -1.0067 -0.0595
 3354TIP3    H234258   3.224   2.833   7.776  2.4142 -0.2284 -0.6168
 3355TIP3   OH234259   4.707   4.759   9.770  0.3284 -0.3725  0.7439
 3355TIP3    H134260   4.766   4.754   9.845  2.2855  1.6592 -0.5290
 3355TIP3    H234261   4.696   4.853   9.754 -0.0645 -0.7340 -1.4543
 3356TIP3   OH234262   0.982   3.060   9.272  0.0717  0.2161 -0.2552
 3356TIP3    H134263   1.017   2.985   9.319  0.6987  1.0950  0.7238
 3356TIP3    H234264   1.060   3.106   9.239 -0.1736 -2.8014 -6.4080
 3357TIP3   OH234265   6.665   6.213   9.474 -0.0853 -0.3727  0.2073
 3357TIP3    H134266   6.633   6.235   9.387 -0.5489 -0.1664  0.4271
 3357TIP3    H234267   6.671   6.118   9.475 -1.2917 -0.4550  0.3739
 3358TIP3   OH234268   3.088   1.781   7.562 -0.1963 -0.4770  0.1404
 3358TIP3    H134269   3.051   1.869   7.560  3.0993  1.0835 -2.4434
 3358TIP3    H234270   3.019   1.725   7.526 -1.5043  1.4847 -0.5518
 3359TIP3   OH234271   3.226   3.715   1.203 -0.0310 -0.6046 -0.4571
 3359TIP3    H134272   3.177   3.749   1.129  0.4444  1.3320  0.0582
 3359TIP3    H234273   3.218   3.619   1.196 -2.3933 -0.3899 -1.3261
 3360TIP3   OH234274   1.250   6.484   6.529  0.3393 -0.3986  0.0534
 3360TIP3    H134275   1.168   6.500   6.483  0.6214 -0.7551 -0.5973
 3360TIP3    H234276   1.285   6.404   6.489  2.0559  0.8934 -1.2315
 3361TIP3   OH234277   6.565   6.257   0.264  0.4049 -0.3752  0.0806
 3361TIP3    H134278   6.621   6.311   0.319 -0.1062  1.1045 -0.8051
 3361TIP3    H234279   6.623   6.224   0.196  0.8512 -1.4993  0.9718
 3362TIP3   OH234280   6.243   2.686   1.835  0.3162  0.1088 -0.2166
 3362TIP3    H134281   6.318   2.629   1.851  0.2173  0.4277  1.5714
 3362TIP3    H234282   6.180   2.663   1.902 -2.2413 -1.7326 -2.9766
 3363TIP3   OH234283   1.752   7.134   0.362 -0.4409  0.0438 -0.3607
 3363TIP3    H134284   1.691   7.205   0.342  0.3611  1.1745  0.9993
 3363TIP3    H234285   1.828   7.179   0.399 -0.5406 -1.6274  2.0439
 3364TIP3   OH234286   3.124   0.974   9.620  0.1645 -0.3587  0.3038
 3364TIP3    H134287   3.091   1.062   9.641  0.3507 -0.4746  1.1218
 3364TIP3    H234288   3.082   0.952   9.537 -1.4680 -0.3014  1.0590
 3365TIP3   OH234289   6.728   2.592   1.231 -0.4998  0.2763  0.1529
 3365TIP3    H134290   6.811   2.579   1.276 -0.5444 -0.8364 -0.0679
 3365TIP3    H234291   6.752   2.634   1.148 -0.0208 -1.1349 -0.4359
 3366TIP3   OH234292   0.150   7.272   2.537 -0.0512  0.1217 -0.1136
 3366TIP3    H134293   0.058   7.285   2.515 -0.2627 -0.4035  0.4512
 3366TIP3    H234294   0.193   7.353   2.508 -0.8871  0.9155  0.8003
 3367TIP3   OH234295   5.929   0.806   1.241  0.0191  0.4323 -0.1435
 3367TIP3    H134296   5.869   0.736   1.263 -0.0418  0.9736  1.5172
 3367TIP3    H234297   5.881   0.887   1.259  1.2113  0.8775  1.3083
 3368TIP3   OH234298   3.652   4.283   0.764 -0.2474  0.0725  0.2091
 3368TIP3    H134299   3.628   4.197   0.729  3.3122 -0.2537 -1.9390
 3368TIP3    H234300   3.745   4.275   0.785  0.0704  3.2633  0.4680
 3369TIP3   OH234301   3.548   0.911   3.039 -0.0969  0.2107 -0.3032
 3369TIP3    H134302   3.610   0.844   3.010  0.2102 -0.3204  1.4348
 3369TIP3    H234303   3.595   0.994   3.029  0.0637  0.0373 -1.0604
 3370TIP3   OH234304   2.558   0.508   2.356  0.0085  0.5038 -0.0630
 3370TIP3    H134305   2.521   0.470   2.277 -0.7474 -0.7950  0.8707
 3370TIP3    H234306   2.523   0.597   2.360  0.8321  0.9369 -1.6642
 3371TIP3   OH234307   3.036   4.641   9.144 -0.1942  0.0606 -0.3784
 3371TIP3    H134308   2.996   4.724   9.169 -0.8726 -0.0104 -1.1643
 3371TIP3    H234309   3.075   4.607   9.225 -1.5178  0.2546  0.3672
 3372TIP3   OH234310   2.945   1.821   0.351  0.4423 -0.4912 -0.0860
 3372TIP3    H134311   3.012   1.888   0.341  0.2966 -0.5326 -1.5571
 3372TIP3    H234312   2.964   1.780   0.436  0.7601  1.1314  0.6668
 3373TIP3   OH234313   4.540   1.661   2.366 -0.4489 -0.4117 -0.5548
 3373TIP3    H134314   4.628   1.625   2.364 -0.5881 -0.7392 -1.7588
 3373TIP3    H234315   4.486   1.592   2.404  0.0920  0.5538  2.2025
 3374TIP3   OH234316   1.749   6.696   2.501 -0.4413 -0.2982 -0.4737
 3374TIP3    H134317   1.758   6.630   2.569  0.6355  0.4675  0.1639
 3374TIP3    H234318   1.825   6.682   2.444  0.7300  1.3558  0.5756
 3375TIP3   OH234319   1.499   3.408   7.447  0.2386 -0.1536  0.2784
 3375TIP3    H134320   1.541   3.355   7.380  2.3454  1.5564  0.1464
 3375TIP3    H234321   1.408   3.416   7.418  1.2694  1.2767 -2.9214
 3376TIP3   OH234322   7.285   0.720   1.032 -0.4914  0.8390 -0.2122
 3376TIP3    H134323   7.381   0.721   1.033 -0.4860  1.9389 -0.2911
 3376TIP3    H234324   7.260   0.787   1.095 -1.1881  1.2783 -0.9410
 3377TIP3   OH234325   7.121   0.835   9.004  0.2598 -0.1850 -0.1668
 3377TIP3    H134326   7.106   0.747   9.039 -0.2372  0.1140  0.3802
 3377TIP3    H234327   7.123   0.892   9.080  1.6293  0.1530 -0.4380
 3378TIP3   OH234328   1.059   4.743   8.412  0.1645 -0.0340  0.5221
 3378TIP3    H134329   0.981   4.739   8.357 -0.8391  0.1921  1.8790
 3378TIP3    H234330   1.038   4.686   8.487  0.6654  1.2215  1.6510
 3379TIP3   OH234331   3.803   0.864   9.369 -0.5858 -0.7071  0.8412
 3379TIP3    H134332   3.859   0.941   9.356  0.3262 -1.3100  1.0829
 3379TIP3    H234333   3.777   0.869   9.461  0.1175 -1.0851  1.0735
 3380TIP3   OH234334   1.684   5.211   7.663 -0.3542  0.0826  0.0422
 3380TIP3    H134335   1.746   5.221   7.591  0.5794 -0.7779  0.7005
 3380TIP3    H234336   1.738   5.188   7.739 -1.3017  1.0741  1.0571
 3381TIP3   OH234337   3.696   6.986   2.634 -0.1922  0.3850  0.4659
 3381TIP3    H134338   3.652   7.027   2.560  0.2648  0.9243  0.4809
 3381TIP3    H234339   3.631   6.927   2.672  0.2439 -1.5963 -1.6664
 3382TIP3   OH234340   2.958   0.360   8.156 -0.2116  0.1606 -0.1577
 3382TIP3    H134341   3.025   0.339   8.221 -1.0928 -1.8388  0.1766
 3382TIP3    H234342   2.991   0.438   8.112  1.8628 -0.2093  0.6360
 3383TIP3   OH234343   2.939   6.702   0.844  0.3005 -0.5418 -0.1192
 3383TIP3    H134344   3.033   6.687   0.850  0.5190  1.2378  2.8432
 3383TIP3    H234345   2.930   6.790   0.808 -0.2548 -0.7897 -0.6089
 3384TIP3   OH234346   4.828   2.942   0.603 -0.1204 -0.4863  0.2058
 3384TIP3    H134347   4.878   2.981   0.532  2.5143  1.4968  2.9304
 3384TIP3    H234348   4.857   2.851   0.605  2.5235  0.2947  0.8580
 3385TIP3   OH234349   4.579   1.012   2.729 -0.1866 -0.4565 -0.3129
 3385TIP3    H134350   4.672   1.007   2.707 -0.1352 -0.1527 -0.1699
 3385TIP3    H234351   4.553   0.921   2.744  0.1921 -0.5075  0.0639
 3386TIP3   OH234352   2.591   5.357   2.123  0.2368 -0.4480  0.1888
 3386TIP3    H134353   2.627   5.379   2.037 -1.2738  0.5307 -0.2243
 3386TIP3    H234354   2.539   5.434   2.148  1.2195 -0.4013  2.3240
 3387TIP3   OH234355   0.534   2.670   0.952  0.3039 -0.2389  0.0656
 3387TIP3    H134356   0.508   2.631   1.036 -1.5533  0.7867  0.0282
 3387TIP3    H234357   0.616   2.715   0.971 -0.5971  0.8444  1.6572
 3388TIP3   OH234358   5.415   1.723   8.969  0.1213 -0.1015  0.3811
 3388TIP3    H134359   5.370   1.743   8.886 -1.0549 -1.1015  0.7352
 3388TIP3    H234360   5.364   1.770   9.035  1.4499  1.2318  0.5071
 3389TIP3   OH234361   1.632   0.818   0.716  0.2146  0.3679  0.2497
 3389TIP3    H134362   1.660   0.747   0.774 -0.1135  0.5332  0.6110
 3389TIP3    H234363   1.537   0.817   0.721  0.0192 -1.0904 -2.0319
 3390TIP3   OH234364   4.359   7.049   9.653 -0.4086 -0.0055  0.2867
 3390TIP3    H134365   4.434   7.027   9.598 -0.4873  0.1644  0.1133
 3390TIP3    H234366   4.378   7.006   9.736 -0.2401 -0.1747  0.1619
 3391TIP3   OH234367   3.428   6.444   9.170 -0.0028 -0.2493 -0.5875
 3391TIP3    H134368   3.499   6.455   9.107  0.4470  1.5118  0.1632
 3391TIP3    H234369   3.398   6.533   9.188 -1.0130 -0.8097  0.6872
 3392TIP3   OH234370   6.806   1.286   7.873  0.2330  0.4233  0.1502
 3392TIP3    H134371   6.879   1.252   7.820  0.5935 -0.4529  1.1809
 3392TIP3    H234372   6.743   1.317   7.809  0.1179 -1.7332 -0.8509
 3393TIP3   OH234373   2.908   4.551   1.045  0.2261  0.3829  0.2030
 3393TIP3    H134374   2.942   4.624   1.097  1.5632 -0.3142  0.3213
 3393TIP3    H234375   2.983   4.517   0.998 -0.3160 -1.1317  0.3875
 3394TIP3   OH234376   1.126   0.931   9.375  0.0614  1.0475 -0.1038
 3394TIP3    H134377   1.139   1.025   9.383  1.6011  0.8941 -0.3992
 3394TIP3    H234378   1.214   0.894   9.382 -0.5186 -0.3813  0.1187
 3395TIP3   OH234379   0.951   1.524   9.481 -0.3507  0.1504  0.0248
 3395TIP3    H134380   0.972   1.567   9.398 -1.0848 -1.6903 -1.1812
 3395TIP3    H234381   0.899   1.448   9.456  0.2180 -0.9995  2.1210
 3396TIP3   OH234382   1.951   4.207   7.276 -0.5319 -0.0500 -0.0028
 3396TIP3    H134383   1.991   4.264   7.211  0.6515 -0.1086  0.6386
 3396TIP3    H234384   1.922   4.266   7.346  0.0430 -0.1642  0.3354
 3397TIP3   OH234385   2.358   3.351   1.809  0.3258  0.5314  0.2330
 3397TIP3    H134386   2.317   3.377   1.726 -0.2255  1.4186  0.7736
 3397TIP3    H234387   2.355   3.255   1.807 -1.1740  0.5579 -0.0519
 3398TIP3   OH234388   4.860   4.591   7.238  0.2205  0.1847  0.0822
 3398TIP3    H134389   4.774   4.555   7.263  0.4343 -0.6152 -0.3026
 3398TIP3    H234390   4.896   4.527   7.177  0.8557  0.7990 -0.2006
 3399TIP3   OH234391   0.117   1.067   7.943 -0.2258 -0.3960  0.1107
 3399TIP3    H134392   0.101   1.007   8.016  0.4839 -0.4880  0.1965
 3399TIP3    H234393   0.061   1.034   7.872  0.3791 -1.3431  0.0599
 3400TIP3   OH234394   0.745   3.267   0.719 -0.0118 -0.2383  1.0827
 3400TIP3    H134395   0.820   3.240   0.666 -1.6154 -0.8076 -1.0178
 3400TIP3    H234396   0.702   3.185   0.744  0.4450  0.0433  2.9351
 3401TIP3   OH234397   4.323   2.601   0.088 -0.2013 -0.1617  0.0053
 3401TIP3    H134398   4.254   2.636   0.031 -0.5836  0.3869  0.7948
 3401TIP3    H234399   4.341   2.514   0.053 -0.3795  0.1944 -1.0039
 3402TIP3   OH234400   5.039   2.576   0.802 -0.5637 -0.6629 -0.3356
 3402TIP3    H134401   5.064   2.630   0.727 -1.6764 -0.8752 -0.8755
 3402TIP3    H234402   4.955   2.536   0.777  0.5528 -3.2421 -0.2491
 3403TIP3   OH234403   0.054   1.482   1.241 -0.7955 -0.5020  0.3990
 3403TIP3    H134404   0.089   1.448   1.323 -1.1843 -0.5487  0.5458
 3403TIP3    H234405   0.033   1.405   1.188 -0.0634 -0.4700  0.0446
 3404TIP3   OH234406   4.254   6.471   1.935  0.0357  0.7921  0.0342
 3404TIP3    H134407   4.184   6.491   1.997 -0.1374 -1.7553  0.7566
 3404TIP3    H234408   4.334   6.473   1.988  0.2361  1.3425 -0.2802
 3405TIP3   OH234409   3.066   1.695   2.046  0.0895 -0.1394 -0.2049
 3405TIP3    H134410   3.007   1.692   2.121  0.3612  1.3539  0.0960
 3405TIP3    H234411   3.016   1.656   1.974 -0.7096 -0.2303  0.3963
 3406TIP3   OH234412   5.035   2.736   1.888  0.2511 -0.1233  0.1217
 3406TIP3    H134413   4.962   2.797   1.890 -1.2904 -1.9055  1.1608
 3406TIP3    H234414   5.040   2.701   1.977  0.8788 -1.7120 -0.4939
 3407TIP3   OH234415   0.618   4.412   9.986 -0.2304 -0.1413  0.3486
 3407TIP3    H134416   0.541   4.379  10.032 -0.0688  0.2135  0.8787
 3407TIP3    H234417   0.692   4.377  10.035  0.0104 -2.1389 -1.2880
 3408TIP3   OH234418   0.267   0.716   9.954 -0.2515 -0.1343  0.2901
 3408TIP3    H134419   0.356   0.740   9.979 -0.1100 -2.0042  1.8960
 3408TIP3    H234420   0.251   0.633   9.999 -2.4437 -0.3930 -0.7981
 3409TIP3   OH234421   2.217   5.940   8.453 -0.1373  0.1707 -0.1900
 3409TIP3    H134422   2.231   5.977   8.366  0.7133 -0.3052 -0.2691
 3409TIP3    H234423   2.122   5.943   8.466 -0.0856  3.0842  0.1376
 3410TIP3   OH234424   1.152   0.953   2.567  0.0056 -0.1004  0.3877
 3410TIP3    H134425   1.220   0.952   2.634 -0.4779 -0.5105  0.8703
 3410TIP3    H234426   1.092   1.023   2.595 -0.1800 -0.2516  0.3688
 3411TIP3   OH234427   3.414   3.097   9.405 -0.3139 -0.2343  0.2301
 3411TIP3    H134428   3.408   3.089   9.310 -0.4439 -1.5266  0.3257
 3411TIP3    H234429   3.492   3.150   9.421  0.3263 -0.9117 -0.5828
 3412TIP3   OH234430   4.151   0.784   9.232 -0.1562 -0.6321  0.0415
 3412TIP3    H134431   4.200   0.711   9.195  0.7385 -0.0022 -0.0521
 3412TIP3    H234432   4.167   0.779   9.326  2.9550  1.5063 -0.2270
 3413TIP3   OH234433   2.156   1.745   9.928 -0.1110  0.4655 -0.1442
 3413TIP3    H134434   2.129   1.754   9.836  0.6086 -0.3305 -0.4466
 3413TIP3    H234435   2.080   1.775   9.978 -0.8952 -0.0592 -0.9856
 3414TIP3   OH234436   7.118   2.976   8.743 -0.2328  0.8979  0.5092
 3414TIP3    H134437   7.139   2.988   8.835  0.2128 -1.0865  0.7032
 3414TIP3    H234438   7.104   2.882   8.733  0.6482  0.9345 -1.6347
 3415TIP3   OH234439   2.819   3.499   9.585  0.3502 -0.2166 -0.4732
 3415TIP3    H134440   2.729   3.529   9.597  0.4638  0.6864 -1.6695
 3415TIP3    H234441   2.815   3.436   9.513  0.3416 -2.0787  1.0751
 3416TIP3   OH234442   6.293   1.307   9.055 -0.7334 -0.6458  0.4468
 3416TIP3    H134443   6.277   1.336   9.144 -1.4527  0.1210  0.0820
 3416TIP3    H234444   6.209   1.315   9.011 -0.0482  0.6027 -0.7395
 3417TIP3   OH234445   1.314   4.717   8.344 -0.0430 -0.2508 -0.7283
 3417TIP3    H134446   1.354   4.803   8.331  0.6596 -0.3400  0.6068
 3417TIP3    H234447   1.227   4.735   8.378  0.1261 -0.0525 -0.3917
 3418TIP3   OH234448   5.219   4.946   7.167  0.3204  0.0445 -0.1483
 3418TIP3    H134449   5.180   4.946   7.080 -2.5984  1.6022  1.0147
 3418TIP3    H234450   5.289   5.011   7.162  0.8726 -0.6243 -1.5426
 3419TIP3   OH234451   6.087   5.883   1.872  1.0133  0.1411 -0.7181
 3419TIP3    H134452   6.042   5.807   1.834  1.8228 -0.0776 -1.2519
 3419TIP3    H234453   6.131   5.849   1.950  0.9148  0.1891 -0.6404
 3420TIP3   OH234454   0.380   1.343   9.146  0.3428  0.2119  0.0550
 3420TIP3    H134455   0.311   1.407   9.127 -0.1029  0.2669  1.7546
 3420TIP3    H234456   0.347   1.261   9.109  0.5408  0.7487 -1.3900
 3421TIP3   OH234457   7.040   7.082   0.848  0.8726 -0.0231 -0.2846
 3421TIP3    H134458   7.038   7.090   0.753 -0.3051 -0.4670 -0.3099
 3421TIP3    H234459   7.129   7.054   0.867  1.5166  1.3184 -1.1337
 3422TIP3   OH234460   7.132   4.009   1.676  0.5092  0.2541  0.0202
 3422TIP3    H134461   7.186   3.935   1.648 -0.2383 -0.7263  1.1037
 3422TIP3    H234462   7.164   4.029   1.764  0.1806  0.7341  0.0320
 3423TIP3   OH234463   3.643   5.651   9.367  1.0012  0.4477  0.3888
 3423TIP3    H134464   3.567   5.602   9.400  0.8179  1.0269  0.8407
 3423TIP3    H234465   3.661   5.612   9.281 -0.1352  0.6366  0.0447
 3424TIP3   OH234466   2.403   0.234   9.748 -0.4551  0.9793 -0.2333
 3424TIP3    H134467   2.334   0.205   9.688 -1.0619  1.4451  0.2271
 3424TIP3    H234468   2.476   0.176   9.730 -1.2519 -0.0842 -0.1290
 3425TIP3   OH234469   2.937   2.854   2.732 -0.1401 -0.0856  0.0311
 3425TIP3    H134470   2.957   2.856   2.638  0.5549 -0.2573  0.1680
 3425TIP3    H234471   3.022   2.838   2.774 -0.4367  0.0519  0.6926
 3426TIP3   OH234472   6.973   5.509   7.415  0.3409  0.3589  0.4547
 3426TIP3    H134473   6.964   5.442   7.484  2.2534 -0.5898 -0.1523
 3426TIP3    H234474   6.923   5.474   7.341  0.1272  0.3108  0.6209
 3427TIP3   OH234475   1.878   6.596   9.155 -0.5833 -0.0239 -0.4480
 3427TIP3    H134476   1.834   6.668   9.202 -2.6516 -1.5775  0.1613
 3427TIP3    H234477   1.900   6.533   9.223 -0.5521 -0.8111 -1.1712
 3428TIP3   OH234478   6.654   4.123   9.527 -0.2671 -0.0395  0.0394
 3428TIP3    H134479   6.571   4.076   9.523  0.2485 -1.5227  3.4661
 3428TIP3    H234480   6.687   4.120   9.437 -3.3624 -0.3286 -1.2046
 3429TIP3   OH234481   0.567   5.574   2.704 -0.0089 -0.1889 -0.0033
 3429TIP3    H134482   0.524   5.631   2.640 -0.2633 -1.2109 -0.7718
 3429TIP3    H234483   0.518   5.493   2.700 -0.4049 -0.0974  1.9474
 3430TIP3   OH234484   3.974   1.203   9.766  0.3951  0.0517  0.1673
 3430TIP3    H134485   4.005   1.166   9.848 -0.4734 -0.6032  0.2170
 3430TIP3    H234486   4.053   1.222   9.716  0.8906 -1.1134  0.4763
 3431TIP3   OH234487   0.908   6.511   7.486  0.3163  0.6225 -0.7600
 3431TIP3    H134488   0.954   6.427   7.494 -0.1996  0.3435 -0.6873
 3431TIP3    H234489   0.820   6.487   7.457  0.0755  1.1159 -0.4402
 3432TIP3   OH234490   6.098   6.125   9.300 -0.5252  0.2795  0.2878
 3432TIP3    H134491   6.066   6.168   9.221 -0.8603 -4.0064 -2.2387
 3432TIP3    H234492   6.022   6.080   9.335  0.0549  0.5512  1.9707
 3433TIP3   OH234493   5.337   4.552   0.887 -0.5004 -0.2024 -0.0531
 3433TIP3    H134494   5.284   4.611   0.833  0.7179  0.9679 -0.0270
 3433TIP3    H234495   5.331   4.467   0.843 -0.7294  0.3881 -1.1976
 3434TIP3   OH234496   5.950   1.172   8.493  0.1014 -0.1263  0.7714
 3434TIP3    H134497   5.886   1.204   8.557 -1.4016 -1.9935  0.3100
 3434TIP3    H234498   5.952   1.239   8.425 -0.0226  0.7992  1.6680
 3435TIP3   OH234499   3.434   3.144   1.275  0.1685 -0.4945 -0.0844
 3435TIP3    H134500   3.422   3.110   1.187 -1.4103  3.4049 -1.5707
 3435TIP3    H234501   3.351   3.126   1.320  0.8018 -2.0485  0.5494
 3436TIP3   OH234502   1.561   3.189   7.889  0.1798 -0.1380  0.3005
 3436TIP3    H134503   1.596   3.100   7.894  0.6611 -0.0059 -0.6340
 3436TIP3    H234504   1.596   3.224   7.807 -0.2042  0.8284  0.5427
 3437TIP3   OH234505   5.550   0.147   0.757  0.1136 -0.3677  0.1395
 3437TIP3    H134506   5.605   0.090   0.810 -1.9400 -1.2948  1.3861
 3437TIP3    H234507   5.610   0.212   0.721  2.2055 -2.0821  0.3416
 3438TIP3   OH234508   3.776   4.005   0.405  0.3611 -0.5943  0.2425
 3438TIP3    H134509   3.829   4.028   0.481  1.2950 -1.9148  0.0363
 3438TIP3    H234510   3.840   3.989   0.335 -0.3814 -1.0464 -0.3509
 3439TIP3   OH234511   3.625   4.269   2.163 -0.2725  0.4513 -0.0194
 3439TIP3    H134512   3.658   4.217   2.236 -1.7228  0.8042  0.9148
 3439TIP3    H234513   3.677   4.349   2.164 -0.0770  0.3184  0.4150
 3440TIP3   OH234514   1.396   0.552   7.620  0.2310  0.2742  0.2910
 3440TIP3    H134515   1.476   0.560   7.568  1.1770  1.6958  1.8951
 3440TIP3    H234516   1.374   0.641   7.645  0.9490 -0.4254  3.9285
 3441TIP3   OH234517   0.140   5.720   9.325 -0.2107 -0.2549  0.2966
 3441TIP3    H134518   0.090   5.693   9.402  0.3521  0.0391  0.7743
 3441TIP3    H234519   0.222   5.671   9.331 -0.5314 -0.9194 -0.6123
 3442TIP3   OH234520   3.408   0.959   8.652  0.1320 -0.1619  0.0377
 3442TIP3    H134521   3.381   1.039   8.698 -0.1792 -1.2927  1.8976
 3442TIP3    H234522   3.327   0.920   8.622  0.2842  0.1871 -0.8536
 3443TIP3   OH234523   1.436   4.764   2.455 -0.0782  0.3270  0.3169
 3443TIP3    H134524   1.386   4.743   2.376  0.4758 -1.5664  0.4253
 3443TIP3    H234525   1.379   4.739   2.527  1.6877 -4.0585  0.4566
 3444TIP3   OH234526   7.239   5.684   2.652  0.7503  0.0620 -0.3541
 3444TIP3    H134527   7.274   5.754   2.596 -0.4836 -0.5431 -1.9776
 3444TIP3    H234528   7.310   5.620   2.657  1.2410  0.5963 -0.3724
 3445TIP3   OH234529   0.958   4.439   1.249 -0.2136  0.6636  0.2858
 3445TIP3    H134530   1.041   4.461   1.206  0.1273 -0.0642  0.5599
 3445TIP3    H234531   0.946   4.507   1.316 -0.1558  1.1225 -0.1602
 3446TIP3   OH234532   3.902   7.148   8.023  0.0252 -0.3007 -0.7979
 3446TIP3    H134533   3.811   7.136   7.994 -0.1654  0.2366 -0.4254
 3446TIP3    H234534   3.897   7.155   8.118  0.6317 -1.8533 -0.6179
 3447TIP3   OH234535   0.591   1.408   9.711 -0.0963 -0.9959  0.0282
 3447TIP3    H134536   0.505   1.450   9.714  0.4106  0.0613  0.2633
 3447TIP3    H234537   0.572   1.314   9.705 -1.2585 -0.7376 -0.5801
 3448TIP3   OH234538   0.773   0.091   7.941 -0.2049  0.6823 -0.3784
 3448TIP3    H134539   0.800   0.182   7.956  0.6268  0.3554  0.1241
 3448TIP3    H234540   0.688   0.084   7.985  0.5892  0.7110  1.2336
 3449TIP3   OH234541   2.591   5.287   8.502  0.4682  0.3329 -0.1783
 3449TIP3    H134542   2.671   5.264   8.454  0.3193  1.2500 -0.8988
 3449TIP3    H234543   2.597   5.238   8.584  0.7791 -1.2260 -1.0916
 3450TIP3   OH234544   6.007   2.421   0.954  1.0153  0.1826 -0.3248
 3450TIP3    H134545   5.995   2.351   0.890 -0.2789 -0.5793  0.7065
 3450TIP3    H234546   5.923   2.428   0.998  1.8354  0.7581  1.2240
 3451TIP3   OH234547   1.677   3.396   9.292  0.6467  0.2855  0.3439
 3451TIP3    H134548   1.679   3.430   9.381  0.8015  0.2613  0.3503
 3451TIP3    H234549   1.765   3.360   9.278  0.4581 -0.1943  0.3713
 3452TIP3   OH234550   5.357   0.189   8.768  0.2310  0.3691  0.1818
 3452TIP3    H134551   5.339   0.095   8.772  1.3862  0.1072 -0.2852
 3452TIP3    H234552   5.451   0.195   8.749  0.5649  1.6180  1.9248
 3453TIP3   OH234553   4.779   4.963   1.049 -0.5121 -0.2913  0.1208
 3453TIP3    H134554   4.685   4.963   1.033 -0.2142  0.5818 -1.9840
 3453TIP3    H234555   4.814   4.903   0.983  0.3941 -0.8807  1.1114
 3454TIP3   OH234556   2.049   5.047   0.457  0.2457  0.4405 -0.4676
 3454TIP3    H134557   2.068   5.037   0.363  0.2248  1.1106 -0.5480
 3454TIP3    H234558   1.958   5.075   0.460 -0.0486 -0.5250 -0.1926
 3455TIP3   OH234559   4.194   5.694   2.605  0.0395  0.2327 -0.0898
 3455TIP3    H134560   4.227   5.608   2.632  0.7305  0.5833  0.2065
 3455TIP3    H234561   4.262   5.729   2.549  0.3540  1.1227  0.8180
 3456TIP3   OH234562   1.616   6.236   1.421 -0.6609 -0.6452  0.3049
 3456TIP3    H134563   1.667   6.190   1.355 -1.0292 -0.1123 -0.3780
 3456TIP3    H234564   1.539   6.268   1.373 -1.2367 -0.7610  1.1298
 3457TIP3   OH234565   0.562   2.068   0.427 -0.1951 -0.1335 -0.3903
 3457TIP3    H134566   0.524   2.129   0.364  1.2669  0.8365 -0.4045
 3457TIP3    H234567   0.633   2.025   0.378 -0.3871 -0.9183  0.0013
 3458TIP3   OH234568   2.422   0.692   0.526 -0.0112 -0.9020  0.3970
 3458TIP3    H134569   2.470   0.747   0.588 -0.6000 -0.8638  0.8282
 3458TIP3    H234570   2.438   0.603   0.555  1.2083 -0.9873 -0.4951
 3459TIP3   OH234571   1.464   0.233   2.481 -0.5898 -0.1623 -0.5159
 3459TIP3    H134572   1.459   0.303   2.547 -2.8142 -1.3176  0.6517
 3459TIP3    H234573   1.498   0.157   2.528 -0.8347 -0.6172 -1.0533
 3460TIP3   OH234574   2.524   6.502   0.923  0.4000  0.0973 -0.0718
 3460TIP3    H134575   2.542   6.509   1.017  2.1953 -0.5331 -0.3468
 3460TIP3    H234576   2.429   6.492   0.919  0.2540  0.3340  1.6582
 3461TIP3   OH234577   4.576   6.517   2.436 -0.0595  0.0019 -0.3562
 3461TIP3    H134578   4.631   6.454   2.390 -0.7279 -0.8739 -0.0012
 3461TIP3    H234579   4.625   6.537   2.516 -0.4951 -1.2478  0.2583
 3462TIP3   OH234580   1.402   0.762   9.879 -0.5766  0.0134  0.7090
 3462TIP3    H134581   1.349   0.695   9.835  0.1257 -0.4258  0.5158
 3462TIP3    H234582   1.424   0.824   9.809  3.5915 -2.5304 -0.5897
 3463TIP3   OH234583   1.668   4.711   6.761  0.3929  0.0627 -0.3599
 3463TIP3    H134584   1.656   4.806   6.757  0.2698  0.0591 -0.0849
 3463TIP3    H234585   1.696   4.687   6.672  1.7745  0.5429 -0.0797
 3464TIP3   OH234586   2.266   1.475   1.928 -0.0279 -0.4176  0.5517
 3464TIP3    H134587   2.236   1.562   1.901  0.3930  0.1738  1.9067
 3464TIP3    H234588   2.345   1.460   1.876  0.1971  0.2453  0.6895
 3465TIP3   OH234589   2.063   6.399   7.745  0.3896 -0.3047 -0.4100
 3465TIP3    H134590   2.083   6.467   7.681 -0.8607  0.1093 -0.3838
 3465TIP3    H234591   1.969   6.407   7.760  0.3432 -1.6021  0.1013
 3466TIP3   OH234592   4.084   0.053   2.037  0.4531 -0.0134 -0.0836
 3466TIP3    H134593   4.084   0.022   1.947 -1.3100 -0.4427  0.0458
 3466TIP3    H234594   4.001   0.023   2.074  0.1575  1.9827  1.0385
 3467TIP3   OH234595   1.993   6.046   6.754 -0.5718 -0.0409  0.2878
 3467TIP3    H134596   2.050   6.024   6.681  0.1794 -1.0828  1.1502
 3467TIP3    H234597   1.907   6.012   6.729 -0.3208 -0.3933 -0.1004
 3468TIP3   OH234598   4.106   5.445   2.841  0.2669  0.4290 -0.6348
 3468TIP3    H134599   4.174   5.433   2.775 -1.8992 -1.2374 -2.7194
 3468TIP3    H234600   4.024   5.445   2.793 -1.3046  3.4832  1.6491
 3469TIP3   OH234601   5.528   6.611   9.207 -0.7907  0.1735 -0.1763
 3469TIP3    H134602   5.518   6.516   9.193 -0.0312  0.3016 -1.8900
 3469TIP3    H234603   5.459   6.633   9.269 -0.0853 -1.7331  1.3964
 3470TIP3   OH234604   1.866   1.814   6.696 -0.0916  0.1506  0.2062
 3470TIP3    H134605   1.799   1.881   6.700 -0.7952 -0.5734  0.7987
 3470TIP3    H234606   1.892   1.812   6.604  0.3191  1.5765  0.2687
 3471TIP3   OH234607   3.849   2.772   2.397  0.1447  0.1752  0.1178
 3471TIP3    H134608   3.920   2.818   2.441  0.4475  0.0521 -0.2462
 3471TIP3    H234609   3.858   2.681   2.425 -1.2037  0.5172  1.8430
 3472TIP3   OH234610   6.297   4.310   0.913 -0.0119  0.4327  0.1479
 3472TIP3    H134611   6.262   4.259   0.841  0.0056 -1.0771  1.1766
 3472TIP3    H234612   6.380   4.345   0.879 -0.9079  1.3619 -1.1909
 3473TIP3   OH234613   3.804   5.432   6.729 -0.4907  0.7755 -0.2168
 3473TIP3    H134614   3.733   5.408   6.789  0.5655 -1.0875  0.3832
 3473TIP3    H234615   3.760   5.469   6.653 -2.1076 -0.2257  0.1767
 3474TIP3   OH234616   0.134   3.272   7.962 -0.0810 -0.1016 -0.1237
 3474TIP3    H134617   0.200   3.204   7.948 -0.2298 -0.0444 -1.1583
 3474TIP3    H234618   0.054   3.225   7.983 -0.0651 -0.2273 -0.3442
 3475TIP3   OH234619   3.414   0.900   7.612 -0.1657  0.0899  0.2059
 3475TIP3    H134620   3.435   0.836   7.680  0.7356  0.0586 -0.0992
 3475TIP3    H234621   3.499   0.930   7.579 -0.4213  3.0620  1.8382
 3476TIP3   OH234622   0.217   7.083   1.697 -0.1619 -0.3897  0.2914
 3476TIP3    H134623   0.250   7.173   1.705 -2.1526  0.3516  0.9067
 3476TIP3    H234624   0.295   7.029   1.684  1.2713  1.2012  1.8458
 3477TIP3   OH234625   6.751   2.988   0.631  0.4032  0.7427  0.4813
 3477TIP3    H134626   6.837   2.946   0.621 -0.0905 -0.1455 -0.1469
 3477TIP3    H234627   6.771   3.081   0.639  1.5443  0.4074  2.1079
 3478TIP3   OH234628   0.596   6.597   1.760  0.5775  0.2273 -0.6579
 3478TIP3    H134629   0.687   6.625   1.765  1.4419 -2.1379 -1.6669
 3478TIP3    H234630   0.553   6.664   1.707  2.1133  0.5631 -1.5231
 3479TIP3   OH234631   1.309   2.309   0.466 -0.1960 -0.0066  0.2714
 3479TIP3    H134632   1.396   2.275   0.448 -0.7580 -0.6427 -1.5001
 3479TIP3    H234633   1.250   2.252   0.417 -1.3529  2.2361 -1.1584
 3480TIP3   OH234634   1.183   0.829   8.878  0.0228  0.0147 -0.2595
 3480TIP3    H134635   1.255   0.779   8.918  0.7355  0.4142 -0.9955
 3480TIP3    H234636   1.108   0.812   8.933  0.7804 -0.1183  0.7622
 3481TIP3   OH234637   0.709   6.789   8.391 -0.4325 -0.1274  0.3406
 3481TIP3    H134638   0.767   6.734   8.445  1.7291  0.2549 -1.4160
 3481TIP3    H234639   0.750   6.875   8.393 -2.3568  0.8069  0.9745
 3482TIP3   OH234640   1.860   4.084   8.092 -0.0954 -0.8309  0.2797
 3482TIP3    H134641   1.946   4.059   8.125 -0.2236 -0.8525  0.5995
 3482TIP3    H234642   1.800   4.065   8.164 -0.4315 -1.2562 -0.1095
 3483TIP3   OH234643   1.440   1.499   8.334 -0.1527  0.2463  0.4245
 3483TIP3    H134644   1.502   1.427   8.322 -0.8289 -0.2099 -0.3832
 3483TIP3    H234645   1.478   1.573   8.286 -0.4574 -0.1722 -0.4784
 3484TIP3   OH234646   3.570   7.116   3.320  0.1267 -0.5734 -0.1277
 3484TIP3    H134647   3.481   7.086   3.339 -0.5649  0.8120 -0.9941
 3484TIP3    H234648   3.584   7.189   3.380  2.4317 -3.4241  3.1782
 3485TIP3   OH234649   3.792   5.224   7.570 -0.6333 -0.2691 -0.5153
 3485TIP3    H134650   3.794   5.146   7.625  0.0948 -0.7475 -1.1935
 3485TIP3    H234651   3.815   5.296   7.629 -2.1939 -0.4214  0.3169
 3486TIP3   OH234652   7.357   4.614   0.282 -0.3431 -0.0056 -0.5064
 3486TIP3    H134653   7.422   4.649   0.222  0.5599  1.6052  1.2997
 3486TIP3    H234654   7.273   4.646   0.247  0.0120 -0.2623 -1.6386
 3487TIP3   OH234655   1.773   1.699   0.131  0.3610  0.0362 -0.4857
 3487TIP3    H134656   1.849   1.668   0.181 -0.8433 -0.8152  0.9022
 3487TIP3    H234657   1.754   1.627   0.070  1.3480  0.7506 -1.7071
 3488TIP3   OH234658   6.558   3.124   0.330  0.8036  0.1240  0.2086
 3488TIP3    H134659   6.631   3.081   0.375  1.0308 -1.6387 -1.6892
 3488TIP3    H234660   6.487   3.125   0.394  1.0188 -2.5264  0.6126
 3489TIP3   OH234661   1.612   5.095   9.541  0.4209 -0.3509 -0.1518
 3489TIP3    H134662   1.551   5.146   9.593  0.8155  0.7147 -0.6978
 3489TIP3    H234663   1.617   5.142   9.457  0.1758 -1.7459 -0.9779
 3490TIP3   OH234664   5.258   4.131   2.321 -0.6313 -0.2128 -0.4663
 3490TIP3    H134665   5.232   4.068   2.254 -0.0004 -1.2695  0.2654
 3490TIP3    H234666   5.335   4.093   2.362 -0.8635  0.5306  0.7049
 3491TIP3   OH234667   4.121   6.224   2.831  0.1641  0.3207 -0.3593
 3491TIP3    H134668   4.072   6.143   2.847  0.6311  0.0510 -0.2891
 3491TIP3    H234669   4.130   6.264   2.918  0.6008  0.0635 -0.2860
 3492TIP3   OH234670   2.768   3.268   1.540 -0.6419 -0.3452  0.6854
 3492TIP3    H134671   2.838   3.319   1.581 -0.7476  0.2450  0.1530
 3492TIP3    H234672   2.732   3.216   1.612  1.8888 -2.5106  0.5353
 3493TIP3   OH234673   1.962   4.334   9.871 -0.0207 -0.3185  0.0722
 3493TIP3    H134674   1.913   4.334   9.789  0.4304 -1.3280 -0.2128
 3493TIP3    H234675   1.896   4.339   9.940 -0.4305 -0.0991 -0.3359
 3494TIP3   OH234676   1.831   7.278   2.590 -0.6707  0.5603  0.3942
 3494TIP3    H134677   1.745   7.260   2.628 -0.5440 -0.2168  0.3224
 3494TIP3    H234678   1.812   7.331   2.513 -1.0486  0.7342  0.5995
 3495TIP3   OH234679   4.406   6.750   8.228  0.2556 -0.0618 -0.0261
 3495TIP3    H134680   4.492   6.718   8.253  0.7759  0.6769 -0.8053
 3495TIP3    H234681   4.353   6.742   8.307 -0.0258 -3.9362 -0.4454
 3496TIP3   OH234682   2.647   2.454   7.140 -0.1094  0.1137 -0.3169
 3496TIP3    H134683   2.671   2.546   7.132 -2.1481  0.6441 -0.7465
 3496TIP3    H234684   2.606   2.432   7.056  0.5952 -1.2837 -0.3321
 3497TIP3   OH234685   0.619   7.039   9.400  0.3292 -0.5030 -0.2883
 3497TIP3    H134686   0.691   6.994   9.446  0.3584 -2.0744 -1.7561
 3497TIP3    H234687   0.540   7.005   9.441  0.3936  0.4285  0.6266
 3498TIP3   OH234688   0.439   4.996   0.361 -0.2700 -0.0050 -0.1211
 3498TIP3    H134689   0.390   5.075   0.383  1.3564  1.1525 -0.4426
 3498TIP3    H234690   0.381   4.947   0.303 -1.4267  0.7998  0.3320
 3499TIP3   OH234691   2.208   0.917   2.941  0.1567  0.1283  0.3122
 3499TIP3    H134692   2.121   0.937   2.976  0.3640  0.8621  0.4186
 3499TIP3    H234693   2.218   0.976   2.866  0.5689  0.0592  0.3080
 3500TIP3   OH234694   6.761   5.940   9.502 -0.5122  0.4241 -0.1975
 3500TIP3    H134695   6.763   5.951   9.597  1.9031 -0.6428 -0.0536
 3500TIP3    H234696   6.734   5.850   9.488 -1.4131  0.7358 -0.5939
 3501TIP3   OH234697   1.911   3.011   8.347  0.3051 -0.1390  0.1777
 3501TIP3    H134698   1.988   2.966   8.381 -0.0972  0.0869  1.4647
 3501TIP3    H234699   1.843   2.994   8.413 -0.2321  1.1732 -0.0037
 3502TIP3   OH234700   1.426   5.696   1.951 -0.0133 -0.2216  0.6106
 3502TIP3    H134701   1.423   5.785   1.917  0.3648 -1.1488 -2.0596
 3502TIP3    H234702   1.336   5.664   1.941 -0.3304  0.0589  2.2868
 3503TIP3   OH234703   3.215   6.262   9.933 -0.4351  0.2547  0.3521
 3503TIP3    H134704   3.307   6.277   9.954 -0.0158 -0.7070 -0.6618
 3503TIP3    H234705   3.177   6.227  10.014  0.2636 -0.0135  0.5680
 3504TIP3   OH234706   7.065   4.795   2.644  0.2351 -0.1307  0.0341
 3504TIP3    H134707   7.135   4.768   2.584 -0.7729  1.9034 -2.2244
 3504TIP3    H234708   7.078   4.889   2.656 -1.3904  0.0637  0.5819
 3505TIP3   OH234709   1.705   1.459   7.999 -0.2632 -0.1101  0.4669
 3505TIP3    H134710   1.656   1.402   8.057  3.5521 -1.0483  3.1235
 3505TIP3    H234711   1.767   1.401   7.954  1.8162  1.4698  1.1251
 3506TIP3   OH234712   4.563   1.900   9.986 -0.0510 -0.1146 -0.7704
 3506TIP3    H134713   4.575   1.888  10.080 -0.5508  2.5276 -0.3061
 3506TIP3    H234714   4.468   1.900   9.974 -0.0486  1.4207 -0.9551
 3507TIP3   OH234715   1.346   3.921   0.117 -0.4005  0.0790 -0.0446
 3507TIP3    H134716   1.326   4.000   0.067 -1.4080 -2.1612 -3.5442
 3507TIP3    H234717   1.433   3.894   0.085  0.5364  0.3756  2.0836
 3508TIP3   OH234718   1.973   2.181   9.438 -0.5893 -0.1875 -0.2964
 3508TIP3    H134719   2.028   2.123   9.386  0.4034 -0.0711  0.5952
 3508TIP3    H234720   2.018   2.188   9.522 -1.4641  0.6914  0.1169
 3509TIP3   OH234721   0.780   0.259   8.892  0.2407 -0.5312 -0.4467
 3509TIP3    H134722   0.750   0.322   8.826  0.9977  0.5486  0.2038
 3509TIP3    H234723   0.700   0.232   8.937 -0.2292 -0.9252 -1.4958
 3510TIP3   OH234724   1.752   4.650   1.165 -0.5199  0.1345  0.3972
 3510TIP3    H134725   1.711   4.570   1.132 -0.2827 -0.8495  2.3154
 3510TIP3    H234726   1.823   4.619   1.221  0.6191  1.7486 -0.1125
 3511TIP3   OH234727   6.550   6.645   0.289  0.2124  0.1650 -0.1809
 3511TIP3    H134728   6.512   6.580   0.348  0.0823  0.3231 -0.0855
 3511TIP3    H234729   6.481   6.712   0.282  1.6604  2.2076  2.7077
 3512TIP3   OH234730   5.873   4.390   0.456 -0.1012  0.0892 -0.6151
 3512TIP3    H134731   5.963   4.412   0.432  0.4159  2.2891  2.7228
 3512TIP3    H234732   5.877   4.298   0.482  0.6197 -0.4933 -2.6095
 3513TIP3   OH234733   1.430   5.329   7.628 -0.0113  0.1076 -0.3339
 3513TIP3    H134734   1.422   5.416   7.669 -1.2818 -0.0711 -0.1694
 3513TIP3    H234735   1.524   5.311   7.629  0.0554  0.2672  2.1851
 3514TIP3   OH234736   0.526   4.817   0.099  0.5686 -0.0712  0.3379
 3514TIP3    H134737   0.490   4.822   0.011  0.8612 -0.7583  0.1725
 3514TIP3    H234738   0.466   4.758   0.146  0.8038 -0.2618  0.3989
 3515TIP3   OH234739   1.524   1.325   9.270 -0.3065 -0.2289  0.6049
 3515TIP3    H134740   1.447   1.327   9.213 -0.1810 -0.1171  0.4407
 3515TIP3    H234741   1.488   1.312   9.358 -0.6627  1.6449  0.7869
 3516TIP3   OH234742   0.047   4.176   8.066  0.3027  0.0962 -0.3799
 3516TIP3    H134743  -0.023   4.237   8.086  0.3090 -0.1647  0.4970
 3516TIP3    H234744   0.092   4.162   8.150  0.2505 -1.1615 -0.5344
 3517TIP3   OH234745   1.648   5.109   8.409  0.2861  0.3287  0.1909
 3517TIP3    H134746   1.642   5.014   8.400 -0.2323  0.2598  1.1762
 3517TIP3    H234747   1.615   5.143   8.326 -0.3290 -0.3366  0.1518
 3518TIP3   OH234748   2.636   3.504   0.922 -0.2577  0.1930 -0.1288
 3518TIP3    H134749   2.585   3.560   0.980  1.6573  2.0473 -0.1062
 3518TIP3    H234750   2.700   3.461   0.980 -0.9439 -1.1375 -0.3221
 3519TIP3   OH234751   3.178   1.521   1.647  0.5032 -0.2732  0.1105
 3519TIP3    H134752   3.250   1.535   1.708  0.2306 -1.3910  0.7087
 3519TIP3    H234753   3.196   1.581   1.574  1.6049  0.0285  0.6169
 3520TIP3   OH234754   5.525   6.452   8.026  0.4790 -0.2222  0.9782
 3520TIP3    H134755   5.491   6.429   7.940  0.1828  0.9222  0.7857
 3520TIP3    H234756   5.495   6.381   8.083  0.9707 -1.1751  0.0937
 3521TIP3   OH234757   5.726   6.249   0.741 -0.3644 -0.4793 -0.2509
 3521TIP3    H134758   5.662   6.197   0.790 -2.2161 -1.3721 -3.3553
 3521TIP3    H234759   5.704   6.340   0.763 -1.5013 -0.8287  0.1357
 3522TIP3   OH234760   5.995   6.698   8.027  0.3194 -0.1182 -0.0046
 3522TIP3    H134761   6.012   6.622   7.972  0.3490  0.4265 -0.7536
 3522TIP3    H234762   5.900   6.695   8.043  0.1476  0.2601 -0.8952
 3523TIP3   OH234763   3.714   0.300   0.513  0.3371  0.2733  0.3867
 3523TIP3    H134764   3.719   0.296   0.609  1.0834 -0.9054  0.3252
 3523TIP3    H234765   3.792   0.349   0.487  0.5797 -0.1316  0.3477
 3524TIP3   OH234766   6.686   1.165   7.408  0.0650 -0.2395  0.7101
 3524TIP3    H134767   6.702   1.248   7.362 -0.3070 -0.3822  0.3203
 3524TIP3    H234768   6.710   1.097   7.345 -0.3669 -0.4360  0.7593
 3525TIP3   OH234769   1.386   4.284   2.752 -0.2742 -0.4855 -0.1603
 3525TIP3    H134770   1.317   4.230   2.712  0.0339  1.1202 -3.1589
 3525TIP3    H234771   1.357   4.374   2.738  2.4647  0.2548 -1.7424
 3526TIP3   OH234772   3.173   1.967   0.058 -0.0562  0.0941 -0.1028
 3526TIP3    H134773   3.173   1.872   0.070  2.9853 -0.1884 -1.5799
 3526TIP3    H234774   3.233   1.999   0.125 -0.2382  0.8810 -0.3075
 3527TIP3   OH234775   0.854   0.302   2.776 -0.1912  0.7844 -0.6173
 3527TIP3    H134776   0.807   0.226   2.812  2.0271 -1.7206 -2.5631
 3527TIP3    H234777   0.786   0.356   2.736 -1.8994  0.0430  1.1632
 3528TIP3   OH234778   6.737   0.860   8.423 -0.7298 -0.0986  0.6725
 3528TIP3    H134779   6.764   0.921   8.492  0.0668 -0.0531  0.3342
 3528TIP3    H234780   6.819   0.830   8.385 -1.0660  2.4841 -2.5639
 3529TIP3   OH234781   2.719   6.740   7.543 -0.1509 -0.0071  0.0877
 3529TIP3    H134782   2.698   6.793   7.620  0.1007  0.0231  0.1377
 3529TIP3    H234783   2.634   6.719   7.504 -0.2191  1.1015 -0.3841
 3530TIP3   OH234784   5.465   5.819   8.650  0.1329  0.4577 -0.0797
 3530TIP3    H134785   5.527   5.754   8.618  1.2576  1.2505  0.4411
 3530TIP3    H234786   5.494   5.902   8.612 -1.1861  0.7043 -0.6038
 3531TIP3   OH234787   0.512   4.728   8.317  0.4263 -0.2257  0.0589
 3531TIP3    H134788   0.460   4.716   8.237  2.7871  0.1297 -1.6540
 3531TIP3    H234789   0.517   4.641   8.356 -1.0187 -0.3493  0.0515
 3532TIP3   OH234790   0.990   6.243   0.947 -0.0144 -0.4550 -0.2346
 3532TIP3    H134791   1.065   6.184   0.956  0.1096 -0.2897 -0.1761
 3532TIP3    H234792   0.922   6.190   0.905  0.3258 -0.4509 -0.8008
 3533TIP3   OH234793   5.052   1.094   1.898  0.1785  0.1049 -0.4217
 3533TIP3    H134794   5.127   1.078   1.954 -0.8174 -0.2588  0.8709
 3533TIP3    H234795   5.089   1.114   1.812  1.6974 -1.4896 -0.1896
 3534TIP3   OH234796   3.307   1.267   8.096  0.7809 -0.2219 -0.3011
 3534TIP3    H134797   3.302   1.362   8.103 -0.6793 -0.3012 -0.0233
 3534TIP3    H234798   3.315   1.250   8.003  0.3666  0.1502 -0.4052
 3535TIP3   OH234799   6.785   3.884   8.379 -0.3738 -0.2197 -0.3738
 3535TIP3    H134800   6.870   3.855   8.409  0.5440  2.7162  0.2345
 3535TIP3    H234801   6.722   3.839   8.436  0.8511 -1.1286  0.3006
 3536TIP3   OH234802   4.633   0.985   1.063 -0.0326  0.0697 -0.1860
 3536TIP3    H134803   4.674   1.071   1.068 -0.3302  0.2941 -1.3972
 3536TIP3    H234804   4.543   0.999   1.091  0.4591 -0.2766  1.7080
 3537TIP3   OH234805   3.465   5.311   1.191 -0.6391 -0.2134 -0.3096
 3537TIP3    H134806   3.528   5.378   1.215  0.2832 -0.8759 -0.8114
 3537TIP3    H234807   3.441   5.269   1.273 -0.9133  0.4527 -0.0432
 3538TIP3   OH234808   4.531   3.692   2.389 -0.4687 -0.3130  0.1259
 3538TIP3    H134809   4.570   3.779   2.383  2.6600 -1.6075 -0.8843
 3538TIP3    H234810   4.554   3.661   2.476 -2.2680  0.0887  0.7864
 3539TIP3   OH234811   5.105   0.980   8.401  0.3169 -1.1068  0.0775
 3539TIP3    H134812   5.161   0.993   8.477  1.5094  2.9229 -1.2666
 3539TIP3    H234813   5.164   0.951   8.332  0.2537  0.2107 -0.5607
 3540TIP3   OH234814   3.597   3.126   8.631 -0.2428 -0.4754  0.0510
 3540TIP3    H134815   3.581   3.050   8.686  1.3634 -1.2484 -0.4740
 3540TIP3    H234816   3.526   3.127   8.568 -0.1156 -1.7296 -0.1228
 3541TIP3   OH234817   2.673   4.830   6.117  0.4821  0.3985  0.0353
 3541TIP3    H134818   2.613   4.825   6.042 -0.2733  0.3737  0.6345
 3541TIP3    H234819   2.619   4.860   6.190  1.1678  0.2289  0.6276
 3542TIP3   OH234820   6.136   4.070   8.738 -0.4132  0.5405  0.0169
 3542TIP3    H134821   6.080   4.134   8.783 -0.8544 -0.0069  0.2643
 3542TIP3    H234822   6.136   4.098   8.647 -0.2427  1.1472  0.1965
 3543TIP3   OH234823   0.689   6.229   9.930  0.3501  0.0535  0.0469
 3543TIP3    H134824   0.673   6.143   9.969 -1.6903  0.6999  0.7670
 3543TIP3    H234825   0.697   6.288  10.005  3.6880  0.3050 -0.3454
 3544TIP3   OH234826   6.417   6.091   1.655  0.0714 -0.1414 -0.4388
 3544TIP3    H134827   6.499   6.072   1.700 -0.5695 -1.1894  0.3399
 3544TIP3    H234828   6.363   6.134   1.721  0.2713  1.3530 -1.1981
 3545TIP3   OH234829   3.949   0.951   2.304 -0.2444  0.0428  0.3943
 3545TIP3    H134830   3.975   0.906   2.385  0.7317  1.1196  0.7042
 3545TIP3    H234831   3.893   0.888   2.259 -0.1642 -0.8827  1.5384
 3546TIP3   OH234832   2.109   2.630   8.741 -0.5096  0.4903  0.5956
 3546TIP3    H134833   2.078   2.680   8.816  1.9888  0.9316  1.4497
 3546TIP3    H234834   2.137   2.546   8.777  0.3100  0.5371  0.1038
 3547TIP3   OH234835   1.747   6.290   1.033 -0.3743 -0.6448 -0.0908
 3547TIP3    H134836   1.694   6.231   0.980  0.3345 -0.6014 -0.8655
 3547TIP3    H234837   1.820   6.314   0.977  0.6932 -1.0195  1.0913
 3548TIP3   OH234838   2.419   1.046   8.983 -0.1864 -0.1086 -0.3158
 3548TIP3    H134839   2.394   0.979   9.047  0.3542  1.2475  1.4047
 3548TIP3    H234840   2.374   1.125   9.012  0.1667  0.5902 -1.5707
 3549TIP3   OH234841   3.451   2.423   8.412 -0.5068 -0.1141  0.2446
 3549TIP3    H134842   3.473   2.491   8.348 -0.3142 -0.3788  0.0312
 3549TIP3    H234843   3.462   2.341   8.365  0.2791 -0.3431  0.7993
 3550TIP3   OH234844   3.690   0.358   9.006 -0.1459  0.2722 -0.0758
 3550TIP3    H134845   3.622   0.354   9.073 -0.0201 -0.2983  0.0299
 3550TIP3    H234846   3.654   0.415   8.938 -1.0910 -0.6965 -0.4189
 3551TIP3   OH234847   1.409   7.286   7.733  0.3925  0.3647 -0.0618
 3551TIP3    H134848   1.323   7.250   7.753  0.0406  1.2720  0.1158
 3551TIP3    H234849   1.406   7.303   7.639  0.1058  1.0774  0.0716
 3552TIP3   OH234850   4.501   0.415   0.039  0.4542 -0.0432 -0.3566
 3552TIP3    H134851   4.504   0.381  -0.051  0.6612  0.1014 -0.4061
 3552TIP3    H234852   4.456   0.499   0.031  0.7043  0.0934 -0.3684
 3553TIP3   OH234853   4.814   5.584   9.861  0.5005  0.0030 -0.2403
 3553TIP3    H134854   4.725   5.566   9.833  0.0654 -0.0273  1.0721
 3553TIP3    H234855   4.854   5.497   9.869  0.0459 -0.1203  0.9658
 3554TIP3   OH234856   5.680   2.735   1.090  0.0116  0.1476 -0.1920
 3554TIP3    H134857   5.745   2.798   1.119  3.5569 -2.9459 -0.6639
 3554TIP3    H234858   5.644   2.773   1.010  0.9445  2.1423  0.2634
 3555TIP3   OH234859   0.589   7.083   1.562 -0.0410 -0.4663 -0.0528
 3555TIP3    H134860   0.594   7.134   1.481 -0.4542  0.7249  0.6468
 3555TIP3    H234861   0.598   7.148   1.632 -0.1071 -1.4235  0.8673
 3556TIP3   OH234862   6.843   3.063   9.035 -0.5793 -0.3688  0.2436
 3556TIP3    H134863   6.834   3.108   9.120 -2.1280  3.3092 -1.6006
 3556TIP3    H234864   6.755   3.029   9.018 -0.7171  0.3211 -0.5026
 3557TIP3   OH234865   1.234   2.004   0.721 -0.3154 -0.2727 -0.0055
 3557TIP3    H134866   1.164   2.061   0.687 -0.1547  0.2511  0.5220
 3557TIP3    H234867   1.296   1.997   0.648 -0.9078 -0.7349 -0.4727
 3558TIP3   OH234868   1.642   7.074   8.200  0.7817 -0.6050  0.0472
 3558TIP3    H134869   1.647   7.090   8.106  2.3590  0.1583  0.2229
 3558TIP3    H234870   1.681   7.153   8.240  0.1501 -0.9157  1.3390
 3559TIP3   OH234871   5.878   7.038   0.803 -0.5188 -0.6396 -0.3191
 3559TIP3    H134872   5.811   6.993   0.750 -1.5440  0.5364 -0.0858
 3559TIP3    H234873   5.923   7.094   0.740  1.3111 -2.4987 -0.7734
 3560TIP3   OH234874   6.288   5.482   9.690 -0.0541 -0.2799  0.3872
 3560TIP3    H134875   6.207   5.458   9.735 -0.0803  2.6242  2.2232
 3560TIP3    H234876   6.344   5.516   9.760  1.3724  1.0351 -1.2965
 3561TIP3   OH234877   4.680   6.976   7.765 -0.2173  0.0565 -0.5765
 3561TIP3    H134878   4.655   6.974   7.857  0.6226 -0.2838 -0.3519
 3561TIP3    H234879   4.614   6.923   7.721 -2.0630  2.1594 -0.5582
 3562TIP3   OH234880   2.146   6.671   1.113  0.1513  0.2452  0.3674
 3562TIP3    H134881   2.111   6.604   1.171  0.9804 -0.2813  0.2681
 3562TIP3    H234882   2.140   6.753   1.163  2.1010 -0.3962  1.7277
 3563TIP3   OH234883   7.141   1.638   9.433 -0.1365  0.2862  0.0613
 3563TIP3    H134884   7.224   1.604   9.467  0.3275  1.8160  0.5665
 3563TIP3    H234885   7.141   1.730   9.460 -0.8047  0.9949 -2.1623
 3564TIP3   OH234886   5.729   1.955   2.362 -0.0492 -0.2593 -0.4649
 3564TIP3    H134887   5.750   1.863   2.375 -0.0046 -0.3636 -1.2596
 3564TIP3    H234888   5.636   1.956   2.342 -0.1499 -0.0837 -0.0056
 3565TIP3   OH234889   6.582   4.683   9.935  0.1178  0.1510 -0.3081
 3565TIP3    H134890   6.595   4.708   9.843  0.7676  0.9957  0.0117
 3565TIP3    H234891   6.646   4.613   9.950 -0.1992 -0.2045 -0.5756
 3566TIP3   OH234892   6.964   4.014   1.426  0.8346 -0.0985  0.3645
 3566TIP3    H134893   7.015   3.975   1.497  2.5826  0.0837 -0.7399
 3566TIP3    H234894   7.029   4.038   1.360 -0.9275 -3.6801 -3.0390
 3567TIP3   OH234895   6.483   5.889   1.932 -0.0759  0.6480  0.5827
 3567TIP3    H134896   6.518   5.974   1.908 -0.0800  0.4912 -0.0025
 3567TIP3    H234897   6.517   5.829   1.865 -0.7221  0.3373  0.5241
 3568TIP3   OH234898   1.951   3.999   9.386  0.0109  0.7843 -0.2720
 3568TIP3    H134899   1.957   3.974   9.478  1.1120 -0.4889 -0.6515
 3568TIP3    H234900   1.919   4.089   9.388  0.5679  0.9920  1.3824
 3569TIP3   OH234901   4.611   5.516   8.877  0.1538  0.1766  0.7696
 3569TIP3    H134902   4.655   5.485   8.956  1.8581  0.6200  0.0268
 3569TIP3    H234903   4.656   5.597   8.854 -1.0501  0.6399 -0.0494
 3570TIP3   OH234904   0.310   4.083   7.899  0.0506 -0.1953  0.4137
 3570TIP3    H134905   0.245   4.020   7.930  0.2950 -0.3183  0.6834
 3570TIP3    H234906   0.361   4.035   7.833 -0.9958  0.3164 -0.8131
 3571TIP3   OH234907   1.016   2.456   0.033 -0.6471 -0.2911  0.2640
 3571TIP3    H134908   1.015   2.406   0.114  1.9009  1.0944  1.2467
 3571TIP3    H234909   0.997   2.546   0.059 -1.2826 -0.0579 -0.9117
 3572TIP3   OH234910   3.200   1.635   8.183 -0.4151 -0.8400 -0.0309
 3572TIP3    H134911   3.233   1.718   8.150 -1.0551 -1.5396 -2.6591
 3572TIP3    H234912   3.272   1.600   8.236  1.1515 -0.0781 -1.5625
 3573TIP3   OH234913   0.150   5.718   6.952 -0.0259  0.0190 -0.1681
 3573TIP3    H134914   0.226   5.684   6.998  0.2498  1.7656  0.7540
 3573TIP3    H234915   0.077   5.702   7.012 -0.2687 -0.8920 -0.6884
 3574TIP3   OH234916   6.465   4.420   9.817 -0.1636  0.4381 -0.3566
 3574TIP3    H134917   6.402   4.492   9.826  0.2409  0.5542  2.1686
 3574TIP3    H234918   6.536   4.458   9.765 -0.8150  1.2360 -0.6991
 3575TIP3   OH234919   3.771   0.788   2.584 -0.3065 -0.3334  0.3565
 3575TIP3    H134920   3.766   0.714   2.525 -0.8158  1.4432 -1.9849
 3575TIP3    H234921   3.861   0.819   2.578 -0.7348  0.7829 -0.7839
 3576TIP3   OH234922   7.150   4.335   0.378  0.6044  0.5805  0.5782
 3576TIP3    H134923   7.229   4.356   0.427  0.8858  0.0746  0.3509
 3576TIP3    H234924   7.111   4.261   0.425  0.4102  0.6565  0.5389
 3577TIP3   OH234925   1.614   3.691   0.483 -0.1597 -0.4843  0.1809
 3577TIP3    H134926   1.645   3.765   0.431  0.0735 -0.4007  0.4406
 3577TIP3    H234927   1.544   3.728   0.538 -0.9542 -0.7399 -0.6339
 3578TIP3   OH234928   5.371   1.772   9.757 -0.8380  0.2598 -0.3662
 3578TIP3    H134929   5.400   1.762   9.666  0.7667 -0.5373  0.2004
 3578TIP3    H234930   5.379   1.684   9.794  0.2825  0.9176  1.0256
 3579TIP3   OH234931   1.172   7.390   2.149 -0.2738  0.1598 -0.0842
 3579TIP3    H134932   1.237   7.389   2.219 -0.5838 -1.0903  0.2222
 3579TIP3    H234933   1.126   7.306   2.159 -0.2400 -0.0952 -1.8561
 3580TIP3   OH234934   0.831   2.247   1.741 -0.1470 -0.1741 -0.2852
 3580TIP3    H134935   0.772   2.317   1.714  0.4415  1.1437  1.6283
 3580TIP3    H234936   0.790   2.167   1.708 -1.9116  0.8714 -0.7675
 3581TIP3   OH234937   3.766   6.381   3.186  0.4958 -0.4015  0.3122
 3581TIP3    H134938   3.766   6.474   3.161  0.0389 -0.6383 -0.6443
 3581TIP3    H234939   3.673   6.360   3.199  0.5812 -0.7599  0.3459
 3582TIP3   OH234940   6.741   6.702   7.677  0.1217 -0.3267 -0.1051
 3582TIP3    H134941   6.721   6.795   7.693 -0.4128 -0.6707  1.3612
 3582TIP3    H234942   6.834   6.694   7.696  0.7762  0.3888 -2.6915
 3583TIP3   OH234943   1.032   0.564   8.737  0.1812  0.2100 -0.3937
 3583TIP3    H134944   1.048   0.506   8.812 -0.4588  0.7781  0.2030
 3583TIP3    H234945   1.118   0.601   8.716  0.4474 -0.3217 -0.2512
 3584TIP3   OH234946   6.742   5.066   1.781  0.5356  0.2347  0.3160
 3584TIP3    H134947   6.697   5.041   1.700  1.6114 -1.8599  0.2859
 3584TIP3    H234948   6.738   4.987   1.835 -1.3654  1.9625  2.9457
 3585TIP3   OH234949   3.944   4.363   0.176 -0.4791 -0.0299  0.2823
 3585TIP3    H134950   3.868   4.313   0.144 -0.1351 -0.4220  0.0647
 3585TIP3    H234951   3.932   4.365   0.271 -0.2130 -1.0287  0.3560
 3586TIP3   OH234952   4.074   6.437   8.463 -0.3227 -0.3438 -0.2935
 3586TIP3    H134953   3.985   6.437   8.499 -0.5659  0.5533 -0.8662
 3586TIP3    H234954   4.129   6.467   8.536 -0.4872 -0.8361  0.0423
 3587TIP3   OH234955   0.270   7.073   0.023 -0.0463 -0.5507 -0.1588
 3587TIP3    H134956   0.229   7.112   0.100 -1.3033 -0.9935 -0.5812
 3587TIP3    H234957   0.364   7.090   0.034 -0.1953 -0.7270  1.5139
 3588TIP3   OH234958   6.809   4.805   0.146 -0.1588 -0.6465  0.2782
 3588TIP3    H134959   6.810   4.715   0.112 -0.3345  0.3053 -2.5138
 3588TIP3    H234960   6.721   4.816   0.181 -0.6609 -1.1251 -0.7824
 3589TIP3   OH234961   1.951   7.014   2.019  0.1354 -0.4344  0.1631
 3589TIP3    H134962   2.039   7.043   2.045  0.1492  0.7975 -1.1161
 3589TIP3    H234963   1.905   7.095   1.997 -0.2160 -1.2599 -2.4767
 3590TIP3   OH234964   2.676   2.943   1.455 -0.3825 -0.5705 -0.3502
 3590TIP3    H134965   2.742   2.912   1.518 -0.3099  0.2682  0.0090
 3590TIP3    H234966   2.607   2.980   1.510 -1.0428 -1.2095 -0.7351
 3591TIP3   OH234967   4.710   5.054   3.075 -0.1570 -0.0124 -0.1514
 3591TIP3    H134968   4.738   5.146   3.084 -0.0440 -0.1638  1.4806
 3591TIP3    H234969   4.697   5.041   2.981 -0.4678  1.7627 -0.3859
 3592TIP3   OH234970   0.185   1.535   0.311  0.3571  0.3734 -0.2005
 3592TIP3    H134971   0.136   1.461   0.276  1.9862 -0.7541 -0.2175
 3592TIP3    H234972   0.119   1.592   0.350 -1.1183 -0.1921 -1.7567
 3593TIP3   OH234973   0.880   1.843   1.030 -0.2892 -0.6372  0.4714
 3593TIP3    H134974   0.965   1.824   1.069  0.2297 -0.5031 -0.5801
 3593TIP3    H234975   0.839   1.757   1.018  0.6140 -0.8889 -1.0370
 3594TIP3   OH234976   0.712   1.685   0.271  0.2694 -0.1537 -0.2824
 3594TIP3    H134977   0.629   1.679   0.317 -0.1007  2.3180 -0.4966
 3594TIP3    H234978   0.766   1.616   0.310 -1.5981 -1.2985  0.3967
 3595TIP3   OH234979   0.579   4.816   7.082 -0.4833 -0.0973  0.2618
 3595TIP3    H134980   0.539   4.790   6.998 -0.4420  0.6251  0.0094
 3595TIP3    H234981   0.644   4.748   7.100 -0.0714  0.0504 -0.6041
 3596TIP3   OH234982   5.530   0.589   0.762  0.2364 -0.7444  0.4076
 3596TIP3    H134983   5.605   0.573   0.705  0.6337 -1.3401  1.0793
 3596TIP3    H234984   5.500   0.677   0.739  0.9336 -0.6345 -0.0958
 3597TIP3   OH234985   1.625   4.340   7.900 -0.1233  0.3298 -0.3564
 3597TIP3    H134986   1.552   4.337   7.962  0.6630 -0.8736  0.5530
 3597TIP3    H234987   1.614   4.261   7.847  0.2530  0.3843 -0.5204
 3598TIP3   OH234988   2.657   5.300   7.655 -0.1206  0.8424 -0.5735
 3598TIP3    H134989   2.592   5.367   7.679  0.1097  1.5223 -1.7757
 3598TIP3    H234990   2.633   5.224   7.708 -1.5439  1.2720 -0.5576
 3599TIP3   OH234991   4.668   6.017   9.899 -0.3006  0.8530  0.1866
 3599TIP3    H134992   4.605   6.063   9.954 -1.8855  1.2634 -1.8686
 3599TIP3    H234993   4.693   5.940   9.950 -0.7431  1.8202  1.9547
 3600TIP3   OH234994   0.459   3.352   8.715  0.1696 -0.0923 -0.1326
 3600TIP3    H134995   0.409   3.300   8.652 -0.0649  0.9568 -0.8410
 3600TIP3    H234996   0.465   3.297   8.792 -0.6559 -0.9006 -0.6238
 3601TIP3   OH234997   7.087   2.005   8.707 -0.0393 -0.0207 -0.7132
 3601TIP3    H134998   7.082   1.932   8.768  1.3534 -0.6994 -1.3561
 3601TIP3    H234999   7.045   1.971   8.627 -3.6221  1.4974  0.3165
 3602TIP3   OH235000   1.439   6.049   8.340  0.2220  0.4092  0.5311
 3602TIP3    H135001   1.394   5.967   8.354 -0.5586  0.4547 -1.4395
 3602TIP3    H235002   1.484   6.067   8.424 -0.8389 -1.2001  1.4860
 3603TIP3   OH235003   4.833   2.065   8.985 -0.3518 -0.1775 -0.0474
 3603TIP3    H135004   4.796   2.115   8.912 -2.6851  0.0009  1.1561
 3603TIP3    H235005   4.812   2.117   9.063  1.9717 -0.4079  0.8272
 3604TIP3   OH235006   2.732   1.439   8.206  0.4539  0.3065 -0.2830
 3604TIP3    H135007   2.729   1.515   8.264 -0.6767  1.1250 -1.3613
 3604TIP3    H235008   2.826   1.419   8.196  0.6699 -0.3478  2.3683
 3605TIP3   OH235009   0.049   2.229   1.520  0.0814 -0.3821 -0.0249
 3605TIP3    H135010  -0.008   2.263   1.451  0.8243 -0.9985 -0.9669
 3605TIP3    H235011  -0.011   2.199   1.589 -0.6638  0.3520 -0.3425
 3606TIP3   OH235012   0.049   6.724   7.492  0.0076  0.2690  0.1065
 3606TIP3    H135013  -0.013   6.683   7.433  0.1645  1.0217 -0.6074
 3606TIP3    H235014  -0.003   6.754   7.566 -0.3497  0.2057 -0.1200
 3607TIP3   OH235015   0.511   7.217   8.878 -0.0599  0.1207  0.5429
 3607TIP3    H135016   0.515   7.158   8.953  0.8662 -1.3725 -0.6165
 3607TIP3    H235017   0.563   7.173   8.811 -1.2889  1.1541 -1.1515
 3608TIP3   OH235018   0.681   1.388   0.754 -0.2812 -0.2796  0.5507
 3608TIP3    H135019   0.607   1.335   0.784  0.0016 -1.5024 -0.7823
 3608TIP3    H235020   0.758   1.340   0.784 -0.0189 -0.5973 -0.5868
 3609TIP3   OH235021   1.138   1.277   1.378  0.3726 -0.3598  0.0902
 3609TIP3    H135022   1.197   1.348   1.353 -0.7058 -0.1940 -2.2016
 3609TIP3    H235023   1.138   1.279   1.474  2.0205  1.3255  0.1121
 3610TIP3   OH235024   4.843   6.422   1.086 -0.2020  0.0849 -0.3682
 3610TIP3    H135025   4.846   6.374   1.003  1.2752  0.6739 -0.6726
 3610TIP3    H235026   4.922   6.475   1.087 -0.0911 -0.0448  1.5237
 3611TIP3   OH235027   2.759   2.452   9.213  0.4945 -0.0400 -0.0751
 3611TIP3    H135028   2.802   2.527   9.254  1.2998 -0.2068 -0.5857
 3611TIP3    H235029   2.673   2.485   9.187  0.0567  0.1367  1.4982
 3612TIP3   OH235030   5.298   5.025   8.503 -0.1536 -0.1992  0.4807
 3612TIP3    H135031   5.276   5.064   8.587  0.7204  0.2958  0.4893
 3612TIP3    H235032   5.217   5.028   8.453 -0.4802  0.2161  1.0295
 3613TIP3   OH235033   4.500   2.659   8.241 -0.5650 -0.3256 -0.1349
 3613TIP3    H135034   4.413   2.655   8.281 -1.0378  1.2310 -0.9101
 3613TIP3    H235035   4.488   2.715   8.165  1.8624  3.2741  1.8533
 3614TIP3   OH235036   1.116   2.799   2.192  0.0206  0.2921  0.0128
 3614TIP3    H135037   1.152   2.831   2.275  0.7899  0.6673 -0.4605
 3614TIP3    H235038   1.182   2.738   2.159 -1.6309 -2.3061  1.1513
 3615TIP3   OH235039   0.585   1.892   7.135 -0.1828 -0.1547 -0.0081
 3615TIP3    H135040   0.570   1.865   7.226  1.2624  0.9413  0.5775
 3615TIP3    H235041   0.579   1.987   7.136  3.2702  0.1999 -0.3071
 3616TIP3   OH235042   2.543   5.873   7.897  0.4003 -0.2246  0.0066
 3616TIP3    H135043   2.565   5.963   7.920 -0.5534 -0.0467  0.2864
 3616TIP3    H235044   2.609   5.846   7.834  1.3974  0.2644  0.8288
 3617TIP3   OH235045   2.122   7.218   7.305 -0.2372  0.7056 -0.2314
 3617TIP3    H135046   2.162   7.305   7.308  1.2974  0.0553 -0.7630
 3617TIP3    H235047   2.111   7.199   7.212 -0.5717  0.3249 -0.1199
 3618TIP3   OH235048   4.676   4.064   0.628  0.2937 -0.4334 -0.1984
 3618TIP3    H135049   4.613   4.110   0.683  1.1803  0.9442 -0.3012
 3618TIP3    H235050   4.628   3.989   0.594 -0.5374 -0.8329  1.7382
 3619TIP3   OH235051   6.627   3.602   1.495 -0.4578 -0.1882 -0.3496
 3619TIP3    H135052   6.641   3.520   1.543 -1.2875 -0.6963 -0.9632
 3619TIP3    H235053   6.701   3.657   1.522 -0.8322 -0.4861  1.4206
 3620TIP3   OH235054   3.540   6.266   2.250 -0.8475  0.1676 -0.3604
 3620TIP3    H135055   3.479   6.333   2.282 -0.8337  0.5855 -1.1672
 3620TIP3    H235056   3.526   6.266   2.155  2.0546  1.9480 -0.8997
 3621TIP3   OH235057   1.434   3.842   9.018 -0.3652 -0.2430 -0.8540
 3621TIP3    H135058   1.510   3.899   9.023 -1.0327  0.5604  1.3309
 3621TIP3    H235059   1.367   3.895   8.975 -0.2118 -0.3209 -1.1896
 3622TIP3   OH235060   3.777   4.933   1.248  0.1236  0.3420  0.3905
 3622TIP3    H135061   3.803   4.927   1.156  0.6428  1.6686  0.4247
 3622TIP3    H235062   3.822   4.860   1.291  1.2121  0.6851 -0.1250
 3623TIP3   OH235063   1.103   6.139   0.589 -0.6575  0.0262 -0.3971
 3623TIP3    H135064   1.141   6.129   0.502 -0.6905 -1.1939 -0.2787
 3623TIP3    H235065   1.010   6.119   0.577 -0.7550  0.3316 -0.1678
 3624TIP3   OH235066   3.833   2.081   9.231 -0.1685 -0.3714 -0.1082
 3624TIP3    H135067   3.919   2.086   9.189  0.2042 -0.4955  0.6252
 3624TIP3    H235068   3.806   1.990   9.221 -0.6260 -0.1330 -1.1281
 3625TIP3   OH235069   6.135   4.621   9.097 -0.2782  0.4280  0.1024
 3625TIP3    H135070   6.125   4.711   9.130 -0.5656  0.2275  0.5770
 3625TIP3    H235071   6.071   4.570   9.148  1.4854 -0.4673  1.5237
 3626TIP3   OH235072   4.368   2.769   0.324 -0.0336  0.5122 -0.5859
 3626TIP3    H135073   4.327   2.720   0.252 -0.2884  1.4491 -1.0969
 3626TIP3    H235074   4.401   2.701   0.383 -2.4418 -0.2955 -0.0660
 3627TIP3   OH235075   3.536   2.989   7.691  0.5013 -0.0882  0.2104
 3627TIP3    H135076   3.569   3.031   7.611  1.6730  1.4110  1.4267
 3627TIP3    H235077   3.458   3.040   7.713  1.3267  0.8108  1.1111
 3628TIP3   OH235078   5.562   2.630   1.676 -0.4423  0.1149  0.7319
 3628TIP3    H135079   5.613   2.572   1.733 -0.4379 -2.3510 -1.5510
 3628TIP3    H235080   5.626   2.686   1.633  0.1414 -1.2464 -0.2496
 3629TIP3   OH235081   6.619   6.931   1.956 -0.1741 -0.2879 -0.3557
 3629TIP3    H135082   6.596   7.008   2.009 -0.5518 -0.2036 -0.6444
 3629TIP3    H235083   6.665   6.967   1.881 -0.8154 -0.2981 -0.7582
 3630TIP3   OH235084   5.128   6.296   0.011  0.2708  0.0987  0.6159
 3630TIP3    H135085   5.211   6.332  -0.019 -0.2628  2.0481  1.2980
 3630TIP3    H235086   5.098   6.358   0.078 -1.9837 -0.2305  0.0009
 3631TIP3   OH235087   4.395   2.028   7.642  0.0241 -0.3224  0.1013
 3631TIP3    H135088   4.412   1.935   7.626  0.4128 -0.2359  0.0029
 3631TIP3    H235089   4.338   2.055   7.569  0.0012 -0.4580  0.0688
 3632TIP3   OH235090   7.406   1.523   9.483  0.0467  0.4529 -0.2557
 3632TIP3    H135091   7.450   1.517   9.568 -1.7336  1.2302  0.7923
 3632TIP3    H235092   7.475   1.510   9.418  1.3304 -0.8861  1.3197
 3633TIP3   OH235093   6.958   3.361   0.665 -0.8001  0.2648 -0.1209
 3633TIP3    H135094   6.990   3.376   0.575 -0.3897  0.1739  0.0056
 3633TIP3    H235095   7.029   3.311   0.707 -0.1838  1.8233  0.7852
 3634TIP3   OH235096   2.613   5.789   9.749 -0.0019 -0.2154  0.4000
 3634TIP3    H135097   2.587   5.829   9.666  0.5219  0.2120  0.4433
 3634TIP3    H235098   2.700   5.823   9.766  0.8826 -2.1066 -0.0562
 3635TIP3   OH235099   3.602   1.795   7.845  0.1323  0.0900  0.1582
 3635TIP3    H135100   3.628   1.706   7.822  0.7625  0.1587  0.5703
 3635TIP3    H235101   3.546   1.823   7.773  1.2949 -0.0299 -0.8203
 3636TIP3   OH235102   2.916   6.319   8.938 -0.0192 -0.4810  0.1759
 3636TIP3    H135103   3.008   6.316   8.914 -0.1906  4.0256 -2.1451
 3636TIP3    H235104   2.870   6.343   8.857 -2.6506  1.3305  2.0032
 3637TIP3   OH235105   4.705   5.443   9.107  0.6974  0.0811 -1.2464
 3637TIP3    H135106   4.770   5.372   9.109 -1.2963 -1.8613 -0.1324
 3637TIP3    H235107   4.742   5.511   9.163  2.4255 -0.2676 -1.8906
 3638TIP3   OH235108   4.299   1.660   8.794  0.2678 -0.0279 -1.3948
 3638TIP3    H135109   4.303   1.606   8.715 -0.0280 -0.6690 -0.9722
 3638TIP3    H235110   4.390   1.685   8.810  0.7410 -2.2240 -0.3403
 3639TIP3   OH235111   5.315   6.434   1.018  0.8703 -0.0845  0.3566
 3639TIP3    H135112   5.348   6.444   0.929 -0.1474 -0.3315 -0.0645
 3639TIP3    H235113   5.229   6.477   1.017  0.0991 -1.5452  0.7479
 3640TIP3   OH235114   0.433   1.361   1.655  0.3653 -0.0792 -0.3664
 3640TIP3    H135115   0.514   1.353   1.706  1.0928  2.1249 -1.0874
 3640TIP3    H235116   0.446   1.303   1.580  0.7251 -0.6779  0.1427
 3641TIP3   OH235117   4.558   2.097   1.410 -0.0042 -0.0382 -0.1439
 3641TIP3    H135118   4.595   2.057   1.489 -0.9560 -0.0007  0.3449
 3641TIP3    H235119   4.496   2.032   1.377  1.6027 -0.7698 -1.8590
 3642TIP3   OH235120   4.562   1.490   8.739 -0.3897 -0.1293 -0.2940
 3642TIP3    H135121   4.631   1.549   8.769 -0.5541  0.6147 -1.2996
 3642TIP3    H235122   4.530   1.447   8.818  0.9338 -0.1772  0.2420
 3643TIP3   OH235123   5.730   1.085   0.679 -0.5941 -0.6897  0.4243
 3643TIP3    H135124   5.789   1.044   0.742 -0.8753 -1.1341  0.4071
 3643TIP3    H235125   5.766   1.172   0.665  0.7200 -1.3373 -0.4535
 3644TIP3   OH235126   5.146   0.611   7.498 -0.0328 -0.1020  0.0856
 3644TIP3    H135127   5.191   0.664   7.564 -0.2108  0.5533 -0.3112
 3644TIP3    H235128   5.203   0.615   7.421 -0.1981 -0.2348 -0.0435
 3645TIP3   OH235129   3.646   3.113   0.913  0.6020 -0.3448 -0.7480
 3645TIP3    H135130   3.695   3.078   0.839  1.1980 -0.9625 -0.0885
 3645TIP3    H235131   3.569   3.057   0.919  0.6537 -0.4214 -0.7894
 3646TIP3   OH235132   5.511   2.445   8.985 -0.0240 -0.0069  0.2153
 3646TIP3    H135133   5.481   2.406   8.902 -1.7652 -1.4294  1.4334
 3646TIP3    H235134   5.595   2.486   8.963 -1.4147  1.6207 -2.7604
 3647TIP3   OH235135   1.285   0.182   9.461  0.5648  0.3757  0.0956
 3647TIP3    H135136   1.334   0.263   9.447  0.9091  0.1605  0.0237
 3647TIP3    H235137   1.320   0.148   9.543  2.8897 -1.4165 -1.4827
 3648TIP3   OH235138   2.450   2.840   0.292 -0.0149 -0.5281 -0.3541
 3648TIP3    H135139   2.366   2.839   0.337  0.3979  3.2248  0.8768
 3648TIP3    H235140   2.508   2.788   0.348 -0.6578  0.0033  0.8406
 3649TIP3   OH235141   2.331   6.473   7.087  0.2951 -0.1414  0.3362
 3649TIP3    H135142   2.367   6.432   7.009  1.9705  0.3860  0.7958
 3649TIP3    H235143   2.253   6.519   7.056  0.5604 -0.4771 -0.8865
 3650TIP3   OH235144   0.118   1.459   1.535  0.1178 -0.7844  0.5834
 3650TIP3    H135145   0.164   1.504   1.606 -1.1785 -0.8390  1.4771
 3650TIP3    H235146   0.029   1.493   1.538 -0.3360 -1.8606 -0.0974
 3651TIP3   OH235147   1.677   0.652   9.835 -0.1229  0.1710  0.8029
 3651TIP3    H135148   1.693   0.683   9.746  0.7326 -1.1468  0.4817
 3651TIP3    H235149   1.593   0.692   9.859  0.2063  1.4876 -0.1363
 3652TIP3   OH235150   5.220   4.338   8.545 -0.5063 -0.8254  0.5358
 3652TIP3    H135151   5.205   4.397   8.619  2.3056  0.8811 -0.0772
 3652TIP3    H235152   5.167   4.374   8.474 -0.3640 -0.2547  0.7177
 3653TIP3   OH235153   0.435   7.291   1.840 -0.5976  0.0755  0.1442
 3653TIP3    H135154   0.343   7.281   1.862 -0.6825  2.1927  0.9802
 3653TIP3    H235155   0.450   7.385   1.839  1.3839 -0.1851 -0.7753
 3654TIP3   OH235156   4.731   1.012   9.062  0.3120 -0.0658 -0.5485
 3654TIP3    H135157   4.733   0.977   8.972 -0.7469  0.4340 -0.7792
 3654TIP3    H235158   4.756   1.104   9.052  0.3823 -0.0565 -0.2939
 3655TIP3   OH235159   1.785   1.466   1.866  0.1384  0.4178  0.2007
 3655TIP3    H135160   1.704   1.487   1.913 -0.4089 -0.7006 -0.2095
 3655TIP3    H235161   1.755   1.424   1.785  0.8905  4.3939 -2.4502
 3656TIP3   OH235162   4.497   2.139   9.645  0.2293 -0.0782  0.5258
 3656TIP3    H135163   4.504   2.043   9.645  1.3993 -0.0128 -0.8830
 3656TIP3    H235164   4.423   2.157   9.704 -0.2779 -1.8605  0.4936
 3657TIP3   OH235165   2.190   5.333   2.159  0.2441  0.5010  0.0906
 3657TIP3    H135166   2.241   5.402   2.201  0.3926  1.0153 -0.9057
 3657TIP3    H235167   2.105   5.373   2.142  0.1993  0.3143 -0.1313
 3658TIP3   OH235168   6.131   0.120   8.196  0.0543 -0.6822  0.0805
 3658TIP3    H135169   6.159   0.099   8.107 -1.5718  0.0053 -0.6251
 3658TIP3    H235170   6.069   0.050   8.218 -2.5666  1.1594 -0.8927
 3659TIP3   OH235171   4.104   5.017   8.638 -0.0834 -0.0698  0.0878
 3659TIP3    H135172   4.183   5.005   8.586 -1.6933 -0.7889 -2.3949
 3659TIP3    H235173   4.082   5.110   8.627 -0.5322 -0.2633 -0.7767
 3660TIP3   OH235174   6.203   4.316   8.608 -0.1322  0.3214  0.0332
 3660TIP3    H135175   6.271   4.292   8.545 -0.4298 -2.1619  0.5642
 3660TIP3    H235176   6.236   4.285   8.692 -2.3759 -2.0796  0.1330
 3661TIP3   OH235177   3.339   1.876   9.205 -0.2966  0.3287 -0.2401
 3661TIP3    H135178   3.272   1.914   9.261 -0.6482  1.0414 -1.1316
 3661TIP3    H235179   3.382   1.951   9.164 -0.5554 -0.1847 -1.5080
 3662TIP3   OH235180   2.816   3.654   6.790  0.1219  0.3843 -0.5750
 3662TIP3    H135181   2.736   3.605   6.770  0.1275  0.2444 -0.2658
 3662TIP3    H235182   2.789   3.745   6.794 -0.1815  0.2617  0.3156
 3663TIP3   OH235183   1.451   6.562   7.255  0.0038 -0.0561 -0.2718
 3663TIP3    H135184   1.425   6.648   7.288  0.0091  0.4485 -1.5400
 3663TIP3    H235185   1.499   6.580   7.174  0.3240 -1.2349 -0.3678
 3664TIP3   OH235186   0.293   3.715   0.591 -0.1234 -0.0409 -0.1979
 3664TIP3    H135187   0.285   3.674   0.677 -0.7593 -1.8795 -1.0805
 3664TIP3    H235188   0.366   3.669   0.549  1.2519  1.9353 -0.0969
 3665TIP3   OH235189   2.999   6.154   9.752  0.0267 -0.5924  0.2436
 3665TIP3    H135190   3.036   6.066   9.763 -0.5007 -1.1633 -1.9240
 3665TIP3    H235191   3.064   6.213   9.790  1.2380 -1.8309  0.1718
 3666TIP3   OH235192   1.670   0.535   7.872 -0.1512 -0.3005 -0.0401
 3666TIP3    H135193   1.664   0.487   7.789 -1.0807  0.8084 -0.6350
 3666TIP3    H235194   1.613   0.486   7.931 -0.2454 -0.5445 -0.3277
 3667TIP3   OH235195   1.426   1.109   6.796 -0.8892  0.1181  0.1780
 3667TIP3    H135196   1.334   1.089   6.777 -1.2644  2.2650 -0.5159
 3667TIP3    H235197   1.464   1.131   6.711  0.1070 -0.0713  0.5544
 3668TIP3   OH235198   2.722   1.328   6.818 -0.0158 -0.1213  0.1620
 3668TIP3    H135199   2.809   1.294   6.799  0.6649  1.0392  1.0672
 3668TIP3    H235200   2.669   1.250   6.837  1.2781 -0.7303  1.3848
 3669TIP3   OH235201   2.303   1.865   9.525 -0.1958 -0.2142 -0.0235
 3669TIP3    H135202   2.332   1.827   9.608  0.6090 -1.0666 -0.6674
 3669TIP3    H235203   2.376   1.849   9.464 -1.6170 -1.6404 -1.4757
 3670TIP3   OH235204   0.518   7.062   0.974  0.2265  0.7643  0.2347
 3670TIP3    H135205   0.454   6.998   0.942  2.2046 -0.4376 -1.5626
 3670TIP3    H235206   0.466   7.125   1.023 -2.3898  0.1036 -1.4923
 3671TIP3   OH235207   1.907   7.441   3.017  0.2589 -0.0417 -0.5462
 3671TIP3    H135208   1.830   7.448   2.962  1.1806  0.1456 -1.8645
 3671TIP3    H235209   1.940   7.531   3.023  1.6144 -0.3987 -1.8975
 3672TIP3   OH235210   7.208   0.001   1.304  0.4750 -0.2435  0.7327
 3672TIP3    H135211   7.303  -0.001   1.313  0.5519  0.2869  0.0587
 3672TIP3    H235212   7.184  -0.090   1.285  0.9423 -0.2259  0.0178
 3673TIP3   OH235213   3.021   5.130   6.580  0.4027  0.3671  0.6311
 3673TIP3    H135214   3.054   5.091   6.500 -0.0276  0.7719  0.2468
 3673TIP3    H235215   2.965   5.202   6.550 -2.1107 -1.2365  1.1787
 3674TIP3   OH235216   4.044   3.268   9.558  0.1648  0.0685  0.5782
 3674TIP3    H135217   3.977   3.295   9.495  1.3846  2.2981  0.1404
 3674TIP3    H235218   4.109   3.221   9.506  0.9384  1.4969  0.2191
 3675TIP3   OH235219   2.083   1.400   0.961 -0.0216  0.6263 -0.0060
 3675TIP3    H135220   2.077   1.424   0.869  1.8053 -0.1012 -0.3654
 3675TIP3    H235221   2.084   1.304   0.961  1.1158  0.6129  0.6415
 3676TIP3   OH235222   1.485   4.173   0.549 -0.7031  0.3854 -0.2791
 3676TIP3    H135223   1.580   4.175   0.536 -0.5770 -0.4815  0.4491
 3676TIP3    H235224   1.459   4.265   0.545  0.3121  0.7266  0.4535
 3677TIP3   OH235225   3.856   7.097   0.484 -0.4590 -0.0183  0.3352
 3677TIP3    H135226   3.840   7.113   0.577  0.2710  0.4341  0.3896
 3677TIP3    H235227   3.916   7.166   0.458 -1.1513  0.2295 -0.6376
 3678TIP3   OH235228   7.101   2.316   0.006  0.0341  0.2801  0.2957
 3678TIP3    H135229   7.086   2.404   0.039  0.0137  0.6198 -0.6004
 3678TIP3    H235230   7.196   2.307   0.004  0.0392  0.3688  0.1578
 3679TIP3   OH235231   4.990   5.516   0.520 -0.0809  0.1022  0.5620
 3679TIP3    H135232   4.949   5.550   0.599 -1.4122 -1.0967  0.4271
 3679TIP3    H235233   5.062   5.461   0.552 -0.9601 -0.8295  0.9982
 3680TIP3   OH235234   2.189   2.727   1.522 -0.3670  0.4488  0.0898
 3680TIP3    H135235   2.179   2.635   1.548  2.0056  0.5500  1.6267
 3680TIP3    H235236   2.139   2.776   1.588  0.0781  0.3631  0.4919
 3681TIP3   OH235237   5.679   3.182   1.581  0.4556  0.4696 -0.3267
 3681TIP3    H135238   5.638   3.134   1.508 -1.6627 -0.4028  1.3536
 3681TIP3    H235239   5.623   3.164   1.656  2.4290  1.5570  1.5010
 3682TIP3   OH235240   0.493   3.727   9.105 -0.3023  0.6360 -0.1699
 3682TIP3    H135241   0.578   3.695   9.075  0.6003  2.5431  0.2150
 3682TIP3    H235242   0.465   3.663   9.171  0.4496 -0.4291 -0.8577
 3683TIP3   OH235243   2.893   2.956   0.607 -0.8387 -0.3005  0.0472
 3683TIP3    H135244   2.983   2.924   0.596 -1.4451 -1.7955 -0.9748
 3683TIP3    H235245   2.840   2.893   0.558 -2.2538  1.6790 -1.0812
 3684TIP3   OH235246   2.257   1.803   7.376  0.4976  0.8301 -0.0551
 3684TIP3    H135247   2.338   1.767   7.413 -0.7375 -0.9100  1.1020
 3684TIP3    H235248   2.258   1.895   7.404  0.2998 -0.0471  3.3825
 3685TIP3   OH235249   6.719   4.679   8.172  0.0183  0.1036  0.4154
 3685TIP3    H135250   6.745   4.744   8.237  1.8879  2.1452 -2.1420
 3685TIP3    H235251   6.801   4.650   8.133 -0.9391 -2.2121 -0.0499
 3686TIP3   OH235252   1.537   5.987   9.610 -0.3012  0.2565 -0.3875
 3686TIP3    H135253   1.574   5.905   9.640 -0.3535  0.2266 -0.4039
 3686TIP3    H235254   1.551   6.048   9.683 -2.2314 -0.3270  0.5421
 3687TIP3   OH235255   1.561   4.080   1.274 -0.5686 -0.0512  0.0083
 3687TIP3    H135256   1.532   4.169   1.295 -0.5429 -0.3175  1.2492
 3687TIP3    H235257   1.650   4.075   1.309 -1.3971 -1.2861  2.0878
 3688TIP3   OH235258   2.674   6.475   1.419 -0.2721 -0.1345 -0.7177
 3688TIP3    H135259   2.640   6.546   1.473  0.4459 -0.2126 -0.1500
 3688TIP3    H235260   2.769   6.479   1.429 -0.2052 -1.0429 -0.8287
 3689TIP3   OH235261   4.049   7.195   0.872  0.3433 -0.5164 -0.2679
 3689TIP3    H135262   4.088   7.123   0.822  0.8494 -0.2458 -0.2694
 3689TIP3    H235263   4.117   7.220   0.935  0.2513  0.0994 -0.4060
 3690TIP3   OH235264   1.270   6.590   8.428 -1.1108  0.1127 -0.1924
 3690TIP3    H135265   1.339   6.543   8.382  0.2535  1.6553  0.2002
 3690TIP3    H235266   1.223   6.637   8.358 -0.4565  0.6800 -0.2578
 3691TIP3   OH235267   5.196   6.159   8.934  0.0811  0.1683 -0.0614
 3691TIP3    H135268   5.100   6.157   8.933  0.0876 -0.5949  0.0199
 3691TIP3    H235269   5.218   6.240   8.888 -0.6085  1.1513  1.2854
 3692TIP3   OH235270   3.047   5.285   1.770 -0.3532  0.1537  0.4915
 3692TIP3    H135271   3.039   5.291   1.865 -0.8635 -1.9684  0.6258
 3692TIP3    H235272   3.090   5.367   1.745 -0.3091  0.8178  2.5152
 3693TIP3   OH235273   5.811   1.849   8.421 -0.6015 -0.3492  0.0741
 3693TIP3    H135274   5.805   1.838   8.516  2.4446  0.0151  0.4212
 3693TIP3    H235275   5.785   1.940   8.405  1.4066  0.4518  0.9948
 3694TIP3   OH235276   4.472   2.612   7.351  0.1260  0.4212  0.0224
 3694TIP3    H135277   4.509   2.688   7.396 -0.4649  1.4639 -1.1887
 3694TIP3    H235278   4.377   2.624   7.358 -0.0385 -1.3133  1.5937
 3695TIP3   OH235279   1.379   4.062   9.844  0.2913 -0.4354 -0.4299
 3695TIP3    H135280   1.337   4.146   9.825  1.7004  0.4507  0.2216
 3695TIP3    H235281   1.311   3.997   9.825 -1.1968  0.8908  0.0831
 3696TIP3   OH235282   3.631   1.184   9.322  0.1053  0.2922 -0.0163
 3696TIP3    H135283   3.722   1.185   9.292 -0.1972  0.5822 -0.9625
 3696TIP3    H235284   3.636   1.154   9.413  1.1994  0.9651  0.1621
 3697TIP3   OH235285   3.723   2.318   8.847  0.1109 -0.0672 -0.1679
 3697TIP3    H135286   3.724   2.406   8.809  0.1531  0.1798  0.3971
 3697TIP3    H235287   3.806   2.310   8.893  0.0622 -0.3651 -0.1269
 3698TIP3   OH235288   2.283   1.668   0.316 -0.3942  0.1941 -0.6244
 3698TIP3    H135289   2.336   1.643   0.391  1.0760  0.0994 -1.6624
 3698TIP3    H235290   2.344   1.711   0.256 -1.3799 -0.3283 -2.0640
 3699TIP3   OH235291   2.961   3.766   0.709  0.4445 -0.1791 -0.5863
 3699TIP3    H135292   3.009   3.739   0.787  1.2345 -1.8537 -1.5911
 3699TIP3    H235293   2.947   3.685   0.660 -2.6447  0.3355 -0.8146
 3700TIP3   OH235294   3.835   5.474   9.749 -0.4930 -0.0937 -0.7457
 3700TIP3    H135295   3.889   5.435   9.818 -0.9899 -0.3908 -0.5165
 3700TIP3    H235296   3.898   5.513   9.688 -0.0632  1.0388  0.3763
 3701TIP3   OH235297   4.154   2.408   2.725 -0.1503 -0.4704 -0.0497
 3701TIP3    H135298   4.084   2.384   2.665 -0.4957  0.7564 -0.1585
 3701TIP3    H235299   4.190   2.489   2.690  0.9921 -0.8067  0.2920
 3702TIP3   OH235300   3.991   2.944   1.711 -0.5741 -0.9908 -0.4405
 3702TIP3    H135301   4.051   3.016   1.695 -0.8176 -1.0894 -2.0036
 3702TIP3    H235302   4.043   2.865   1.693 -0.5277 -1.1850  0.4943
 3703TIP3   OH235303   6.975   2.624   2.614  0.0711 -0.2706 -0.0112
 3703TIP3    H135304   6.881   2.620   2.632 -0.0182  0.6621 -0.1909
 3703TIP3    H235305   7.014   2.565   2.678 -0.6252 -0.5582  0.1646
 3704TIP3   OH235306   1.228   4.659   9.522  0.1987  0.0909 -0.4596
 3704TIP3    H135307   1.318   4.689   9.510  0.5492 -0.6487  0.2557
 3704TIP3    H235308   1.195   4.710   9.596  1.0821 -1.7922  1.3388
 3705TIP3   OH235309   3.468   5.637   9.682 -0.1296  0.5920  0.6639
 3705TIP3    H135310   3.406   5.614   9.752 -0.9160  1.5654  0.3141
 3705TIP3    H235311   3.412   5.668   9.611  0.5486 -1.6803 -0.9694
 3706TIP3   OH235312   7.067   2.671   1.441  0.0164 -0.0412 -0.1214
 3706TIP3    H135313   7.155   2.707   1.451 -0.1011  0.5837 -1.2291
 3706TIP3    H235314   7.024   2.729   1.378 -0.6201 -1.3463 -0.9338
 3707TIP3   OH235315   6.489   5.276   2.382 -0.3866  0.5201  0.4516
 3707TIP3    H135316   6.537   5.261   2.301 -0.8786  1.2384  0.0104
 3707TIP3    H235317   6.540   5.232   2.449 -1.1986 -2.1881 -0.5754
 3708TIP3   OH235318   6.966   4.792   1.698  0.3041  0.4782  0.6552
 3708TIP3    H135319   6.938   4.847   1.625  0.8139 -0.3643 -0.1999
 3708TIP3    H235320   6.920   4.827   1.774  0.3108  1.8172  0.0591
 3709TIP3   OH235321   4.630   3.519   2.003  0.5762  0.3813 -0.5832
 3709TIP3    H135322   4.650   3.435   1.962 -0.0264  0.0342 -0.1853
 3709TIP3    H235323   4.536   3.530   1.990  0.8266  1.5610 -1.6650
 3710TIP3   OH235324   4.426   0.155   2.332  0.0708  0.2840 -0.0227
 3710TIP3    H135325   4.371   0.160   2.410  0.1011 -2.7086  0.2951
 3710TIP3    H235326   4.426   0.062   2.309  1.4034  0.8500 -2.6411
 3711TIP3   OH235327   4.247   0.229   7.764  0.2701  0.1278  0.1522
 3711TIP3    H135328   4.289   0.200   7.683  0.4580  0.1950  0.2250
 3711TIP3    H235329   4.320   0.247   7.824  0.1090 -1.2743  0.8116
 3712TIP3   OH235330   0.402   3.329   0.045  0.1566  0.0609  0.5663
 3712TIP3    H135331   0.490   3.320   0.083  1.0931  2.6350 -0.7789
 3712TIP3    H235332   0.403   3.415   0.003 -2.7046 -0.2783 -0.3705
 3713TIP3   OH235333   3.905   6.808   2.698 -0.3794  0.4551  0.1513
 3713TIP3    H135334   3.842   6.873   2.665  0.3854  1.3527  0.4094
 3713TIP3    H235335   3.857   6.761   2.766 -1.4155 -0.2454 -1.0190
 3714TIP3   OH235336   2.478   3.108   7.581 -0.0258 -0.2427 -0.6163
 3714TIP3    H135337   2.569   3.103   7.610 -0.6785  1.3373  2.0286
 3714TIP3    H235338   2.430   3.054   7.642 -0.9856 -0.3858 -1.4737
 3715TIP3   OH235339   2.874   3.345   0.218  0.0311  0.2431 -0.4221
 3715TIP3    H135340   2.897   3.434   0.192 -0.2773 -0.0148 -1.6497
 3715TIP3    H235341   2.797   3.355   0.273  1.0227  0.8462  0.9186
 3716TIP3   OH235342   3.114   5.020   6.338 -0.2346  0.6384  0.1643
 3716TIP3    H135343   3.125   4.926   6.326 -0.3683  0.5724  0.5417
 3716TIP3    H235344   3.024   5.038   6.313  0.4182  1.0486 -2.1382
 3717TIP3   OH235345   3.831   0.045   1.063 -0.3664 -0.1851 -0.1243
 3717TIP3    H135346   3.797   0.099   1.134 -0.5481  1.5063 -1.4140
 3717TIP3    H235347   3.756  -0.010   1.037 -0.6543  0.0428  0.2155
 3718TIP3   OH235348   2.988   7.253   9.261 -0.1858  0.2173  0.5938
 3718TIP3    H135349   2.976   7.176   9.317 -0.4303 -0.4932 -0.4043
 3718TIP3    H235350   2.901   7.272   9.226 -0.5709  2.2848  2.4679
 3719TIP3   OH235351   0.451   0.034   1.346  0.6256  0.0256 -0.4587
 3719TIP3    H135352   0.422  -0.005   1.428  0.4317  0.1998 -0.4427
 3719TIP3    H235353   0.431   0.127   1.355  1.4061  0.1850 -0.3607
 3720TIP3   OH235354   2.198   3.412   6.476 -0.3063  0.0363  0.5999
 3720TIP3    H135355   2.261   3.479   6.502  0.1825 -0.4008  0.5614
 3720TIP3    H235356   2.228   3.333   6.521 -0.9018 -0.1493  0.6796
 3721TIP3   OH235357   3.198   1.983   8.406  0.3463 -0.0970 -0.0887
 3721TIP3    H135358   3.184   2.069   8.446  2.2589  0.6029 -0.8068
 3721TIP3    H235359   3.267   1.943   8.460 -0.1197 -0.9539 -0.1121
 3722TIP3   OH235360   7.008   3.442   0.350  0.6064  0.0076  0.1018
 3722TIP3    H135361   6.961   3.516   0.389 -1.3369  0.3267 -2.5431
 3722TIP3    H235362   7.100   3.459   0.370  0.2637  3.2320 -0.4416
 3723TIP3   OH235363   4.538   5.093   8.299 -0.2597 -0.4347 -0.2155
 3723TIP3    H135364   4.485   5.040   8.239 -1.7530  1.2240 -0.4752
 3723TIP3    H235365   4.623   5.101   8.257 -1.3837  0.9896 -2.3897
 3724TIP3   OH235366   3.418   0.501   8.463  0.1333  0.4577  0.1187
 3724TIP3    H135367   3.504   0.543   8.468  0.3086  0.0226  1.2191
 3724TIP3    H235368   3.423   0.443   8.387  0.3842  1.3340 -0.5467
 3725TIP3   OH235369   1.169   6.662   6.777  0.2733 -0.2104  0.4582
 3725TIP3    H135370   1.124   6.590   6.821 -0.0422  0.2418  0.8911
 3725TIP3    H235371   1.197   6.625   6.693 -0.2006 -0.7327  0.5236
 3726TIP3   OH235372   4.055   4.320   7.403 -0.0528 -0.2058 -0.1741
 3726TIP3    H135373   4.099   4.339   7.320  0.9595  2.2464  0.8188
 3726TIP3    H235374   3.993   4.392   7.413 -0.3411 -0.6125  1.0616
 3727TIP3   OH235375   0.939   6.005   2.190 -0.3112 -0.0913 -0.1441
 3727TIP3    H135376   0.996   6.026   2.117 -1.4056  2.2738 -0.4170
 3727TIP3    H235377   0.857   5.978   2.149 -0.7848  0.8138  0.1851
 3728TIP3   OH235378   4.843   4.102   0.159  0.0210 -0.3158  0.7804
 3728TIP3    H135379   4.866   4.187   0.122 -2.0604 -0.0454 -0.0409
 3728TIP3    H235380   4.857   4.112   0.254 -0.0747  0.8859  0.6796
 3729TIP3   OH235381   0.342   4.416   0.153  0.2159 -1.0461 -0.5431
 3729TIP3    H135382   0.334   4.337   0.206  1.2107 -0.9942 -0.2993
 3729TIP3    H235383   0.400   4.473   0.203  2.4740 -1.6099 -2.3441
 3730TIP3   OH235384   5.978   2.917   8.424  0.1227  0.2179 -0.7357
 3730TIP3    H135385   5.920   2.986   8.393  1.7123  0.6383 -2.9954
 3730TIP3    H235386   6.061   2.961   8.441  0.9435 -0.9702 -1.4993
 3731TIP3   OH235387   2.348   3.877   0.875 -0.2067 -0.1297 -0.1392
 3731TIP3    H135388   2.401   3.957   0.874  0.2293 -0.4185 -0.3208
 3731TIP3    H235389   2.258   3.908   0.887 -0.0504  0.3929 -0.3010
 3732TIP3   OH235390   4.086   7.050   9.606 -0.0649  0.0704 -0.0701
 3732TIP3    H135391   4.179   7.056   9.629 -0.1491 -0.5785  0.4530
 3732TIP3    H235392   4.086   7.042   9.510  0.4722 -0.8042 -0.0127
 3733TIP3   OH235393   3.013   1.022   1.561 -0.2372  0.4441 -0.4466
 3733TIP3    H135394   2.972   1.077   1.494  0.0115 -1.3632 -2.1896
 3733TIP3    H235395   3.007   0.933   1.526  1.4437 -0.3805  1.1691
 3734TIP3   OH235396   5.433   0.429   9.312 -0.1618 -0.3793 -0.1471
 3734TIP3    H135397   5.519   0.397   9.285 -0.5455  0.3406 -2.4239
 3734TIP3    H235398   5.371   0.377   9.262 -1.0203 -0.0011  0.4928
 3735TIP3   OH235399   2.189   4.379   1.570 -0.0799  0.3311 -0.0961
 3735TIP3    H135400   2.184   4.465   1.612 -0.7061  0.5028 -0.5008
 3735TIP3    H235401   2.241   4.394   1.491 -1.1177  0.6043 -0.7570
 3736TIP3   OH235402   5.301   0.204   1.224 -0.2390  0.1345 -0.4402
 3736TIP3    H135403   5.255   0.192   1.141  1.0308 -0.0365 -1.1396
 3736TIP3    H235404   5.279   0.293   1.252  0.3958  0.6871 -1.6441
 3737TIP3   OH235405   5.509   2.388   0.968  0.4710  0.6810  0.1615
 3737TIP3    H135406   5.528   2.349   1.053  0.5913 -0.2554 -0.2829
 3737TIP3    H235407   5.447   2.327   0.927  1.4169  0.4279 -0.9386
 3738TIP3   OH235408   0.572   6.088   0.710  0.2447  0.0688 -0.1370
 3738TIP3    H135409   0.528   6.168   0.681 -1.1797 -0.1640  1.2177
 3738TIP3    H235410   0.510   6.018   0.692  1.2455 -0.6789 -0.7771
 3739TIP3   OH235411   1.384   1.069   0.046 -0.6266  1.1049 -0.0184
 3739TIP3    H135412   1.464   1.068   0.099 -0.6969  0.0826  0.0792
 3739TIP3    H235413   1.413   1.045  -0.042 -0.7268  1.4084 -0.1361
 3740TIP3   OH235414   1.952   3.175   9.716 -0.1433  0.3036 -0.3379
 3740TIP3    H135415   1.920   3.265   9.720  0.2352  0.4007  2.8003
 3740TIP3    H235416   2.038   3.181   9.673 -0.1253  1.4466 -0.1558
 3741TIP3   OH235417   6.835   4.638   0.523  0.4543 -0.1833  0.0639
 3741TIP3    H135418   6.884   4.580   0.582 -0.7678 -0.1346  1.1741
 3741TIP3    H235419   6.766   4.582   0.488  1.4687 -0.3537 -1.7890
 3742TIP3   OH235420   1.961   0.399   9.887  0.3775  0.7530 -0.0138
 3742TIP3    H135421   1.915   0.471   9.931  0.5758  2.2906 -2.1402
 3742TIP3    H235422   2.052   0.408   9.914  0.1036  0.0442  1.2400
 3743TIP3   OH235423   6.136   0.389   9.730 -0.7862  0.2452 -0.4700
 3743TIP3    H135424   6.055   0.393   9.678 -0.9843  1.2850 -0.0990
 3743TIP3    H235425   6.167   0.480   9.733  0.7887 -0.2275 -1.2024
 3744TIP3   OH235426   2.911   3.722   9.206 -0.3046 -0.3753 -0.5135
 3744TIP3    H135427   2.929   3.710   9.113 -0.4751 -1.1686 -0.4509
 3744TIP3    H235428   2.965   3.656   9.249  2.3982  2.0768  0.2244
 3745TIP3   OH235429   4.355   3.983   9.166  0.6588  0.1589 -0.0059
 3745TIP3    H135430   4.367   4.033   9.247 -0.2438 -0.5512  0.5888
 3745TIP3    H235431   4.267   4.006   9.136  1.1523  0.7498 -1.0391
 3746TIP3   OH235432   0.385   0.238   0.820  0.2594  0.2773  0.3305
 3746TIP3    H135433   0.465   0.204   0.780  0.6190  1.5765 -0.1254
 3746TIP3    H235434   0.320   0.236   0.749 -0.0139 -0.4370  0.5981
 3747TIP3   OH235435   3.870   0.752   8.541  0.3495 -0.2669  0.1908
 3747TIP3    H135436   3.904   0.673   8.500  0.4825 -0.0562 -0.1151
 3747TIP3    H235437   3.945   0.789   8.588  0.1417 -0.6206  0.8014
 3748TIP3   OH235438   2.505   0.935   7.220  0.7676 -0.4165  0.4553
 3748TIP3    H135439   2.473   1.009   7.167 -0.0612 -2.2192 -1.7049
 3748TIP3    H235440   2.438   0.923   7.287 -1.3734 -1.7788 -1.7643
 3749TIP3   OH235441   5.889   6.272   0.245  0.2595 -0.0873  0.0092
 3749TIP3    H135442   5.859   6.315   0.325 -3.7319  0.1334 -1.3616
 3749TIP3    H235443   5.851   6.184   0.250  1.6257 -0.7544 -0.7933
 3750TIP3   OH235444   1.389   6.435   1.300  0.0060 -0.6304  0.5688
 3750TIP3    H135445   1.386   6.416   1.206 -0.2315 -1.5210  0.7408
 3750TIP3    H235446   1.317   6.496   1.315  1.5810  1.5074 -0.2280
 3751TIP3   OH235447   2.942   4.005   9.150 -0.0286  0.1874 -0.0698
 3751TIP3    H135448   2.946   3.912   9.173 -1.3414  0.1887  0.2259
 3751TIP3    H235449   2.874   4.041   9.207  0.4148  1.3283 -0.2260
 3752TIP3   OH235450   2.517   3.626   8.164  0.3150  0.0599 -0.0650
 3752TIP3    H135451   2.537   3.704   8.217 -0.0945  0.2340 -0.1601
 3752TIP3    H235452   2.467   3.570   8.223  2.0363 -0.8933  0.5476
 3753TIP3   OH235453   3.310   0.119   1.816 -0.3044  0.7201  0.5273
 3753TIP3    H135454   3.312   0.027   1.843  0.2951  0.7039  0.4409
 3753TIP3    H235455   3.222   0.149   1.838 -0.2254  0.3640  1.3475
 3754TIP3   OH235456   3.155   5.470   7.999  0.1005 -0.2887 -0.0589
 3754TIP3    H135457   3.247   5.486   7.980  0.2588  0.0291  0.8978
 3754TIP3    H235458   3.148   5.375   8.008  0.2674 -0.3387 -0.4534
 3755TIP3   OH235459   2.868   1.465   2.815 -0.0774  1.1409 -0.7931
 3755TIP3    H135460   2.793   1.524   2.805 -0.8767  0.5874  1.4213
 3755TIP3    H235461   2.831   1.386   2.856  1.5020  0.3283 -0.8582
 3756TIP3   OH235462   4.530   5.344   2.928  0.1218  0.0595  0.6178
 3756TIP3    H135463   4.556   5.265   2.879 -1.4628  0.1806 -0.4950
 3756TIP3    H235464   4.552   5.417   2.870  1.3544  0.4492  1.5412
 3757TIP3   OH235465   5.460   1.956   0.562 -0.4237  0.2083  0.3966
 3757TIP3    H135466   5.415   1.895   0.503 -2.2031  1.9861 -0.1723
 3757TIP3    H235467   5.472   2.035   0.510 -0.7520  1.3303  1.9765
 3758TIP3   OH235468   6.673   6.793   8.317  0.3373 -0.1562  0.0655
 3758TIP3    H135469   6.711   6.709   8.292  0.6377 -1.1196  3.3258
 3758TIP3    H235470   6.580   6.774   8.329  0.8058 -0.9293  3.5877
 3759TIP3   OH235471   5.016   1.284   2.371  0.3357  0.1297 -0.6070
 3759TIP3    H135472   5.009   1.209   2.311 -0.5708 -0.3628  0.0832
 3759TIP3    H235473   5.102   1.322   2.352 -0.0419  0.1724 -2.4250
 3760TIP3   OH235474   0.521   0.798   2.140 -0.5185  0.0274  0.8947
 3760TIP3    H135475   0.543   0.830   2.052  0.1116 -1.1797  0.5949
 3760TIP3    H235476   0.596   0.825   2.193 -0.9936  0.9376  1.1200
 3761TIP3   OH235477   6.990   2.698   8.570 -0.1966 -0.2485 -0.0585
 3761TIP3    H135478   7.044   2.678   8.646 -0.5682  1.4315  0.6894
 3761TIP3    H235479   6.952   2.614   8.545 -0.1930 -0.8199  1.7058
 3762TIP3   OH235480   2.180   1.267   9.272 -0.2379 -0.1309  0.0879
 3762TIP3    H135481   2.109   1.266   9.208 -2.3906  0.3238  2.3288
 3762TIP3    H235482   2.182   1.178   9.307  0.3020 -0.1253  0.0835
 3763TIP3   OH235483   2.771   5.292   3.057 -0.0442 -0.0995  0.7194
 3763TIP3    H135484   2.679   5.278   3.036 -0.0570 -0.8237  1.2049
 3763TIP3    H235485   2.816   5.217   3.018  0.3956  0.4405  0.1689
 3764TIP3   OH235486   3.610   5.378   0.886 -0.2433  0.3762  0.1446
 3764TIP3    H135487   3.603   5.285   0.907 -0.0592  0.3660  0.1563
 3764TIP3    H235488   3.657   5.381   0.803 -0.8788  0.4200 -0.2271
 3765TIP3   OH235489   2.697   0.845   1.060  0.4091  0.3034  0.0027
 3765TIP3    H135490   2.743   0.877   0.983 -0.1018 -0.0674 -0.4669
 3765TIP3    H235491   2.610   0.885   1.055  0.4701  0.5150  0.5490
 3766TIP3   OH235492   3.412   6.040   8.540 -0.2930  0.2415 -0.1867
 3766TIP3    H135493   3.405   5.947   8.562  1.9199 -0.1403 -0.8338
 3766TIP3    H235494   3.472   6.043   8.466 -0.0133  2.2198  0.0562
 3767TIP3   OH235495   5.087   2.862   9.666 -0.4027 -1.0471 -0.0152
 3767TIP3    H135496   5.026   2.906   9.724 -0.9290 -0.2989 -1.1015
 3767TIP3    H235497   5.057   2.771   9.664  0.5695 -1.4583  2.0820
 3768TIP3   OH235498   4.407   4.398   0.588 -0.2588  0.3335  0.2494
 3768TIP3    H135499   4.440   4.373   0.502 -0.6468 -5.0891  1.3116
 3768TIP3    H235500   4.329   4.451   0.569 -0.7528 -1.2560 -2.8363
 3769TIP3   OH235501   1.459   6.805   9.084  0.6979 -0.4182 -0.0498
 3769TIP3    H135502   1.482   6.731   9.029 -1.0178 -1.4547  0.5410
 3769TIP3    H235503   1.411   6.864   9.025  0.7402 -0.4970 -0.1633
 3770TIP3   OH235504   4.233   7.275   9.343 -0.6266 -0.0654 -0.2496
 3770TIP3    H135505   4.281   7.195   9.322 -0.3155  0.1937 -0.5316
 3770TIP3    H235506   4.300   7.338   9.368 -0.9093 -0.0258  0.4097
 3771TIP3   OH235507   0.184   1.162   8.835  0.6273  0.2308 -0.4886
 3771TIP3    H135508   0.248   1.197   8.774 -0.3389  3.7209  0.2832
 3771TIP3    H235509   0.113   1.226   8.836 -1.7024 -2.1545  0.6501
 3772TIP3   OH235510   2.087   1.508   0.685  0.4560  0.1242  0.5436
 3772TIP3    H135511   2.055   1.595   0.708  2.3213  1.3617 -1.1851
 3772TIP3    H235512   2.023   1.475   0.622  1.0551  1.3919 -0.7806
 3773TIP3   OH235513   1.067   4.100   8.194  0.1368 -0.1956  0.1739
 3773TIP3    H135514   1.146   4.057   8.161 -0.0636 -0.2786 -0.2030
 3773TIP3    H235515   1.081   4.193   8.176  1.0929  0.0708  2.0559
 3774TIP3   OH235516   7.234   3.586   1.275 -0.1937 -0.0449 -0.3469
 3774TIP3    H135517   7.327   3.572   1.292  0.4143  0.3227 -2.8995
 3774TIP3    H235518   7.195   3.499   1.282  0.5171 -0.3619 -0.2257
 3775TIP3   OH235519   1.952   6.557   9.874  0.0189  0.3595  0.8562
 3775TIP3    H135520   1.981   6.501   9.802 -0.4814  0.8738  0.2499
 3775TIP3    H235521   1.933   6.641   9.833 -0.9336  0.4563  1.4787
 3776TIP3   OH235522   0.728   5.881   6.548 -0.5873 -0.4669 -0.4385
 3776TIP3    H135523   0.642   5.848   6.572 -0.4391 -0.3985  0.1889
 3776TIP3    H235524   0.784   5.803   6.547 -1.0396 -0.8551 -2.7763
 3777TIP3   OH235525   2.159   5.243   7.978 -0.0446  0.4894  0.3446
 3777TIP3    H135526   2.082   5.261   7.925  0.5841  1.3968 -0.2820
 3777TIP3    H235527   2.211   5.323   7.973  0.4775  0.2552  1.5652
 3778TIP3   OH235528   3.911   0.264   1.777 -0.1619  0.1923 -0.0649
 3778TIP3    H135529   3.916   0.174   1.808  2.2937  0.4638  0.5100
 3778TIP3    H235530   3.862   0.310   1.845 -0.7865 -0.5370 -0.0084
 3779TIP3   OH235531   6.159   5.329   8.300 -0.3709 -0.4486 -0.8711
 3779TIP3    H135532   6.197   5.261   8.355 -2.5700 -1.4197 -0.4529
 3779TIP3    H235533   6.186   5.305   8.211 -0.0212 -1.0974 -0.6008
 3780TIP3   OH235534   6.542   6.410   7.234 -0.3737  0.5916  0.1040
 3780TIP3    H135535   6.534   6.394   7.140 -1.4652 -1.2584  0.4630
 3780TIP3    H235536   6.452   6.416   7.266 -0.0282  0.7112  1.1113
 3781TIP3   OH235537   4.281   5.382   0.286  0.1728  0.0405  0.6867
 3781TIP3    H135538   4.291   5.370   0.380 -0.9644  0.5014  0.8906
 3781TIP3    H235539   4.244   5.470   0.277  1.5178  0.5437 -0.2888
 3782TIP3   OH235540   3.518   6.834   9.048 -0.3267 -0.3918 -0.3292
 3782TIP3    H135541   3.550   6.918   9.080 -0.3714 -1.2243  2.1072
 3782TIP3    H235542   3.596   6.779   9.043 -0.7655 -1.4344  2.3970
 3783TIP3   OH235543   2.205   5.058   1.264 -0.3714  0.1278 -0.1436
 3783TIP3    H135544   2.149   5.132   1.239 -0.9177 -0.5744 -1.0497
 3783TIP3    H235545   2.207   5.003   1.186 -0.4223 -1.0989  0.7072
 3784TIP3   OH235546   7.023   3.255   2.758  0.1261 -0.1178 -0.1640
 3784TIP3    H135547   6.967   3.323   2.795  0.3208  0.9234 -1.7169
 3784TIP3    H235548   7.009   3.179   2.815 -0.9402  0.8725  0.9424
 3785TIP3   OH235549   2.112   5.413   8.252  0.2596 -0.2298  0.4264
 3785TIP3    H135550   2.038   5.358   8.225  1.1118 -1.1679 -0.0702
 3785TIP3    H235551   2.093   5.435   8.343  0.1522 -1.8352  0.8236
 3786TIP3   OH235552   5.247   3.555   9.529 -0.3291  0.0352 -0.2113
 3786TIP3    H135553   5.194   3.482   9.562  2.4576 -1.7258  0.7338
 3786TIP3    H235554   5.213   3.632   9.575 -3.3516 -0.5375 -1.2142
 3787TIP3   OH235555   5.186   6.145   8.600 -0.1084 -0.4645 -0.0315
 3787TIP3    H135556   5.127   6.189   8.661 -1.2613 -0.7953 -0.8741
 3787TIP3    H235557   5.198   6.057   8.636  0.7319 -0.0726  0.6873
 3788TIP3   OH235558   3.494   6.424   7.803 -0.6037 -0.3885 -0.1161
 3788TIP3    H135559   3.567   6.479   7.773 -1.1319 -1.0429 -2.8517
 3788TIP3    H235560   3.531   6.374   7.876  0.9251  1.0518  0.1728
 3789TIP3   OH235561   6.153   1.664   1.990  0.6841  0.0931 -0.0226
 3789TIP3    H135562   6.069   1.687   2.030  0.6245 -0.3797  0.1325
 3789TIP3    H235563   6.213   1.656   2.064  0.9524  0.7639 -0.1596
 3790TIP3   OH235564   2.641   6.446   0.580 -0.2430 -0.1646  0.0123
 3790TIP3    H135565   2.657   6.539   0.597 -0.4706  0.1191 -1.2456
 3790TIP3    H235566   2.674   6.402   0.658  2.8658  0.7148 -0.6796
 3791TIP3   OH235567   6.096   1.710   2.257 -0.3639 -0.1884  0.1077
 3791TIP3    H135568   6.151   1.731   2.333 -0.1302 -0.6179  0.0619
 3791TIP3    H235569   6.113   1.780   2.195  2.2617 -1.6839 -1.0432
 3792TIP3   OH235570   0.597   0.845   1.614  0.1258 -0.2022  0.1190
 3792TIP3    H135571   0.641   0.891   1.542 -0.0819 -2.3520 -1.4765
 3792TIP3    H235572   0.508   0.879   1.614  0.0589 -0.3558 -0.8328
 3793TIP3   OH235573   6.873   4.595   8.591 -0.1964 -0.1490  0.2067
 3793TIP3    H135574   6.833   4.621   8.508  0.3629 -0.8594 -0.2915
 3793TIP3    H235575   6.825   4.517   8.618 -0.6415  0.3079  0.7633
 3794TIP3   OH235576   0.606   1.008   9.468 -0.1107 -0.1999 -0.4051
 3794TIP3    H135577   0.597   0.972   9.379 -0.4795 -1.2604  0.0408
 3794TIP3    H235578   0.700   1.006   9.484 -0.0749 -0.3997 -0.6217
 3795TIP3   OH235579   0.049   3.513   8.188  0.3243  0.0750 -0.3909
 3795TIP3    H135580   0.117   3.450   8.162 -2.3047 -2.4226 -1.8979
 3795TIP3    H235581   0.043   3.573   8.114  0.1743 -0.3851 -0.7614
 3796TIP3   OH235582   2.565   2.959   0.064  0.0104 -0.5298  0.2152
 3796TIP3    H135583   2.549   2.887   0.003  0.4856 -1.5064  1.2152
 3796TIP3    H235584   2.532   2.928   0.148  0.1679  0.4455  0.6524
 3797TIP3   OH235585   2.806   4.996   8.985  0.3367 -0.2689 -0.0840
 3797TIP3    H135586   2.733   5.039   9.030  0.2740 -1.9436  1.5576
 3797TIP3    H235587   2.883   5.047   9.010 -0.2844  2.2139 -2.7557
 3798TIP3   OH235588   0.481   0.231   2.819  0.2680  0.4207 -0.2068
 3798TIP3    H135589   0.548   0.173   2.857 -1.0469 -1.2848 -0.3705
 3798TIP3    H235590   0.515   0.319   2.834  1.0725 -0.2513  2.5820
 3799TIP3   OH235591   1.696   7.406   0.659  0.3242  0.1737  0.2378
 3799TIP3    H135592   1.635   7.477   0.638  0.2079 -0.7696 -3.2828
 3799TIP3    H235593   1.640   7.333   0.686  0.3509  0.8720  2.3479
 3800TIP3   OH235594   5.122   3.434   0.864 -0.2734 -1.0065 -0.2332
 3800TIP3    H135595   5.215   3.412   0.863  0.4661  1.5713  1.8304
 3800TIP3    H235596   5.093   3.413   0.952 -0.9734  0.5373 -0.0591
 3801TIP3   OH235597   2.754   2.450   2.048 -0.3703 -0.8121  0.3191
 3801TIP3    H135598   2.747   2.543   2.067 -0.0950 -0.7840  0.2842
 3801TIP3    H235599   2.667   2.426   2.014  0.0113 -0.2215 -1.1531
 3802TIP3   OH235600   1.581   0.134   9.524 -0.1854  0.0564 -0.1976
 3802TIP3    H135601   1.671   0.128   9.557 -0.3393 -1.7347  0.0261
 3802TIP3    H235602   1.528   0.144   9.603 -0.2921 -0.5133 -0.1954
 3803TIP3   OH235603   0.392   7.458   9.976 -0.3020  0.2282 -0.5437
 3803TIP3    H135604   0.425   7.368   9.975  0.3004  0.4402 -1.6047
 3803TIP3    H235605   0.396   7.484  10.068 -0.5761 -0.8577 -0.2097
 3804TIP3   OH235606   2.728   1.182   0.593 -0.1447 -0.3266  0.7526
 3804TIP3    H135607   2.773   1.259   0.557  1.8413 -1.2500  1.1125
 3804TIP3    H235608   2.639   1.213   0.611 -0.9145  0.5947 -3.5231
 3805TIP3   OH235609   3.392   1.437   9.123  0.0122  1.1678  0.0002
 3805TIP3    H135610   3.386   1.394   9.208  0.3422  2.4080  0.6803
 3805TIP3    H235611   3.469   1.397   9.081 -0.7395 -0.1540 -0.1521
 3806TIP3   OH235612   0.099   2.362   9.345  0.2524  0.4607 -0.3684
 3806TIP3    H135613   0.136   2.450   9.339  1.0167  0.0424 -2.6461
 3806TIP3    H235614   0.025   2.372   9.405  2.7694  1.7254  2.8422
 3807TIP3   OH235615   5.389   1.042   1.305 -0.1889  0.1609 -0.0910
 3807TIP3    H135616   5.300   1.030   1.337 -0.4410  0.3225 -0.7029
 3807TIP3    H235617   5.397   0.980   1.233  0.5094 -0.5009  0.5471
 3808TIP3   OH235618   6.984   3.292   9.881 -0.4632 -0.0446 -0.3530
 3808TIP3    H135619   7.062   3.243   9.908 -0.8692 -0.4718  0.0673
 3808TIP3    H235620   6.979   3.278   9.786 -1.2955 -1.9458 -0.0837
 3809TIP3   OH235621   4.719   0.045   2.476  0.6864  0.0827  0.5136
 3809TIP3    H135622   4.655  -0.025   2.482 -1.1065  1.6774  1.0027
 3809TIP3    H235623   4.766   0.042   2.559 -0.4583  0.4321  1.1874
 3810TIP3   OH235624   5.313   1.377   0.628  0.1280  0.2989  0.6653
 3810TIP3    H135625   5.261   1.298   0.639 -0.6417  0.6898 -0.0594
 3810TIP3    H235626   5.305   1.398   0.535  1.3124  0.5610  0.6081
 3811TIP3   OH235627   5.919   3.321   1.512 -0.1273 -0.3636  0.4059
 3811TIP3    H135628   5.842   3.279   1.551 -0.8533  0.5094 -0.0620
 3811TIP3    H235629   5.942   3.391   1.573 -1.3796  1.1304 -0.7686
 3812TIP3   OH235630   0.980   1.809   1.788 -0.1502  0.0920  0.3486
 3812TIP3    H135631   1.026   1.893   1.790 -0.6860  0.4335  3.3411
 3812TIP3    H235632   0.946   1.799   1.877 -2.8599 -1.7971 -0.7735
 3813TIP3   OH235633   5.926   3.751   1.343 -0.1386  0.2018 -0.2368
 3813TIP3    H135634   6.009   3.797   1.332 -0.1189  0.6225  1.3639
 3813TIP3    H235635   5.900   3.771   1.433 -0.3969 -2.4841  0.3594
 3814TIP3   OH235636   0.353   1.044   8.312 -0.2941  0.0713 -0.6004
 3814TIP3    H135637   0.309   1.004   8.387 -2.6321 -2.0723 -2.9253
 3814TIP3    H235638   0.439   1.002   8.310  0.3128  1.0720  1.4988
 3815TIP3   OH235639   2.464   5.225   9.824 -0.3506  0.0687 -0.6575
 3815TIP3    H135640   2.404   5.182   9.886  1.3088 -0.2321  0.8120
 3815TIP3    H235641   2.540   5.248   9.877  0.5767  1.0195 -2.3412
 3816TIP3   OH235642   6.912   3.904   8.670  0.0857  0.1820  0.3904
 3816TIP3    H135643   6.938   3.814   8.650  0.7837  0.1915  1.2165
 3816TIP3    H235644   6.947   3.955   8.597 -0.2249 -0.1976 -0.0332
 3817TIP3   OH235645   0.123   5.719   9.031 -0.7455  0.0723  0.3740
 3817TIP3    H135646   0.106   5.750   9.121  0.3982 -0.7353  0.8915
 3817TIP3    H235647   0.134   5.624   9.040 -1.7662 -0.1770 -0.8135
 3818TIP3   OH235648   1.113   6.932   0.135 -0.6935  0.1367  0.3601
 3818TIP3    H135649   1.127   6.968   0.223 -0.6265 -1.0477  0.8561
 3818TIP3    H235650   1.096   7.008   0.080  0.8958  1.0472  1.0666
 3819TIP3   OH235651   5.165   0.963   2.280  0.1895  0.3642 -0.2129
 3819TIP3    H135652   5.192   0.872   2.267  0.3290  0.3893 -0.1002
 3819TIP3    H235653   5.234   1.001   2.334  0.3010  0.6293 -0.5403
 3820TIP3   OH235654   5.307   2.881   9.884  0.3961  0.7036  0.2930
 3820TIP3    H135655   5.270   2.950   9.938 -0.4296  0.8360 -0.4128
 3820TIP3    H235656   5.260   2.887   9.801  0.4031 -0.6051  0.1623
 3821TIP3   OH235657   6.866   5.144   8.210  0.2592 -0.3653 -0.0863
 3821TIP3    H135658   6.891   5.117   8.299  0.5290 -0.7021 -0.2603
 3821TIP3    H235659   6.823   5.228   8.222 -1.2521 -1.1911  0.5649
 3822TIP3   OH235660   7.296   6.590   0.494  0.2260  0.1474  0.2692
 3822TIP3    H135661   7.242   6.652   0.543 -1.5185 -1.7239  0.8079
 3822TIP3    H235662   7.258   6.588   0.406  0.0745 -0.3749  0.3433
 3823TIP3   OH235663   0.561   6.197   7.439 -0.6242  0.2696 -0.4235
 3823TIP3    H135664   0.513   6.116   7.419 -1.2585  0.9895 -1.9696
 3823TIP3    H235665   0.543   6.213   7.532  2.1071 -3.0189  0.9449
 3824TIP3   OH235666   1.101   4.391   7.585  0.0320 -0.4631 -0.1430
 3824TIP3    H135667   1.143   4.315   7.626 -1.7190  0.0867  3.0246
 3824TIP3    H235668   1.128   4.465   7.640 -0.7071  0.7397 -1.3399
 3825TIP3   OH235669   2.555   5.653   0.197  0.9564  0.1322 -0.1631
 3825TIP3    H135670   2.484   5.590   0.188  1.3692 -0.4032  0.3259
 3825TIP3    H235671   2.634   5.605   0.173  1.1845  0.6831 -0.5537
 3826TIP3   OH235672   2.955   1.685   0.086 -0.0582  0.1941 -0.6855
 3826TIP3    H135673   2.899   1.673   0.163 -1.5771 -0.0296 -1.7949
 3826TIP3    H235674   3.042   1.701   0.123 -0.7809  0.2998  1.0827
 3827TIP3   OH235675   0.074   1.603   8.793  0.3739  0.1817  0.1509
 3827TIP3    H135676   0.074   1.591   8.698  0.0973 -0.0692  0.1815
 3827TIP3    H235677   0.012   1.675   8.808 -1.1419 -1.1097  0.2995
 3828TIP3   OH235678   5.230   4.516   0.207  0.1557  0.1763 -0.5798
 3828TIP3    H135679   5.256   4.474   0.289 -1.8886  0.2118  0.1540
 3828TIP3    H235680   5.250   4.609   0.221 -1.9872  0.5077  0.7420
 3829TIP3   OH235681   4.273   5.241   7.682  0.1005 -0.5615 -0.2846
 3829TIP3    H135682   4.232   5.326   7.668  0.4805  0.0701  2.0950
 3829TIP3    H235683   4.317   5.222   7.599 -1.3222  0.7831 -1.3946
 3830TIP3   OH235684   4.236   6.070   1.079 -0.2830  0.4906  0.5937
 3830TIP3    H135685   4.295   5.997   1.093 -0.3521  0.4717  0.7845
 3830TIP3    H235686   4.269   6.113   1.000 -0.2141  0.2836  0.5109
 3831TIP3   OH235687   1.580   7.256   6.720 -0.3813  0.7378 -0.0831
 3831TIP3    H135688   1.627   7.337   6.699  0.4206 -0.0357 -1.4172
 3831TIP3    H235689   1.488   7.278   6.705 -0.1127  1.1974 -1.2401
 3832TIP3   OH235690   2.732   5.382   7.948  0.0812 -0.0164  0.0876
 3832TIP3    H135691   2.777   5.303   7.919  0.4108 -0.7898  2.5231
 3832TIP3    H235692   2.798   5.452   7.937  0.2314 -0.2798 -0.8072
 3833TIP3   OH235693   0.953   6.823   7.577  1.0403 -0.7398  0.2725
 3833TIP3    H135694   0.863   6.834   7.547  0.5946 -0.3347  1.6719
 3833TIP3    H235695   0.945   6.808   7.671  2.4417 -0.7016  0.4188
 3834TIP3   OH235696   3.469   4.594   1.034 -0.3263  0.7015 -0.1098
 3834TIP3    H135697   3.375   4.591   1.018 -0.0777  0.2093 -1.6401
 3834TIP3    H235698   3.478   4.634   1.121 -1.9910 -0.5615  0.6797
 3835TIP3   OH235699   1.512   2.763   2.112 -0.0278 -0.1124  0.3500
 3835TIP3    H135700   1.460   2.827   2.063 -1.5697 -0.9061  0.8800
 3835TIP3    H235701   1.551   2.813   2.183 -1.0885  0.2976  0.6710
 3836TIP3   OH235702   7.216   6.778   9.125 -0.1544 -0.0438 -0.2752
 3836TIP3    H135703   7.232   6.754   9.216 -0.8193 -2.3523 -0.6874
 3836TIP3    H235704   7.207   6.694   9.080  0.8481  1.0029 -2.6216
 3837TIP3   OH235705   5.934   6.771   7.226  0.2711 -0.7004  0.0520
 3837TIP3    H135706   6.028   6.786   7.235 -0.0064  0.1865  2.2214
 3837TIP3    H235707   5.924   6.676   7.222  1.1919 -0.8661  1.2418
 3838TIP3   OH235708   2.975   2.315   0.133 -0.8118 -0.0387  0.0673
 3838TIP3    H135709   2.996   2.232   0.090 -0.1673  0.5921 -0.8946
 3838TIP3    H235710   3.057   2.340   0.177 -0.1314  1.3518 -1.8494
 3839TIP3   OH235711   2.095   0.249   2.131 -0.2285 -0.0092 -0.1970
 3839TIP3    H135712   2.008   0.234   2.093 -0.2297  2.4930 -1.3533
 3839TIP3    H235713   2.155   0.201   2.074 -0.7349 -1.0781  0.1349
 3840TIP3   OH235714   3.238   4.796   9.737 -0.0022  0.2208  0.1798
 3840TIP3    H135715   3.324   4.828   9.710  0.2054  0.6757  1.3353
 3840TIP3    H235716   3.202   4.866   9.791 -0.1464 -0.8691  1.5437
 3841TIP3   OH235717   2.008   3.169   2.141  0.1387 -0.3727 -0.6439
 3841TIP3    H135718   1.953   3.130   2.209  1.3177  1.7328  1.6562
 3841TIP3    H235719   2.096   3.139   2.161  0.6917  1.3411 -0.4092
 3842TIP3   OH235720   0.004   3.667   2.421 -0.3787  0.8894 -0.2091
 3842TIP3    H135721  -0.042   3.733   2.369 -0.6615 -0.3081 -1.5444
 3842TIP3    H235722  -0.031   3.677   2.510 -0.7163  2.2308 -0.4796
 3843TIP3   OH235723   6.683   4.612   9.697  0.6040 -0.1020 -0.0808
 3843TIP3    H135724   6.722   4.534   9.658  0.4274  0.2555 -0.9773
 3843TIP3    H235725   6.657   4.666   9.623  0.3452  0.6267  0.5308
 3844TIP3   OH235726   3.338   2.530   8.638  0.1950 -0.1951 -0.5443
 3844TIP3    H135727   3.375   2.486   8.561 -1.2518 -0.4935 -1.0837
 3844TIP3    H235728   3.251   2.492   8.649 -0.2148  0.9246  0.3406
 3845TIP3   OH235729   3.619   3.054   1.568  0.2214 -0.2669  0.4222
 3845TIP3    H135730   3.660   2.991   1.628  1.7190  0.8273  0.6121
 3845TIP3    H235731   3.677   3.130   1.570 -0.8004  0.5933 -0.8692
 3846TIP3   OH235732   1.183   3.468   1.713 -0.0714 -0.0927 -0.2616
 3846TIP3    H135733   1.211   3.495   1.800 -1.8999 -0.0240  0.3487
 3846TIP3    H235734   1.130   3.541   1.680 -3.1976 -1.8236  0.4935
 3847TIP3   OH235735   2.197   7.085   2.381 -0.3272 -0.5911  0.3954
 3847TIP3    H135736   2.241   7.048   2.457  1.0069  1.4408  0.6830
 3847TIP3    H235737   2.104   7.087   2.405  0.0823  0.1748  2.0585
 3848TIP3   OH235738   1.847   4.327   0.161 -0.3866  0.2143  0.3522
 3848TIP3    H135739   1.908   4.378   0.214 -2.2725  0.4049  2.4808
 3848TIP3    H235740   1.896   4.247   0.138  0.7727  0.5260  1.6317
 3849TIP3   OH235741   0.749   1.970   0.258 -0.3463 -0.4584 -0.0868
 3849TIP3    H135742   0.821   2.031   0.247  0.1054 -0.6204  1.6119
 3849TIP3    H235743   0.783   1.885   0.229  0.1542 -0.5322  0.7066
 3850TIP3   OH235744   0.295   5.317   2.332  0.3756 -0.0516 -0.3782
 3850TIP3    H135745   0.308   5.396   2.384 -0.6604  1.4910 -2.3262
 3850TIP3    H235746   0.208   5.327   2.294  0.0646 -2.3357 -0.3974
 3851TIP3   OH235747   2.849   6.250   7.671  0.2785 -0.2178 -0.3885
 3851TIP3    H135748   2.864   6.335   7.630  2.3527 -0.5520 -0.4548
 3851TIP3    H235749   2.876   6.263   7.762 -4.3620  0.5447  1.1523
 3852TIP3   OH235750   2.539   0.045   7.679 -0.7796  0.2736 -0.5314
 3852TIP3    H135751   2.506  -0.044   7.689  0.0851  0.1164  1.1363
 3852TIP3    H235752   2.634   0.035   7.669 -0.5280  1.0425  0.8263
 3853TIP3   OH235753   5.315   1.115   2.460 -0.2587 -0.2585  0.5440
 3853TIP3    H135754   5.332   1.209   2.466 -0.6454 -0.0932 -0.7722
 3853TIP3    H235755   5.243   1.100   2.521 -0.0856  0.2636  0.8891
 3854TIP3   OH235756   3.864   1.268   9.195  0.2546  0.0301 -0.0936
 3854TIP3    H135757   3.915   1.343   9.225  0.3892  0.7130 -1.8635
 3854TIP3    H235758   3.924   1.193   9.202 -0.0425 -0.0428  2.1556
 3855TIP3   OH235759   7.013   1.786   7.176  0.2142 -0.1057 -0.0414
 3855TIP3    H135760   7.069   1.746   7.109  0.3352 -0.7021  0.4060
 3855TIP3    H235761   7.021   1.880   7.161 -2.3288 -0.2084 -3.0038
 3856TIP3   OH235762   6.290   3.697   1.281  0.4532 -0.4698  0.0973
 3856TIP3    H135763   6.307   3.742   1.364  1.8429  0.3579 -0.6031
 3856TIP3    H235764   6.368   3.645   1.265  0.7896  0.4026 -1.3157
 3857TIP3   OH235765   3.558   5.412   2.193 -0.2518 -0.2693  0.6153
 3857TIP3    H135766   3.612   5.386   2.267 -0.8463  2.0021  1.9335
 3857TIP3    H235767   3.567   5.507   2.188  0.2834 -0.3870 -2.6916
 3858TIP3   OH235768   1.088   6.019   7.068 -0.1999 -0.5185  0.1939
 3858TIP3    H135769   0.999   5.984   7.066 -0.9070  1.1590  0.7199
 3858TIP3    H235770   1.103   6.042   7.159  0.9083 -1.0356  0.1661
 3859TIP3   OH235771   4.215   3.431   8.016  0.0013 -0.0813  0.1887
 3859TIP3    H135772   4.145   3.375   7.981 -1.1140  0.4761  1.4250
 3859TIP3    H235773   4.218   3.505   7.955 -0.2854 -0.2443 -0.0300
 3860TIP3   OH235774   2.286   4.646   2.238  0.8988  0.0806 -0.4944
 3860TIP3    H135775   2.291   4.594   2.318  0.1849 -0.4515 -0.7877
 3860TIP3    H235776   2.325   4.591   2.171 -0.8196 -0.5474 -1.0258
 3861TIP3   OH235777   1.175   2.230   8.747  0.0025  0.2084 -0.2984
 3861TIP3    H135778   1.174   2.193   8.835  0.8375  0.1588 -0.3006
 3861TIP3    H235779   1.093   2.279   8.741 -1.2182 -1.7534 -0.3511
 3862TIP3   OH235780   0.166   2.294   0.772 -0.0572  0.3160 -0.3379
 3862TIP3    H135781   0.156   2.336   0.687  0.2583  2.6104  0.6828
 3862TIP3    H235782   0.120   2.352   0.833  1.0275 -0.4484  1.2763
 3863TIP3   OH235783   1.923   0.521   7.411  0.2672 -0.6342 -0.3887
 3863TIP3    H135784   1.985   0.464   7.457 -1.4085 -1.5672  0.7911
 3863TIP3    H235785   1.905   0.475   7.329 -0.8681 -1.7036  0.4395
 3864TIP3   OH235786   7.001   6.896   6.868  0.3523  0.2440 -0.0515
 3864TIP3    H135787   7.089   6.892   6.833  0.2154 -0.2113 -0.3517
 3864TIP3    H235788   7.006   6.848   6.951  0.0998 -0.9232 -0.6947
 3865TIP3   OH235789   5.727   5.025   8.500  0.2765  0.3977 -0.2938
 3865TIP3    H135790   5.682   5.107   8.478  1.2999  1.0114 -0.1557
 3865TIP3    H235791   5.792   5.050   8.565 -0.2724 -0.7713  0.7485
 3866TIP3   OH235792   3.738   4.958   7.673  0.1355 -0.0160  0.3625
 3866TIP3    H135793   3.712   4.890   7.612 -0.3885 -0.4679  1.0873
 3866TIP3    H235794   3.702   4.932   7.757  0.2705  0.9457  0.7417
 3867TIP3   OH235795   6.093   1.125   1.518  0.3698 -0.1475 -0.0854
 3867TIP3    H135796   6.043   1.046   1.540 -0.4017  0.6773  1.2501
 3867TIP3    H235797   6.036   1.174   1.459  1.5460 -1.3285 -2.3373
 3868TIP3   OH235798   3.206   5.884   0.461  0.2197  0.2716  0.1506
 3868TIP3    H135799   3.160   5.907   0.541  2.3305 -0.0847  1.5601
 3868TIP3    H235800   3.191   5.958   0.402 -0.4864  1.0568  1.2739
 3869TIP3   OH235801   6.809   5.011   8.715  0.0620  0.2262 -0.3498
 3869TIP3    H135802   6.839   5.016   8.806  0.6750  0.8284 -0.5838
 3869TIP3    H235803   6.873   5.061   8.665 -0.2106 -0.1884 -1.1351
 3870TIP3   OH235804   0.068   0.631   7.731 -0.2234 -0.3148 -0.5980
 3870TIP3    H135805   0.030   0.562   7.784  0.0311 -0.1786 -0.2310
 3870TIP3    H235806   0.031   0.619   7.643 -1.1318 -0.1559 -0.2414
 3871TIP3   OH235807   7.380   0.266   7.495 -0.1715 -0.5966 -0.1201
 3871TIP3    H135808   7.363   0.308   7.410  0.4572 -0.8904 -0.3963
 3871TIP3    H235809   7.312   0.301   7.553 -0.1520  0.1805 -0.5540
 3872TIP3   OH235810   2.509   5.958   9.570 -0.4339 -0.2650 -0.2620
 3872TIP3    H135811   2.466   5.945   9.485  0.2214  1.8933 -0.9959
 3872TIP3    H235812   2.459   6.027   9.612 -0.7182 -1.2730  1.1394
 3873TIP3   OH235813   4.056   5.337   9.030  0.5304  0.1725  0.0109
 3873TIP3    H135814   4.146   5.314   9.006  0.5823  0.5208 -0.1352
 3873TIP3    H235815   4.014   5.360   8.948 -0.3154 -2.0044 -0.2302
 3874TIP3   OH235816   7.338   1.607   8.009  0.0562  0.0418  0.2810
 3874TIP3    H135817   7.364   1.552   8.082  1.0258  0.1079 -0.0024
 3874TIP3    H235818   7.333   1.695   8.046  1.4920  0.2364  0.0894
 3875TIP3   OH235819   2.671   5.741   1.139 -0.2781  0.5432  0.4006
 3875TIP3    H135820   2.623   5.699   1.067 -0.3150 -0.4542  0.9843
 3875TIP3    H235821   2.760   5.708   1.131  0.1443  1.7549 -0.1848
 3876TIP3   OH235822   0.542   4.849   1.202 -0.4423 -0.0844 -0.5582
 3876TIP3    H135823   0.457   4.870   1.164 -0.7400 -0.7569 -0.2763
 3876TIP3    H235824   0.557   4.758   1.179 -0.6325 -0.5102  0.9220
 3877TIP3   OH235825   6.829   3.643   8.596 -0.1247 -0.3036  0.6779
 3877TIP3    H135826   6.874   3.558   8.589 -0.0272 -0.1369 -2.4549
 3877TIP3    H235827   6.751   3.633   8.541 -0.1981  1.5794  0.3792
 3878TIP3   OH235828   2.420   5.022   5.704  0.1845  0.1721 -0.0419
 3878TIP3    H135829   2.380   5.010   5.618  0.4477  0.8500 -0.2641
 3878TIP3    H235830   2.439   5.115   5.709 -1.7865  0.5864  1.6033
 3879TIP3   OH235831   7.211   3.414   7.692 -0.3520 -0.2146 -0.4525
 3879TIP3    H135832   7.232   3.446   7.780  1.8730 -1.1286 -0.5801
 3879TIP3    H235833   7.156   3.482   7.654 -0.1441  0.8902  1.1356
 3880TIP3   OH235834   2.176   6.907   1.246  0.0296 -0.1087  0.1538
 3880TIP3    H135835   2.268   6.935   1.249  0.2229 -0.7926  0.9730
 3880TIP3    H235836   2.132   6.965   1.309 -0.2262  0.6251 -0.6847
 3881TIP3   OH235837   1.516   0.976   7.746 -0.1134  0.2862 -0.1152
 3881TIP3    H135838   1.587   0.919   7.775 -0.2711 -0.6282 -1.4365
 3881TIP3    H235839   1.556   1.033   7.680 -0.2933  0.7422  0.1630
 3882TIP3   OH235840   5.120   6.203   1.427  0.2529  0.1245 -0.2213
 3882TIP3    H135841   5.074   6.236   1.504 -0.3618 -1.7541  0.2831
 3882TIP3    H235842   5.163   6.280   1.389  1.4617  0.9526  2.5691
 3883TIP3   OH235843   7.435   2.362   8.951 -0.4491 -0.2954 -0.0315
 3883TIP3    H135844   7.342   2.346   8.934 -0.8216  0.8898  0.7872
 3883TIP3    H235845   7.438   2.390   9.042  0.8009 -0.9271  0.1398
 3884TIP3   OH235846   3.381   5.449   7.119 -0.0227  0.7015 -0.3057
 3884TIP3    H135847   3.394   5.383   7.050  0.8663  0.7646 -0.2102
 3884TIP3    H235848   3.287   5.453   7.130 -0.0872 -1.9078  0.9594
 3885TIP3   OH235849   1.464   6.208   8.606 -0.2412 -0.4556  0.3252
 3885TIP3    H135850   1.410   6.258   8.667  1.5454  0.1074  1.5516
 3885TIP3    H235851   1.547   6.196   8.653  0.1484 -2.7117 -0.7911
 3886TIP3   OH235852   1.448   5.189   6.230 -0.8665  0.0091 -0.4997
 3886TIP3    H135853   1.454   5.254   6.161  0.2939  0.5497  0.0863
 3886TIP3    H235854   1.524   5.206   6.286 -1.6847 -0.5208  0.8165
 3887TIP3   OH235855   5.826   3.080   0.969 -0.4941 -0.1646 -0.0540
 3887TIP3    H135856   5.742   3.049   1.002  0.9081 -1.2639  2.9170
 3887TIP3    H235857   5.844   3.159   1.019  0.8471 -0.7696  0.4806
 3888TIP3   OH235858   6.806   6.812   0.220  0.4336  0.4203 -0.1548
 3888TIP3    H135859   6.855   6.774   0.147  0.9990  0.6067  0.1224
 3888TIP3    H235860   6.718   6.825   0.186  0.2943 -0.8875 -0.3468
 3889TIP3   OH235861   6.512   5.608   9.008 -0.0426  0.7681 -0.4892
 3889TIP3    H135862   6.418   5.607   8.993 -0.0912 -0.7322 -0.2590
 3889TIP3    H235863   6.522   5.593   9.102  0.4253  0.7508 -0.5362
 3890TIP3   OH235864   2.899   4.160   6.837  0.3252 -0.6802  0.1752
 3890TIP3    H135865   2.977   4.216   6.835  0.8746 -1.4397 -1.8820
 3890TIP3    H235866   2.834   4.207   6.786  0.3857 -1.3282 -0.5146
 3891TIP3   OH235867   3.751   2.415   7.608  0.1613  0.2581  0.6975
 3891TIP3    H135868   3.721   2.424   7.699  0.3511  4.2098  0.5238
 3891TIP3    H235869   3.680   2.453   7.556  2.0722  2.6965 -0.3077
 3892TIP3   OH235870   3.250   4.939   9.260  0.2890 -0.5870  0.6039
 3892TIP3    H135871   3.344   4.956   9.250 -0.0555  0.7270 -0.7001
 3892TIP3    H235872   3.239   4.848   9.231  0.9829 -0.3543 -0.4387
 3893TIP3   OH235873   0.406   0.819   0.592 -0.4183 -0.5107 -0.1603
 3893TIP3    H135874   0.416   0.903   0.547 -0.7226 -0.5960 -0.3885
 3893TIP3    H235875   0.408   0.842   0.685 -0.1928 -0.2881 -0.2189
 3894TIP3   OH235876   5.340   6.919   9.914  0.4307  0.1502  0.1143
 3894TIP3    H135877   5.264   6.905   9.857  0.0125 -1.9731  1.1091
 3894TIP3    H235878   5.382   6.998   9.878 -1.0833  0.2123 -1.7017
 3895TIP3   OH235879   3.974   6.189   2.039  0.8343 -0.2420 -0.0525
 3895TIP3    H135880   3.949   6.177   2.131  1.6606 -1.8020  0.0037
 3895TIP3    H235881   3.964   6.283   2.024 -1.6747 -0.2855  0.9196
 3896TIP3   OH235882   0.578   3.328   9.475  0.3637 -0.8632  0.3173
 3896TIP3    H135883   0.628   3.341   9.395 -2.9163 -0.9988 -1.9462
 3896TIP3    H235884   0.596   3.238   9.500  1.2692 -0.8874 -0.3675
 3897TIP3   OH235885   1.166   1.439   2.780 -0.7881  0.0556  0.0001
 3897TIP3    H135886   1.159   1.414   2.872  0.7972  1.2883  0.4928
 3897TIP3    H235887   1.119   1.522   2.774  0.8626  1.0411  0.1895
 3898TIP3   OH235888   6.527   7.147   2.122 -0.1082  0.4029  0.4893
 3898TIP3    H135889   6.570   7.228   2.149  1.4751 -0.1794 -0.1750
 3898TIP3    H235890   6.461   7.131   2.189  0.4176  1.5690  1.3073
 3899TIP3   OH235891   0.722   6.109   8.249  0.2643  0.0144 -0.4872
 3899TIP3    H135892   0.681   6.195   8.250 -1.2700 -0.6780 -0.5373
 3899TIP3    H235893   0.808   6.123   8.209  0.4709  1.6793  0.4635
 3900TIP3   OH235894   1.098   0.040   8.326  0.6429  0.4896  0.5117
 3900TIP3    H135895   1.052   0.117   8.359  0.6341  0.2505  1.0775
 3900TIP3    H235896   1.028  -0.020   8.300  0.6473  0.6208  0.2046
 3901TIP3   OH235897   1.936   0.054   6.410 -0.7632 -0.3826  0.5500
 3901TIP3    H135898   1.959   0.005   6.331 -0.6001  0.6042 -0.0329
 3901TIP3    H235899   1.865   0.004   6.450  0.5924 -2.0790  0.9752
 3902TIP3   OH235900   3.548   6.223   0.594  0.0376 -0.4583 -0.0495
 3902TIP3    H135901   3.594   6.305   0.580 -0.7968 -0.1499 -1.1238
 3902TIP3    H235902   3.465   6.234   0.548  0.2231 -2.1837 -0.8849
 3903TIP3   OH235903   1.918   3.860   1.354 -0.5243  0.5345  0.0224
 3903TIP3    H135904   1.856   3.923   1.389 -1.2747 -0.5417  0.7037
 3903TIP3    H235905   1.913   3.786   1.415  0.9684  0.1686 -0.2590
 3904TIP3   OH235906   4.737   4.569   9.552  0.2835 -0.4339  0.6137
 3904TIP3    H135907   4.775   4.616   9.626  1.4570  0.5357 -0.5382
 3904TIP3    H235908   4.790   4.597   9.477 -0.9540 -1.2658 -0.6144
 3905TIP3   OH235909   3.702   1.363   0.061 -0.1688  0.0572  0.0876
 3905TIP3    H135910   3.670   1.319   0.140 -1.0858  0.6610  0.0752
 3905TIP3    H235911   3.659   1.449   0.064  1.1466  0.7424 -0.1671
 3906TIP3   OH235912   1.843   2.510   9.654  0.0451 -0.0487  0.3458
 3906TIP3    H135913   1.800   2.441   9.603 -1.0468  2.3159 -2.2138
 3906TIP3    H235914   1.935   2.484   9.657  0.3582 -0.0918 -3.6479
 3907TIP3   OH235915   4.237   6.162   7.752 -0.3345  0.3636 -0.0897
 3907TIP3    H135916   4.331   6.146   7.757  0.2559  1.9541 -3.2561
 3907TIP3    H235917   4.197   6.088   7.798  2.4078 -1.5542 -0.5588
 3908TIP3   OH235918   2.146   6.071   2.329 -0.0542  0.0646  0.0378
 3908TIP3    H135919   2.171   6.050   2.419 -0.8353 -3.1317 -0.3669
 3908TIP3    H235920   2.228   6.077   2.281  0.3058 -0.0441  0.6338
 3909TIP3   OH235921   1.685   6.458   7.488 -0.6497 -0.0082 -0.0704
 3909TIP3    H135922   1.760   6.440   7.431 -0.4190  0.8658 -0.0600
 3909TIP3    H235923   1.640   6.532   7.446 -2.2471 -1.2969 -0.7600
 3910TIP3   OH235924   2.263   4.621   2.626 -0.0446  0.0700  0.1295
 3910TIP3    H135925   2.222   4.604   2.711  0.0097 -0.7995  0.0002
 3910TIP3    H235926   2.343   4.569   2.628  0.4126  0.7647 -0.1064
 3911TIP3   OH235927   3.129   2.151   7.619  0.5131  0.1652 -0.1798
 3911TIP3    H135928   3.074   2.104   7.556 -0.4254  1.2944 -0.2353
 3911TIP3    H235929   3.200   2.188   7.567  1.5698 -1.5768 -0.0599
 3912TIP3   OH235930   4.843   7.225   1.454  0.0557  0.1215 -0.3356
 3912TIP3    H135931   4.790   7.147   1.468 -1.2947  1.0531 -0.1458
 3912TIP3    H235932   4.862   7.224   1.360 -2.3496  0.9943 -0.9071
 3913TIP3   OH235933   2.943   3.393   9.807 -0.0439 -0.5598  0.1618
 3913TIP3    H135934   2.897   3.410   9.724 -0.6651 -2.3208  0.0981
 3913TIP3    H235935   2.930   3.472   9.858  0.0514  0.4313 -1.2889
 3914TIP3   OH235936   1.879   6.538   8.764 -0.1525  0.1909  0.0821
 3914TIP3    H135937   1.893   6.581   8.849 -2.7029 -1.8417  1.6651
 3914TIP3    H235938   1.805   6.585   8.726  0.2288  0.3314 -0.4992
 3915TIP3   OH235939   1.305   1.387   9.098 -0.2315 -0.5484 -0.4804
 3915TIP3    H135940   1.351   1.455   9.050  0.0696 -0.3427  0.0893
 3915TIP3    H235941   1.315   1.308   9.044  0.4024 -0.4019 -0.5815
 3916TIP3   OH235942   0.232   2.375   8.810  0.0627 -0.5640 -0.0181
 3916TIP3    H135943   0.156   2.321   8.830 -0.1968  0.0965  0.8843
 3916TIP3    H235944   0.271   2.335   8.733 -0.5941 -1.5317  0.1368
 3917TIP3   OH235945   4.269   3.122   8.766 -0.0162  0.1989 -0.4397
 3917TIP3    H135946   4.259   3.087   8.677 -0.3341 -0.7011 -0.0618
 3917TIP3    H235947   4.296   3.046   8.818 -0.7897  0.4904  0.4144
 3918TIP3   OH235948   1.292   2.884   8.334  0.1688 -1.0190  0.1929
 3918TIP3    H135949   1.278   2.791   8.315  2.3324 -1.0849 -1.3826
 3918TIP3    H235950   1.380   2.888   8.372  0.5530  0.4759 -0.7611
 3919TIP3   OH235951   6.413   5.638   9.929 -0.5947  0.4535  0.2385
 3919TIP3    H135952   6.404   5.702  10.000 -0.2842 -1.3804  2.0373
 3919TIP3    H235953   6.393   5.554   9.970  0.9311 -0.8567 -1.5162
 3920TIP3   OH235954   5.808   2.283   0.154  0.2791  0.5755  0.5070
 3920TIP3    H135955   5.870   2.343   0.113  0.8774 -0.2131  0.2210
 3920TIP3    H235956   5.861   2.208   0.179 -0.6045 -0.2163  0.0597
 3921TIP3   OH235957   0.642   7.425   0.928  0.2289  0.0484 -0.6234
 3921TIP3    H135958   0.557   7.408   0.969  0.6185 -0.4880 -0.0307
 3921TIP3    H235959   0.658   7.348   0.874 -0.1812  0.6546 -1.6574
 3922TIP3   OH235960   6.751   3.790   0.247  0.0144 -0.0352  0.4173
 3922TIP3    H135961   6.682   3.855   0.264 -1.1490 -0.1014 -3.1861
 3922TIP3    H235962   6.812   3.835   0.189  0.6419 -1.3592  0.0160
 3923TIP3   OH235963   7.322   2.143   1.707 -0.0249  0.0318  0.5302
 3923TIP3    H135964   7.306   2.186   1.791  0.6614  2.5190 -0.5118
 3923TIP3    H235965   7.351   2.055   1.730  1.6181  1.1144  2.9911
 3924TIP3   OH235966   5.494   6.927   0.209 -0.3963  0.6914 -0.2995
 3924TIP3    H135967   5.547   6.898   0.135  1.3895  0.7721  0.8886
 3924TIP3    H235968   5.444   7.001   0.175  0.7330  1.0221 -1.3075
 3925TIP3   OH235969   1.944   3.358   9.239 -0.0434  0.0527  0.4032
 3925TIP3    H135970   2.024   3.362   9.292 -0.3696  0.4417  0.8721
 3925TIP3    H235971   1.968   3.305   9.163  0.4788 -0.3597  0.8553
 3926TIP3   OH235972   4.784   3.434   7.155 -0.0795  0.0475 -0.5425
 3926TIP3    H135973   4.823   3.520   7.144  1.0447 -0.7522 -3.6669
 3926TIP3    H235974   4.849   3.385   7.205  0.3059  0.3649 -0.7248
 3927TIP3   OH235975   5.869   2.905   1.215  0.3150  0.2137  0.0933
 3927TIP3    H135976   5.848   2.996   1.239  1.2183  0.8656 -1.4381
 3927TIP3    H235977   5.955   2.911   1.173  0.5478 -1.4141  0.3013
 3928TIP3   OH235978   4.653   6.287   9.514 -0.2898  0.5124 -0.1059
 3928TIP3    H135979   4.744   6.305   9.492  0.7069  0.8902  3.6793
 3928TIP3    H235980   4.646   6.192   9.512 -0.1649  0.5077 -1.3943
 3929TIP3   OH235981   1.766   6.149   0.650  0.0991  0.4437  0.5602
 3929TIP3    H135982   1.807   6.100   0.721  1.1169 -1.4806 -1.2491
 3929TIP3    H235983   1.681   6.175   0.686 -0.5515 -2.7296  1.6976
 3930TIP3   OH235984   0.087   6.961   1.431  0.3816 -0.2090  0.3440
 3930TIP3    H135985   0.155   7.019   1.397 -1.1711  1.3423 -0.2473
 3930TIP3    H235986   0.113   6.945   1.522  0.9650  1.2686  0.4757
 3931TIP3   OH235987   4.981   5.408   1.021  0.6699  0.0563  0.2694
 3931TIP3    H135988   4.993   5.428   1.114 -0.1842 -0.5882  0.5343
 3931TIP3    H235989   5.066   5.426   0.981  1.3801 -0.7203  1.3727
 3932TIP3   OH235990   7.450   4.601   9.400  0.0683  0.1479 -0.0091
 3932TIP3    H135991   7.417   4.523   9.445  0.5887  0.4402  0.8920
 3932TIP3    H235992   7.380   4.623   9.337  0.3183 -1.5765 -0.9557
 3933TIP3   OH235993   3.590   3.430   2.042 -0.0665 -0.4135  0.7255
 3933TIP3    H135994   3.496   3.426   2.061 -0.1455  0.0331  0.4531
 3933TIP3    H235995   3.632   3.398   2.121 -0.4668 -1.4769  0.5299
 3934TIP3   OH235996   2.145   1.369   8.098  0.2013 -0.4299  0.2500
 3934TIP3    H135997   2.140   1.317   8.178  0.6889 -0.6553  0.1341
 3934TIP3    H235998   2.235   1.361   8.069  0.0793 -0.1810 -0.2136
 3935TIP3   OH235999   1.713   0.799   9.543  0.4519  0.2459 -0.1079
 3935TIP3    H136000   1.647   0.852   9.499 -0.0249  0.7021  1.1218
 3935TIP3    H236001   1.769   0.862   9.588  0.2968 -0.2452  0.7913
 3936TIP3   OH236002   2.080   5.010   0.173 -0.0145 -0.0973 -0.1554
 3936TIP3    H136003   2.072   4.918   0.199  0.2831 -0.4680 -1.3315
 3936TIP3    H236004   2.005   5.025   0.115 -1.7683  1.2460  2.2790
 3937TIP3   OH236005   0.878   5.176   0.835 -0.0642 -0.1182 -0.5462
 3937TIP3    H136006   0.852   5.253   0.886  0.7717 -0.4524  0.4153
 3937TIP3    H236007   0.973   5.183   0.827 -0.1637 -0.0833 -2.0861
 3938TIP3   OH236008   5.495   3.225   0.118 -0.5342 -0.2774  0.2518
 3938TIP3    H136009   5.589   3.222   0.138 -1.0931 -0.3662  3.5295
 3938TIP3    H236010   5.485   3.300   0.059  1.6616 -0.9002 -1.0345
 3939TIP3   OH236011   6.584   4.169   2.111  0.3628  0.1249  0.4211
 3939TIP3    H136012   6.634   4.105   2.061 -1.0581 -1.5051  1.0053
 3939TIP3    H236013   6.632   4.179   2.193  0.3351 -0.5704  0.5232
 3940TIP3   OH236014   2.876   2.269   2.190  0.0023 -0.2402 -0.2386
 3940TIP3    H136015   2.885   2.305   2.278 -1.1999 -1.3987  0.3981
 3940TIP3    H236016   2.807   2.321   2.149  0.2675  0.0261 -0.3477
 3941TIP3   OH236017   1.681   3.833   8.367 -0.9621 -0.3490 -0.3024
 3941TIP3    H136018   1.733   3.757   8.395 -0.6015  0.4950  1.4530
 3941TIP3    H236019   1.631   3.801   8.292  1.9239 -1.2682 -1.9989
 3942TIP3   OH236020   2.136   4.101   9.187  0.2911  0.2648  0.4356
 3942TIP3    H136021   2.054   4.113   9.138  0.2289  0.8338  0.6727
 3942TIP3    H236022   2.110   4.056   9.267  0.3314 -0.2874  0.1433
 3943TIP3   OH236023   7.118   5.364   3.001  0.2058 -0.0311 -0.4638
 3943TIP3    H136024   7.048   5.314   3.042  0.9311 -1.1496 -0.5393
 3943TIP3    H236025   7.098   5.362   2.908 -0.2865  0.6537 -0.3719
 3944TIP3   OH236026   0.423   5.180   8.948 -0.3216 -0.2465  0.5192
 3944TIP3    H136027   0.411   5.274   8.935 -1.8775 -0.4664  0.2054
 3944TIP3    H236028   0.345   5.140   8.910 -0.0257 -1.6293  1.3017
 3945TIP3   OH236029   1.085   2.639   1.891 -0.4194  0.0083 -0.3054
 3945TIP3    H136030   1.123   2.726   1.903  0.7400 -0.2659 -1.5672
 3945TIP3    H236031   1.157   2.579   1.913 -0.7421 -0.5829 -0.8374
 3946TIP3   OH236032   0.770   7.329   9.348 -0.5854 -0.0712  0.0021
 3946TIP3    H136033   0.741   7.254   9.401  1.3608  0.4902  2.0567
 3946TIP3    H236034   0.863   7.311   9.332 -0.3054  1.4645 -0.2087
 3947TIP3   OH236035   6.724   5.894   0.295 -0.0392 -0.6368  0.5092
 3947TIP3    H136036   6.758   5.846   0.370 -0.9435 -2.7347 -0.3406
 3947TIP3    H236037   6.706   5.826   0.230 -1.6699  0.8434 -0.6593
 3948TIP3   OH236038   2.423   6.837   9.151 -0.0074  0.5271  0.1245
 3948TIP3    H136039   2.487   6.796   9.209  0.1217  0.5147 -0.0280
 3948TIP3    H236040   2.341   6.833   9.201  0.1641  0.7928  0.4356
 3949TIP3   OH236041   1.646   5.318   6.372 -0.0689 -0.0185 -0.3483
 3949TIP3    H136042   1.591   5.377   6.425  0.7384  0.3828  0.0495
 3949TIP3    H236043   1.699   5.376   6.318 -0.0795 -0.4090 -0.7851
 3950TIP3   OH236044   0.513   3.061   1.639 -0.2345  0.3360 -0.1477
 3950TIP3    H136045   0.459   3.060   1.718 -0.8086  0.7286 -0.5278
 3950TIP3    H236046   0.597   3.024   1.666 -1.1846 -1.7759  0.1043
 3951TIP3   OH236047   4.323   5.430   2.669 -0.2106  0.2639 -0.7376
 3951TIP3    H136048   4.417   5.421   2.656 -0.2908 -2.0658 -0.1281
 3951TIP3    H236049   4.285   5.411   2.583 -0.1745 -0.4106 -0.6082
 3952TIP3   OH236050   4.979   5.695   1.800 -0.1459 -0.5361  0.2660
 3952TIP3    H136051   5.070   5.677   1.825  0.0310 -0.7716 -0.5135
 3952TIP3    H236052   4.933   5.613   1.819 -0.3737 -0.1621  1.4152
 3953TIP3   OH236053   0.183   0.439   9.550 -0.0614 -0.0413 -0.0375
 3953TIP3    H136054   0.169   0.522   9.505  1.0548  0.2283  0.0848
 3953TIP3    H236055   0.181   0.373   9.480  1.0568  0.3149 -0.4321
 3954TIP3   OH236056   2.147   7.191   9.485 -0.1413  0.2083  0.0180
 3954TIP3    H136057   2.087   7.205   9.412  0.6977  3.3729 -0.2194
 3954TIP3    H236058   2.120   7.255   9.551  1.1913 -0.3072  1.1155
 3955TIP3   OH236059   0.567   1.089   0.026  0.2056  0.4830  0.1613
 3955TIP3    H136060   0.552   1.178   0.057 -0.0213  0.1291  1.0857
 3955TIP3    H236061   0.489   1.067  -0.024  0.1802  0.7373  0.0903
 3956TIP3   OH236062   1.483   4.756   7.614 -0.6654  0.0448  0.7407
 3956TIP3    H136063   1.569   4.798   7.615  0.0241 -1.2231 -0.3158
 3956TIP3    H236064   1.493   4.680   7.672 -0.9667 -0.2804  0.3755
 3957TIP3   OH236065   0.616   1.139   9.739 -0.5111 -0.0972 -0.0133
 3957TIP3    H136066   0.637   1.063   9.685  0.5899  0.1653  0.0214
 3957TIP3    H236067   0.688   1.144   9.802  0.3586  1.9678 -1.0764
 3958TIP3   OH236068   1.861   3.618   1.505  0.1631  0.1540 -0.0438
 3958TIP3    H136069   1.864   3.558   1.578  1.4802 -0.7857 -0.8236
 3958TIP3    H236070   1.925   3.583   1.442 -1.3480  0.5688 -1.9117
 3959TIP3   OH236071   1.198   1.466   6.928 -0.0315  0.1307  0.4821
 3959TIP3    H136072   1.134   1.461   6.857 -0.9072  0.2791  1.2302
 3959TIP3    H236073   1.171   1.543   6.979 -0.0943 -0.5856  1.5760
 3960TIP3   OH236074   6.083   3.036   9.997  0.1977  0.0255  0.7512
 3960TIP3    H136075   6.126   2.957  10.030  1.7483 -0.0182 -1.2043
 3960TIP3    H236076   5.993   3.029  10.030  0.9355 -1.2568  2.7165
 3961TIP3   OH236077   4.000   4.875   8.836 -0.4262  0.2107  0.2177
 3961TIP3    H136078   4.005   4.934   8.760  1.5677  1.0587  0.9524
 3961TIP3    H236079   4.006   4.933   8.912  1.3165 -0.8821  0.9716
 3962TIP3   OH236080   5.287   2.807   0.928  0.1483 -0.0435  0.0019
 3962TIP3    H136081   5.228   2.776   0.997 -0.7971 -0.3292 -0.9063
 3962TIP3    H236082   5.319   2.891   0.959  0.9436 -0.8464  1.4772
 3963TIP3   OH236083   5.819   7.248   1.552 -0.1686 -0.3040  0.8272
 3963TIP3    H136084   5.840   7.245   1.646 -0.4410 -1.4569  0.8728
 3963TIP3    H236085   5.828   7.157   1.524  1.0341  0.2070 -0.5271
 3964TIP3   OH236086   1.815   1.760   8.930 -0.4399 -0.4262 -0.5013
 3964TIP3    H136087   1.872   1.698   8.975 -0.1037  0.2204 -0.0293
 3964TIP3    H236088   1.874   1.820   8.886 -0.7328  0.4174  0.2209
 3965TIP3   OH236089   1.772   1.287   7.031  0.3184 -0.2196  0.1401
 3965TIP3    H136090   1.826   1.361   7.058 -0.1055  0.1296  0.0490
 3965TIP3    H236091   1.752   1.304   6.939  0.1503 -0.4037  0.1410
 3966TIP3   OH236092   5.379   4.173   9.686  0.3232  0.4186  0.1322
 3966TIP3    H136093   5.454   4.118   9.711 -0.1247 -0.6639 -0.8351
 3966TIP3    H236094   5.316   4.160   9.757  1.2230  1.7867  1.2536
 3967TIP3   OH236095   1.568   6.649   8.104  0.0754 -0.2914 -0.6727
 3967TIP3    H136096   1.535   6.568   8.064 -1.8888 -0.1105  0.4689
 3967TIP3    H236097   1.650   6.666   8.058 -0.5693 -1.7163 -2.4960
 3968TIP3   OH236098   3.463   5.774   1.587 -0.2219  0.5882 -0.0075
 3968TIP3    H136099   3.457   5.781   1.682  0.3121  0.5950  0.0299
 3968TIP3    H236100   3.374   5.790   1.555 -0.7557 -1.0251  0.5904
 3969TIP3   OH236101   2.480   6.204   9.201  0.2787 -0.1185 -0.0717
 3969TIP3    H136102   2.479   6.159   9.116  1.4695 -1.3751  0.5272
 3969TIP3    H236103   2.493   6.133   9.264  1.8057  1.0269  0.9622
 3970TIP3   OH236104   1.835   0.377   7.181  0.5828 -0.6374  0.1449
 3970TIP3    H136105   1.871   0.400   7.095  1.1424 -1.8145  0.0378
 3970TIP3    H236106   1.744   0.353   7.163  0.7949 -1.2104 -0.1815
 3971TIP3   OH236107   5.355   3.711   0.502  0.5417 -0.2639  0.1997
 3971TIP3    H136108   5.354   3.692   0.596 -0.8385 -0.6659  0.1180
 3971TIP3    H236109   5.283   3.773   0.490  2.2612  1.7811 -0.2254
 3972TIP3   OH236110   0.022   0.803   0.034 -0.3826 -0.7437  0.1436
 3972TIP3    H136111   0.044   0.894   0.054 -0.6125 -0.1265 -2.1123
 3972TIP3    H236112   0.080   0.779  -0.038 -1.7898 -1.6335 -0.7579
 3973TIP3   OH236113   6.369   1.220   9.915 -0.5099 -0.4308 -0.9911
 3973TIP3    H136114   6.455   1.218   9.956 -1.2902  1.9356  0.9728
 3973TIP3    H236115   6.388   1.239   9.823  1.1079  3.9673 -0.0030
 3974TIP3   OH236116   6.200   6.846   8.987  0.0247 -0.2406  0.0129
 3974TIP3    H136117   6.251   6.889   9.056 -1.2773 -0.8391  1.4155
 3974TIP3    H236118   6.264   6.795   8.938  0.7481 -1.6298  2.2225
 3975TIP3   OH236119   2.020   0.676   2.177 -0.0648 -0.2194  0.6425
 3975TIP3    H136120   1.933   0.659   2.139  0.2112  0.3182 -0.2544
 3975TIP3    H236121   2.040   0.597   2.227 -1.0530 -0.3660  0.8322
 3976TIP3   OH236122   1.697   2.044   6.951  0.1317 -0.5900  0.5869
 3976TIP3    H136123   1.729   2.036   6.861 -0.2613  0.7219  0.3068
 3976TIP3    H236124   1.774   2.028   7.006  0.7632  0.3085 -0.0198
 3977TIP3   OH236125   0.942   1.518   1.683  0.1624 -0.0786 -0.2542
 3977TIP3    H136126   0.927   1.611   1.703  2.0687  1.1530 -3.5969
 3977TIP3    H236127   1.019   1.495   1.735  0.8540  0.8822 -0.7996
 3978TIP3   OH236128   4.924   0.286   1.373 -0.2553 -0.0955 -0.0843
 3978TIP3    H136129   4.865   0.311   1.444  0.5283  0.0773  0.5118
 3978TIP3    H236130   4.912   0.191   1.364 -0.2875 -0.1332  0.3348
 3979TIP3   OH236131   0.835   2.469   6.904 -0.0253 -0.6105 -0.3307
 3979TIP3    H136132   0.744   2.475   6.876  0.1202  1.1936 -0.5197
 3979TIP3    H236133   0.873   2.554   6.884  1.4949 -1.0370  0.5088
 3980TIP3   OH236134   4.431   0.355   9.179 -0.5304  0.1491  0.5586
 3980TIP3    H136135   4.435   0.277   9.123  0.4074 -0.3553  1.3105
 3980TIP3    H236136   4.521   0.388   9.181 -0.3701 -0.3095  2.4131
 3981TIP3   OH236137   6.929   3.618   0.831  0.0082  0.0871  0.3018
 3981TIP3    H136138   6.932   3.523   0.819 -0.7880 -0.5091  3.6455
 3981TIP3    H236139   6.872   3.630   0.908  1.9689  3.0771  1.4470
 3982TIP3   OH236140   5.461   1.852   8.220 -0.0078  0.0300  0.1336
 3982TIP3    H136141   5.541   1.893   8.187 -0.5253  1.6233  0.7634
 3982TIP3    H236142   5.459   1.766   8.178  2.0623 -0.0763  0.1545
 3983TIP3   OH236143   7.374   5.676   0.727 -0.7538 -0.1482  0.2941
 3983TIP3    H136144   7.403   5.585   0.727 -0.5024 -0.0769  1.1478
 3983TIP3    H236145   7.384   5.704   0.818  1.0663  1.3335 -0.2932
 3984TIP3   OH236146   6.011   4.160   0.500 -0.1606  0.3907 -0.0688
 3984TIP3    H136147   6.089   4.138   0.449 -0.6724  0.2597 -0.8208
 3984TIP3    H236148   5.946   4.094   0.473 -0.6551  0.7506  0.2296
 3985TIP3   OH236149   2.598   1.923   2.230  0.1166  0.4575  0.0417
 3985TIP3    H136150   2.595   1.846   2.173  0.0190  0.8361 -0.4811
 3985TIP3    H236151   2.691   1.945   2.235  0.2907 -0.4463  1.2506
 3986TIP3   OH236152   1.744   2.202   7.950 -0.2494  0.2489  0.7020
 3986TIP3    H136153   1.795   2.158   7.882  0.8159  2.3337  0.0918
 3986TIP3    H236154   1.696   2.131   7.993  2.0872 -1.6442  0.4007
 3987TIP3   OH236155   4.861   0.551   0.018  0.1955 -0.1121 -0.7340
 3987TIP3    H136156   4.918   0.474   0.013 -0.6851 -0.8276 -0.1040
 3987TIP3    H236157   4.819   0.544   0.104  0.9573  1.7012 -0.1824
 3988TIP3   OH236158   0.100   6.422   8.037 -0.6809 -0.1092 -0.0828
 3988TIP3    H136159   0.043   6.359   8.081 -0.2483  0.7260  1.7827
 3988TIP3    H236160   0.042   6.495   8.014 -0.7817 -0.2514 -0.2811
 3989TIP3   OH236161   5.974   6.270   0.846 -0.1801  0.5001 -0.1454
 3989TIP3    H136162   5.900   6.225   0.806 -0.3321  0.9893 -0.4226
 3989TIP3    H236163   6.017   6.316   0.774  0.1130  0.6054  0.0909
 3990TIP3   OH236164   4.968   3.398   1.121  0.0885 -0.3150 -0.1144
 3990TIP3    H136165   4.920   3.415   1.202  1.7441  1.6990  0.5208
 3990TIP3    H236166   5.036   3.336   1.146  0.5074  0.1924  0.0127
 3991TIP3   OH236167   1.303   3.723   0.306  0.3249  0.6147 -0.2304
 3991TIP3    H136168   1.369   3.781   0.344 -0.7280  1.4125  0.4294
 3991TIP3    H236169   1.332   3.709   0.216  1.8496  0.2414  0.2918
 3992TIP3   OH236170   0.127   1.770   9.746  0.4079 -0.2213  0.0859
 3992TIP3    H136171   0.088   1.700   9.799 -0.8399  0.0182 -0.4971
 3992TIP3    H236172   0.187   1.814   9.806 -0.1631 -0.6405  0.9834
 3993TIP3   OH236173   0.370   5.377   7.715 -0.1039  0.3722 -0.2500
 3993TIP3    H136174   0.354   5.456   7.662  1.4167  1.1532  0.4116
 3993TIP3    H236175   0.319   5.309   7.671 -2.8082  2.0233  0.0690
 3994TIP3   OH236176   0.110   6.044   0.936 -0.1652  0.1281  0.0368
 3994TIP3    H136177   0.182   6.044   0.998  0.5425 -0.1461 -0.7737
 3994TIP3    H236178   0.115   6.130   0.893  0.3559 -0.3066 -0.7863
 3995TIP3   OH236179   1.996   4.435   8.630  0.6320  0.1906  0.0676
 3995TIP3    H136180   1.939   4.386   8.571  2.4457 -2.0147  0.0118
 3995TIP3    H236181   1.980   4.527   8.608 -1.1560 -0.4409 -1.5173
 3996TIP3   OH236182   6.297   2.837   1.595  0.5491  0.1474  0.6298
 3996TIP3    H136183   6.302   2.761   1.652  1.1791  0.0713  0.4809
 3996TIP3    H236184   6.356   2.817   1.523 -0.2465  0.2322 -0.0641
 3997TIP3   OH236185   6.464   4.397   7.816  0.2468  0.5149  0.5759
 3997TIP3    H136186   6.460   4.484   7.775  0.3598 -0.4592 -1.6728
 3997TIP3    H236187   6.471   4.337   7.742  1.3038 -1.3571  2.1179
 3998TIP3   OH236188   4.257   4.345   8.862 -0.2163  0.2760 -0.7466
 3998TIP3    H136189   4.352   4.334   8.855 -0.3184 -1.6764  0.3853
 3998TIP3    H236190   4.243   4.366   8.954 -0.7970  2.1049 -1.2078
 3999TIP3   OH236191   7.129   3.240   1.480  0.3428  0.3384 -0.1431
 3999TIP3    H136192   7.049   3.250   1.428 -0.8516 -0.3339  1.5031
 3999TIP3    H236193   7.130   3.148   1.507  1.3372  0.4885  0.4005
 4000TIP3   OH236194   2.924   1.663   0.792 -0.6364 -0.1459 -0.6892
 4000TIP3    H136195   2.985   1.706   0.852  0.0064 -0.1936 -1.2900
 4000TIP3    H236196   2.838   1.699   0.814 -0.4424 -0.3246  0.3919
 4001TIP3   OH236197   7.092   5.482   0.887  0.1695  0.2801  0.5238
 4001TIP3    H136198   7.086   5.577   0.890  0.4262  0.2858  1.1838
 4001TIP3    H236199   7.083   5.459   0.795  0.8256  0.9981  0.2706
 4002TIP3   OH236200   3.237   6.390   8.081 -0.0294  0.0074  0.3326
 4002TIP3    H136201   3.222   6.477   8.044  0.6363  0.6702  1.5395
 4002TIP3    H236202   3.180   6.387   8.157 -0.9466 -1.1039 -0.3792
 4003TIP3   OH236203   1.129   3.155   1.037 -0.2717  0.0752 -0.2722
 4003TIP3    H136204   1.034   3.158   1.041 -0.2369  0.6483  0.3463
 4003TIP3    H236205   1.152   3.195   0.954 -0.5216  1.3753  0.2609
 4004TIP3   OH236206   2.786   6.190   9.607 -0.2077  0.4166 -0.6968
 4004TIP3    H136207   2.862   6.190   9.665 -1.3003 -1.6452  0.8522
 4004TIP3    H236208   2.788   6.276   9.565  1.2033  1.6291  1.6401
 4005TIP3   OH236209   1.240   6.709   0.649  0.6437 -0.5073 -0.0159
 4005TIP3    H136210   1.177   6.648   0.612 -1.0953  0.1960  1.6260
 4005TIP3    H236211   1.227   6.790   0.599  0.4448 -0.4548  0.1185
 4006TIP3   OH236212   0.486   5.433   6.614  0.0523  0.5794  0.2718
 4006TIP3    H136213   0.409   5.478   6.649 -0.2454  0.2235  0.0852
 4006TIP3    H236214   0.456   5.343   6.599  0.6198  0.3384  0.5742
 4007TIP3   OH236215   5.421   2.611   0.757  0.1836  0.1499  0.1066
 4007TIP3    H136216   5.369   2.679   0.800  0.1362  1.3505 -1.7500
 4007TIP3    H236217   5.379   2.529   0.783 -2.0619  1.0346 -0.4896
 4008TIP3   OH236218   7.079   1.091   2.103 -0.6890  0.1138  0.4557
 4008TIP3    H136219   7.136   1.043   2.164 -0.8211 -0.9516 -0.2214
 4008TIP3    H236220   6.991   1.083   2.141 -0.8733 -1.1020 -0.1550
 4009TIP3   OH236221   0.852   4.390   2.701 -0.0952 -0.9983 -0.2459
 4009TIP3    H136222   0.932   4.375   2.651 -0.1933 -0.6960 -0.4948
 4009TIP3    H236223   0.791   4.324   2.669  0.6673 -2.5470  1.3406
 4010TIP3   OH236224   2.443   4.857   7.578 -0.4258 -0.2471 -0.2386
 4010TIP3    H136225   2.475   4.805   7.505  1.8671  0.0053  0.4937
 4010TIP3    H236226   2.400   4.932   7.538 -1.1152 -1.1998 -1.3049
 4011TIP3   OH236227   1.006   3.226   2.315 -0.3936  0.1220  0.3139
 4011TIP3    H136228   0.976   3.228   2.405 -0.1571  1.1592  0.3880
 4011TIP3    H236229   0.933   3.191   2.265 -1.3691  1.6412  0.6209
 4012TIP3   OH236230   0.402   2.782   9.925 -0.1576  0.5961 -0.2362
 4012TIP3    H136231   0.480   2.765   9.978  0.7420  0.6641 -1.4848
 4012TIP3    H236232   0.376   2.696   9.892 -0.3546  0.6286 -0.1660
 4013TIP3   OH236233   3.191   1.942   9.798  0.3612  0.3322  0.1841
 4013TIP3    H136234   3.209   1.969   9.888  1.0090  0.7035 -0.0428
 4013TIP3    H236235   3.144   1.859   9.806  0.7064  0.1950  0.8564
 4014TIP3   OH236236   4.610   3.171   8.051  0.2006  0.2780  0.2371
 4014TIP3    H136237   4.548   3.201   8.119  1.9783  4.6360  0.2705
 4014TIP3    H236238   4.557   3.168   7.971 -1.0395 -0.9857  1.0409
 4015TIP3   OH236239   0.675   7.185   1.855  0.2587 -0.1899  0.4157
 4015TIP3    H136240   0.594   7.236   1.844  0.2694 -0.1269  0.6256
 4015TIP3    H236241   0.745   7.247   1.837  0.2686 -0.1661  0.5393
 4016TIP3   OH236242   2.889   0.761   7.507 -0.6630  0.7289 -0.4193
 4016TIP3    H136243   2.951   0.715   7.450 -1.6536  0.8972 -1.6567
 4016TIP3    H236244   2.842   0.820   7.449 -0.6958  1.9795  0.8339
 4017TIP3   OH236245   1.993   6.363   9.680  0.0878  0.6623 -0.0994
 4017TIP3    H136246   2.049   6.421   9.629 -0.2324  0.8224 -0.2695
 4017TIP3    H236247   1.952   6.307   9.614 -0.9752  1.4278 -0.0997
 4018TIP3   OH236248   3.928   2.599   9.523 -0.2005  0.0297 -0.2333
 4018TIP3    H136249   4.010   2.568   9.562 -0.4762 -2.1947 -1.2198
 4018TIP3    H236250   3.894   2.522   9.476 -1.7629  1.5030 -1.6510
 4019TIP3   OH236251   5.287   4.319   9.450 -0.2636 -0.1153  1.0405
 4019TIP3    H136252   5.381   4.318   9.468 -0.2876 -1.1877  1.1936
 4019TIP3    H236253   5.265   4.412   9.440  1.0320  0.0819 -0.2391
 4020TIP3   OH236254   4.644   2.824   9.964 -0.1250  0.0900  0.9071
 4020TIP3    H136255   4.557   2.845   9.998 -0.3333  0.1754  0.3292
 4020TIP3    H236256   4.702   2.834  10.039 -0.5108  0.7502  1.1254
 4021TIP3   OH236257   2.344   1.006   8.331 -0.2394 -0.3086 -0.5687
 4021TIP3    H136258   2.336   1.042   8.243  0.4523 -1.3520 -1.0839
 4021TIP3    H236259   2.390   0.923   8.319 -0.2485 -0.5356  0.7648
 4022TIP3   OH236260   0.833   1.816   8.270  0.1415  0.4980 -0.3272
 4022TIP3    H136261   0.744   1.802   8.304  0.3096  0.5651  0.1387
 4022TIP3    H236262   0.878   1.865   8.339  0.6985  0.0168 -0.3424
 4023TIP3   OH236263   6.441   0.896   1.636  0.5649  0.6558 -0.3445
 4023TIP3    H136264   6.390   0.908   1.556 -0.5739  0.7248  0.3563
 4023TIP3    H236265   6.494   0.818   1.620 -2.3501 -1.6149  0.0877
 4024TIP3   OH236266   6.963   1.938   0.957 -0.2678 -0.7341 -0.3602
 4024TIP3    H136267   7.038   1.913   1.010 -0.6165 -0.4167  0.2898
 4024TIP3    H236268   6.937   2.024   0.990 -1.0010 -0.9012 -0.4782
 4025TIP3   OH236269   2.719   4.618   2.727 -0.5471  0.1560  0.2728
 4025TIP3    H136270   2.781   4.606   2.655  1.7636 -0.0609  2.1621
 4025TIP3    H236271   2.700   4.711   2.728  1.4833  0.6305  0.8806
 4026TIP3   OH236272   3.623   5.258   2.777 -0.2019  0.0590  0.3373
 4026TIP3    H136273   3.575   5.318   2.835 -0.5482 -1.7354  2.0334
 4026TIP3    H236274   3.571   5.254   2.697 -0.2448  1.8627  0.2362
 4027TIP3   OH236275   3.790   6.351   9.092 -0.5090  0.0771  0.3991
 4027TIP3    H136276   3.734   6.395   9.028  1.0086  0.2677 -0.8568
 4027TIP3    H236277   3.837   6.284   9.041  0.8770  0.3657  1.2481
 4028TIP3   OH236278   5.907   7.211   1.892 -0.2429  0.0663  0.1607
 4028TIP3    H136279   5.919   7.154   1.968  0.3290 -0.6891 -0.4833
 4028TIP3    H236280   5.991   7.255   1.882 -0.5298  0.6687  0.3604
 4029TIP3   OH236281   3.610   4.665   8.618 -0.2659 -0.1836 -0.2718
 4029TIP3    H136282   3.589   4.684   8.526 -1.1340  0.0524 -0.0315
 4029TIP3    H236283   3.699   4.631   8.615  0.4450  1.5970 -1.0017
 4030TIP3   OH236284   0.291   7.130   1.379 -0.5243 -0.1634  0.5063
 4030TIP3    H136285   0.302   7.198   1.446 -0.2561  0.1075  0.1944
 4030TIP3    H236286   0.308   7.176   1.296 -1.0444 -0.4519  0.2381
 4031TIP3   OH236287   3.280   0.378   9.520  0.3391 -0.4470 -0.4328
 4031TIP3    H136288   3.278   0.461   9.473  1.5845  0.1191  0.4427
 4031TIP3    H236289   3.301   0.402   9.611  1.0218 -1.7238 -0.2215
 4032TIP3   OH236290   4.609   5.011   2.323 -0.0946 -0.0845 -0.7037
 4032TIP3    H136291   4.648   4.949   2.262 -0.3870 -0.0517 -0.9262
 4032TIP3    H236292   4.519   4.981   2.334  0.3536 -0.9643  0.8762
 4033TIP3   OH236293   3.119   5.375   0.750  0.0465 -0.0038 -0.1866
 4033TIP3    H136294   3.132   5.321   0.673 -1.5468  0.6296 -0.9343
 4033TIP3    H236295   3.162   5.326   0.821  1.6684 -0.5168 -1.4579
 4034TIP3   OH236296   0.776   1.314   9.417  0.3346 -0.1238 -0.2011
 4034TIP3    H136297   0.800   1.248   9.351 -0.7858 -2.1043  1.2687
 4034TIP3    H236298   0.701   1.276   9.463  1.0665  1.1602  2.2170
 4035TIP3   OH236299   5.873   3.820   8.621 -0.4048  0.2309  0.2413
 4035TIP3    H136300   5.925   3.747   8.654 -1.1180  0.4143  1.8521
 4035TIP3    H236301   5.907   3.835   8.533 -2.4184 -4.1931 -1.5797
 4036TIP3   OH236302   1.410   6.584   0.453  0.5355  0.3720  0.4639
 4036TIP3    H136303   1.365   6.610   0.372  0.6349  0.1458  0.3354
 4036TIP3    H236304   1.354   6.617   0.523 -0.3599 -0.7628  0.3183
 4037TIP3   OH236305   6.435   3.455   1.089  0.0029  0.5669 -0.9001
 4037TIP3    H136306   6.376   3.390   1.127 -0.1503  0.8952 -0.5782
 4037TIP3    H236307   6.381   3.501   1.025 -0.2262  1.1928 -0.2596
 4038TIP3   OH236308   3.898   7.226   8.536 -0.2487 -0.3235 -0.2140
 4038TIP3    H136309   3.855   7.312   8.535  0.7121  0.1796 -1.6801
 4038TIP3    H236310   3.873   7.186   8.453  1.5395 -0.2952 -0.7975
 4039TIP3   OH236311   5.790   5.941   0.535 -0.4090 -0.0573 -0.4463
 4039TIP3    H136312   5.869   5.956   0.588 -0.3844 -0.2260 -0.4345
 4039TIP3    H236313   5.723   5.914   0.598 -0.5543  0.3538 -0.4203
 4040TIP3   OH236314   4.995   5.406   1.316 -0.1193  0.0301  0.2152
 4040TIP3    H136315   4.912   5.360   1.304  0.2179 -0.9430  1.4047
 4040TIP3    H236316   4.971   5.489   1.357 -0.3691 -1.3178  3.0083
 4041TIP3   OH236317   1.617   0.675   8.204  0.3935  1.0216 -0.1190
 4041TIP3    H136318   1.566   0.594   8.206  0.6239  0.8751  1.6787
 4041TIP3    H236319   1.694   0.653   8.152 -0.3066  0.5801 -0.9966
 4042TIP3   OH236320   0.822   5.687   8.675 -0.0434  0.2608  0.0305
 4042TIP3    H136321   0.777   5.772   8.669  0.3980  0.4153 -1.4057
 4042TIP3    H236322   0.890   5.691   8.608  1.4969 -0.3589  1.5047
 4043TIP3   OH236323   4.482   0.573   1.043 -0.2842  0.3075  0.3471
 4043TIP3    H136324   4.494   0.487   1.083 -2.1151  0.4794  1.4067
 4043TIP3    H236325   4.421   0.558   0.970  2.8754  0.0331 -2.4444
 4044TIP3   OH236326   7.357   7.233   9.769 -0.6025 -0.2376  0.6136
 4044TIP3    H136327   7.270   7.209   9.802 -1.2140 -0.4826 -1.0644
 4044TIP3    H236328   7.343   7.313   9.720 -0.2496 -1.1953 -1.1348
 4045TIP3   OH236329   2.243   5.043   8.153 -0.4210 -0.2205 -0.0885
 4045TIP3    H136330   2.234   5.104   8.081 -0.4926 -0.7588 -0.5394
 4045TIP3    H236331   2.247   5.098   8.231  0.8907  0.4290 -0.5917
 4046TIP3   OH236332   3.763   3.501   1.480  0.7473 -0.3804 -0.4439
 4046TIP3    H136333   3.822   3.493   1.555  0.2960 -1.2540 -0.1740
 4046TIP3    H236334   3.745   3.411   1.453 -0.8821 -0.1603 -0.1923
 4047TIP3   OH236335   4.303   0.521   7.785 -0.0680 -0.1116  0.3801
 4047TIP3    H136336   4.253   0.468   7.722 -0.7334  1.5443 -0.5397
 4047TIP3    H236337   4.337   0.457   7.848 -2.4932 -1.4522  0.4736
 4048TIP3   OH236338   5.573   4.495   0.065 -0.2016  0.1582  0.7604
 4048TIP3    H136339   5.651   4.452   0.028 -0.0500 -1.4914  2.8019
 4048TIP3    H236340   5.500   4.439   0.039 -0.5162  0.8005  0.2354
 4049TIP3   OH236341   4.414   6.002   8.039  0.7378  0.4466 -0.1837
 4049TIP3    H136342   4.429   6.053   7.959  0.3414  0.8990  0.0279
 4049TIP3    H236343   4.487   5.940   8.041  0.2957 -0.1640 -1.3629
 4050TIP3   OH236344   2.300   6.604   9.824 -0.0522 -0.2081  0.0811
 4050TIP3    H136345   2.270   6.659   9.752 -0.8676 -2.1136 -1.1300
 4050TIP3    H236346   2.250   6.634   9.900 -0.2760  0.8674 -0.4775
 4051TIP3   OH236347   1.401   7.073   9.527  0.2095 -0.1481 -0.7800
 4051TIP3    H136348   1.444   7.036   9.603 -1.0485 -0.3943 -0.1625
 4051TIP3    H236349   1.465   7.134   9.491  0.8384 -0.0538  0.4417
 4052TIP3   OH236350   5.372   6.604   9.651  0.0626 -0.1457 -0.5598
 4052TIP3    H136351   5.367   6.514   9.686 -0.0086  0.4842  1.1457
 4052TIP3    H236352   5.465   6.626   9.658 -0.1762  0.5178  0.6659
 4053TIP3   OH236353   3.333   4.798   2.928 -0.0597 -0.3979 -0.4641
 4053TIP3    H136354   3.286   4.838   2.855  2.6793  1.4665 -1.3615
 4053TIP3    H236355   3.349   4.708   2.900  0.4974  0.1442 -1.9746
 4054TIP3   OH236356   3.951   3.076   2.614 -0.1649 -0.8582  0.2800
 4054TIP3    H136357   3.895   3.111   2.684 -2.7282  0.6942 -2.3033
 4054TIP3    H236358   4.003   3.151   2.585 -0.3986 -1.0019 -0.5566
 4055TIP3   OH236359   2.230   4.234   8.099 -0.3226  0.4327 -0.5332
 4055TIP3    H136360   2.281   4.279   8.031 -1.7533  2.2106 -0.4990
 4055TIP3    H236361   2.169   4.300   8.131 -0.2550 -0.5988  1.9389
 4056TIP3   OH236362   2.653   6.416   1.148 -0.3064 -0.8758 -0.6579
 4056TIP3    H136363   2.706   6.467   1.086 -1.5575  0.9463 -0.3057
 4056TIP3    H236364   2.669   6.457   1.233 -1.4793 -0.9257 -0.3906
 4057TIP3   OH236365   4.974   5.663   1.390  0.4726  0.4282 -0.3444
 4057TIP3    H136366   4.960   5.740   1.445 -0.8050  0.7735 -1.1230
 4057TIP3    H236367   5.019   5.697   1.312 -2.2569  0.8840 -1.8182
 4058TIP3   OH236368   3.783   4.501   7.774 -0.3426  0.0094  0.0408
 4058TIP3    H136369   3.876   4.492   7.756  0.0306  2.0450  0.7430
 4058TIP3    H236370   3.752   4.410   7.783  1.6417 -0.7034  0.2494
 4059TIP3   OH236371   1.374   0.498   1.005  0.2381  0.4173  0.2844
 4059TIP3    H136372   1.306   0.435   1.028 -0.4770  0.7477 -0.8340
 4059TIP3    H236373   1.433   0.450   0.947 -0.0261  0.6202 -0.1589
 4060TIP3   OH236374   4.562   3.208   0.559 -0.1064 -0.0923  0.3036
 4060TIP3    H136375   4.594   3.298   0.556  2.1659 -0.8208  0.0614
 4060TIP3    H236376   4.595   3.169   0.478  1.0563 -1.7398  1.5022
 4061TIP3   OH236377   2.511   3.825   8.726 -0.4059 -0.3278 -0.0887
 4061TIP3    H136378   2.515   3.847   8.633  1.5361  0.0021  0.0371
 4061TIP3    H236379   2.589   3.772   8.741 -0.4491  0.0182  1.4592
 4062TIP3   OH236380   5.628   1.136   9.541 -0.0494 -0.2197 -0.1242
 4062TIP3    H136381   5.582   1.055   9.515 -1.5801  0.0196  1.6243
 4062TIP3    H236382   5.683   1.109   9.615  0.4096  0.0881 -0.3537
 4063TIP3   OH236383   4.350   1.629   1.222 -0.1607  0.2961  0.1007
 4063TIP3    H136384   4.274   1.593   1.268  0.2556 -0.6236  0.1078
 4063TIP3    H236385   4.334   1.608   1.130 -0.2338  0.7038  0.0197
 4064TIP3   OH236386   5.849   5.257   0.834 -1.0471 -0.0666 -0.2501
 4064TIP3    H136387   5.780   5.309   0.876 -0.3555  0.1404  0.6795
 4064TIP3    H236388   5.900   5.222   0.907 -0.0715 -0.0769 -0.9133
 4065TIP3   OH236389   0.743   6.307   8.883 -0.2716 -0.0519  0.2669
 4065TIP3    H136390   0.667   6.320   8.826 -0.2311 -0.5130  0.1097
 4065TIP3    H236391   0.747   6.212   8.897 -0.0011  0.0140  0.6531
 4066TIP3   OH236392   5.349   4.256   0.865  0.3109 -0.1682  0.0500
 4066TIP3    H136393   5.331   4.262   0.959  1.0962  0.9232  0.1514
 4066TIP3    H236394   5.263   4.243   0.825  0.1271 -2.1175  1.0082
 4067TIP3   OH236395   3.566   3.824   0.463  0.7293 -0.3693  0.0336
 4067TIP3    H136396   3.645   3.878   0.452  0.5043  0.2886  1.3720
 4067TIP3    H236397   3.494   3.886   0.452  0.3435 -1.0960 -1.8583
 4068TIP3   OH236398   4.072   3.169   9.109 -0.0886  1.1465 -0.1281
 4068TIP3    H136399   4.002   3.151   9.173  0.5667 -0.5717  0.1469
 4068TIP3    H236400   4.025   3.185   9.027 -0.8530 -1.7328 -0.3762
 4069TIP3   OH236401   5.977   0.584   1.871  0.2398  0.4071 -0.6349
 4069TIP3    H136402   5.969   0.639   1.950  0.8322 -0.6900  0.2127
 4069TIP3    H236403   5.995   0.497   1.904  0.0251 -0.1769 -1.9948
 4070TIP3   OH236404   4.317   0.503   8.155 -0.0708  0.8085 -0.1205
 4070TIP3    H136405   4.361   0.479   8.073  0.5253  0.0965  0.3920
 4070TIP3    H236406   4.325   0.598   8.160  1.1785  0.7190 -0.1878
 4071TIP3   OH236407   6.549   4.530   8.814  0.3583  0.5873 -0.5543
 4071TIP3    H136408   6.461   4.552   8.843  0.9366  1.7387  0.3860
 4071TIP3    H236409   6.598   4.612   8.820  1.5549 -0.0826 -0.8417
 4072TIP3   OH236410   3.665   1.779   8.890 -0.3138 -0.0890  0.1418
 4072TIP3    H136411   3.603   1.717   8.928 -1.8536  0.9015 -0.6418
 4072TIP3    H236412   3.667   1.852   8.951  0.2134 -0.1674  0.2266
 4073TIP3   OH236413   4.452   4.570   0.925  0.2187  0.1000 -0.1444
 4073TIP3    H136414   4.456   4.605   0.835  0.7284  2.0795  0.5915
 4073TIP3    H236415   4.527   4.510   0.930 -0.6559 -1.1731 -1.4442
 4074TIP3   OH236416   1.426   0.023   6.961 -0.1420  0.0007 -0.4178
 4074TIP3    H136417   1.367   0.094   6.985  0.2088  0.0981  0.1875
 4074TIP3    H236418   1.419   0.017   6.866 -0.3984  0.6524 -0.4471
 4075TIP3   OH236419   4.085   5.278   8.499  0.4121 -0.4121  0.2202
 4075TIP3    H136420   4.032   5.296   8.421  0.8200 -1.1499 -0.2496
 4075TIP3    H236421   4.168   5.324   8.482  0.5086 -0.5910  0.1989
 4076TIP3   OH236422   5.331   0.994   0.428  0.0881  0.3305  0.1051
 4076TIP3    H136423   5.385   0.943   0.369 -0.6463 -0.3835  0.0317
 4076TIP3    H236424   5.392   1.053   0.472  0.8401 -0.1109 -0.3303
 4077TIP3   OH236425   4.425   5.106   9.819  0.6740  1.0557  0.8246
 4077TIP3    H136426   4.356   5.148   9.766  0.9534  1.6824  0.9430
 4077TIP3    H236427   4.483   5.178   9.843 -0.7000  1.2670  4.0025
 4078TIP3   OH236428   6.853   2.077   8.075 -0.7678 -0.8499  0.2556
 4078TIP3    H136429   6.771   2.121   8.098 -1.3513 -1.1125 -1.2440
 4078TIP3    H236430   6.910   2.091   8.151 -1.9648 -0.0862  1.0368
 4079TIP3   OH236431   3.426   4.596   8.203 -0.0154  0.1840  0.4095
 4079TIP3    H136432   3.367   4.589   8.279 -0.1149 -1.1316  0.2379
 4079TIP3    H236433   3.513   4.605   8.241 -0.0244 -0.8370  0.7079
 4080TIP3   OH236434   1.046   3.125   8.283 -0.5832 -0.4375 -0.1336
 4080TIP3    H136435   1.094   3.101   8.363 -0.9581 -0.5197  0.0682
 4080TIP3    H236436   0.970   3.175   8.315 -0.1813  0.4292 -0.5052
 4081TIP3   OH236437   4.753   1.240   0.966  0.2984 -0.7414  0.4257
 4081TIP3    H136438   4.679   1.300   0.971 -0.4429 -1.7340  2.1179
 4081TIP3    H236439   4.770   1.231   0.872 -1.1242  0.2223  0.0465
 4082TIP3   OH236440   7.133   4.297   7.561 -0.3380 -0.3948 -0.1189
 4082TIP3    H136441   7.184   4.350   7.500  2.1280 -2.9256 -0.4742
 4082TIP3    H236442   7.066   4.256   7.506  1.1851 -1.8044 -1.0298
 4083TIP3   OH236443   4.551   3.711   7.884  0.7049 -0.5306  0.2518
 4083TIP3    H136444   4.585   3.750   7.803 -0.3846  0.3501  0.1941
 4083TIP3    H236445   4.600   3.754   7.953 -0.5428  1.0824  0.1914
 4084TIP3   OH236446   4.324   6.200   7.223 -0.5774 -0.4430  0.2821
 4084TIP3    H136447   4.356   6.203   7.314  0.6348  3.2952 -0.1126
 4084TIP3    H236448   4.395   6.157   7.175 -1.1852 -2.3628  0.9728
 4085TIP3   OH236449   6.448   1.730   0.242  0.4155 -0.0129  0.5564
 4085TIP3    H136450   6.426   1.803   0.184  1.8788 -0.7960 -1.1044
 4085TIP3    H236451   6.397   1.657   0.207 -0.8040  0.0986  2.0163
 4086TIP3   OH236452   1.474   1.727   8.633 -0.0916 -0.3640  0.4089
 4086TIP3    H136453   1.415   1.728   8.709 -2.4819 -1.0792 -1.3261
 4086TIP3    H236454   1.551   1.678   8.664  0.1407  1.4348  3.0530
 4087TIP3   OH236455   1.980   3.034   1.364 -0.0702  0.0589 -0.5196
 4087TIP3    H136456   2.018   3.077   1.287  0.1108  0.6700 -0.0950
 4087TIP3    H236457   1.989   3.098   1.434 -2.7522  0.6180 -0.5905
 4088TIP3   OH236458   3.036   1.872   1.663  0.2678  0.1608 -0.2380
 4088TIP3    H136459   2.979   1.948   1.675  0.6814  0.3531  0.5672
 4088TIP3    H236460   3.073   1.884   1.576  0.0558  0.6989 -0.2624
 4089TIP3   OH236461   6.148   2.906   8.702 -0.6991 -0.0385  0.5552
 4089TIP3    H136462   6.175   2.972   8.638  0.4779  0.1796  1.2362
 4089TIP3    H236463   6.225   2.896   8.758 -1.6435 -0.3512  1.8225
 4090TIP3   OH236464   7.158   5.252   9.709 -0.2640 -0.2117 -0.4214
 4090TIP3    H136465   7.063   5.269   9.714 -0.3719  1.1337 -4.0438
 4090TIP3    H236466   7.165   5.175   9.654  0.7764 -0.6991  0.3726
 4091TIP3   OH236467   2.660   7.097   6.938 -0.7960  0.0492 -0.1174
 4091TIP3    H136468   2.745   7.061   6.962 -0.9828 -1.4823 -1.5563
 4091TIP3    H236469   2.603   7.075   7.012 -0.4380 -0.9106 -0.1121
 4092TIP3   OH236470   1.371   3.338   2.445  0.6077 -0.0326 -0.1026
 4092TIP3    H136471   1.343   3.258   2.489  0.5825 -0.1444 -0.3210
 4092TIP3    H236472   1.439   3.310   2.384  0.6427  0.1208 -0.1344
 4093TIP3   OH236473   0.577   0.710   8.514 -0.6079 -0.0434 -0.1320
 4093TIP3    H136474   0.591   0.786   8.457 -3.4811  3.0916  2.8317
 4093TIP3    H236475   0.657   0.705   8.566 -0.3221  0.8820 -0.4561
 4094TIP3   OH236476   3.897   1.874   1.604  0.5017 -0.1482  0.4735
 4094TIP3    H136477   3.920   1.942   1.541 -0.6513  0.4437  0.6454
 4094TIP3    H236478   3.801   1.877   1.607  0.4569 -1.5393  0.7675
 4095TIP3   OH236479   3.874   5.312   0.725 -0.8337  0.4319  0.1684
 4095TIP3    H136480   3.889   5.222   0.754 -2.3589 -0.2772 -1.0917
 4095TIP3    H236481   3.936   5.364   0.777  0.8023 -1.4280  0.2302
 4096TIP3   OH236482   6.628   6.536   8.572 -0.0774 -0.2411 -0.1902
 4096TIP3    H136483   6.572   6.596   8.523 -0.8226  0.1805  1.1447
 4096TIP3    H236484   6.657   6.586   8.648  0.8654 -0.9657 -0.0546
 4097TIP3   OH236485   3.928   0.498   9.041  0.6121 -0.2524  0.2863
 4097TIP3    H136486   3.851   0.441   9.039  0.6052 -0.2357 -1.5234
 4097TIP3    H236487   3.977   0.470   9.118  0.2359 -2.1937 -0.1396
 4098TIP3   OH236488   1.715   2.298   9.492  0.2903 -1.0800  0.4089
 4098TIP3    H136489   1.682   2.277   9.405  1.6885  1.1298 -0.7354
 4098TIP3    H236490   1.808   2.273   9.489  0.3712 -0.9129  1.2310
 4099TIP3   OH236491   6.790   1.345   8.817  0.3837 -0.9419 -0.2685
 4099TIP3    H136492   6.751   1.301   8.893  1.4015 -0.5989  0.4664
 4099TIP3    H236493   6.884   1.340   8.832  0.6299 -1.2687 -1.7527
 4100TIP3   OH236494   1.243   0.187   7.071 -0.0599 -0.2541 -0.8906
 4100TIP3    H136495   1.194   0.238   7.007 -0.7419 -1.3980 -1.3304
 4100TIP3    H236496   1.201   0.207   7.155  0.0410  0.3158 -0.9728
 4101TIP3   OH236497   7.137   0.398   7.605 -0.5371 -0.0810  0.0975
 4101TIP3    H136498   7.090   0.389   7.688 -0.8173 -0.2520 -0.0742
 4101TIP3    H236499   7.125   0.489   7.580  3.2236  1.2793  2.3858
 4102TIP3   OH236500   1.191   1.984   1.237 -0.5434  0.3603 -0.5898
 4102TIP3    H136501   1.158   1.906   1.194 -0.7604  0.5217 -0.7217
 4102TIP3    H236502   1.158   1.978   1.327  1.6953 -1.0573  0.2042
 4103TIP3   OH236503   3.022   1.148   0.548  0.5835 -0.4595  0.6354
 4103TIP3    H136504   3.023   1.241   0.572  0.5513 -0.9136  2.5028
 4103TIP3    H236505   2.938   1.116   0.580 -0.4813 -0.6543 -2.1202
 4104TIP3   OH236506   1.608   3.705   7.403 -0.4583 -0.1481 -0.0735
 4104TIP3    H136507   1.613   3.617   7.441  1.2613  0.4258  1.1625
 4104TIP3    H236508   1.643   3.696   7.314 -0.7568 -0.8064 -0.1233
 4105TIP3   OH236509   7.360   0.012   7.763  0.1803  0.1240 -0.0638
 4105TIP3    H136510   7.409   0.016   7.681 -0.3150 -0.6460 -0.4104
 4105TIP3    H236511   7.297  -0.059   7.750  0.0815  0.0025  0.9726
 4106TIP3   OH236512   5.585   6.468   0.789 -0.5458 -0.1046 -0.3250
 4106TIP3    H136513   5.509   6.410   0.799  0.1473 -0.9792  0.0053
 4106TIP3    H236514   5.572   6.510   0.704 -1.0966 -0.7195 -0.5573
 4107TIP3   OH236515   5.520   3.138   1.826  0.1830 -0.6124  0.0821
 4107TIP3    H136516   5.508   3.221   1.873 -0.7426 -1.1396  0.8174
 4107TIP3    H236517   5.588   3.093   1.876  0.9003 -0.1933 -0.4902
 4108TIP3   OH236518   6.382   3.546   8.725  0.5704  0.4194 -0.0011
 4108TIP3    H136519   6.379   3.629   8.774  0.4369 -0.0510  0.8080
 4108TIP3    H236520   6.464   3.506   8.752  0.1105 -0.2205  0.4767
 4109TIP3   OH236521   0.033   3.171   7.332 -0.0534  0.2257 -0.1496
 4109TIP3    H136522   0.054   3.092   7.381  0.0580  1.7045  2.3368
 4109TIP3    H236523  -0.034   3.215   7.384 -0.1733  1.7293 -1.5054
 4110TIP3   OH236524   4.923   1.310   0.139  0.2710  0.5070  0.0716
 4110TIP3    H136525   4.974   1.318   0.219 -0.3683 -0.3835  0.5863
 4110TIP3    H236526   4.832   1.300   0.169 -0.1301  1.3947 -0.8027
 4111TIP3   OH236527   0.069   4.390   0.816 -0.0834  0.4382 -0.0081
 4111TIP3    H136528   0.088   4.482   0.796  0.0919  0.6535  1.0885
 4111TIP3    H236529  -0.006   4.394   0.874 -1.4070 -0.2412 -1.5842
 4112TIP3   OH236530   4.001   4.364   1.724  0.1546 -0.1970  0.2463
 4112TIP3    H136531   3.970   4.432   1.785  0.1946  0.1543 -0.1255
 4112TIP3    H236532   3.921   4.324   1.690  0.1215  0.1989 -0.1380
 4113TIP3   OH236533   5.177   5.773   7.779 -0.4238  0.1545  0.2296
 4113TIP3    H136534   5.097   5.821   7.761  0.6066  2.1398  0.6244
 4113TIP3    H236535   5.245   5.822   7.733  0.7158 -0.8646  0.7611
 4114TIP3   OH236536   5.808   3.440   0.020  0.3205 -0.0776 -0.5365
 4114TIP3    H136537   5.902   3.438   0.042  0.4919 -2.9466 -1.0567
 4114TIP3    H236538   5.802   3.387  -0.060 -1.8647 -0.8085  0.0517
 4115TIP3   OH236539   5.706   1.127   7.628  0.1399 -0.2420 -0.0724
 4115TIP3    H136540   5.721   1.221   7.635  3.0552 -0.4808 -1.5092
 4115TIP3    H236541   5.748   1.089   7.705  0.9517 -0.4843 -0.6211
 4116TIP3   OH236542   1.100   4.655   1.661 -0.2797 -0.3548  0.2728
 4116TIP3    H136543   1.049   4.680   1.738 -0.4114  0.0697  0.0552
 4116TIP3    H236544   1.170   4.721   1.656 -0.7348  0.0969 -0.4125
 4117TIP3   OH236545   1.355   0.264   8.201 -0.3169 -0.5031  0.2805
 4117TIP3    H136546   1.292   0.295   8.136  0.1770  0.1366  0.0977
 4117TIP3    H236547   1.304   0.258   8.282 -0.8402 -0.9215 -0.0695
 4118TIP3   OH236548   1.308   3.281   6.977 -0.1774 -0.3634  0.3339
 4118TIP3    H136549   1.282   3.314   6.890  1.0500 -0.4468 -0.0890
 4118TIP3    H236550   1.304   3.186   6.969  1.9339 -0.4570 -0.3400
 4119TIP3   OH236551   5.739   6.546   9.420  0.5369  0.5598  0.2793
 4119TIP3    H136552   5.798   6.520   9.349  0.2188  1.5019 -0.3478
 4119TIP3    H236553   5.651   6.530   9.384  0.3792 -0.4486  1.0597
 4120TIP3   OH236554   4.143   6.900   0.892 -0.3516  0.2295 -0.5669
 4120TIP3    H136555   4.064   6.891   0.838 -0.5171  0.6277 -0.4002
 4120TIP3    H236556   4.162   6.812   0.922 -0.8584  0.1570 -0.4415
 4121TIP3   OH236557   0.249   0.060   1.745  0.0682 -0.2810  0.4242
 4121TIP3    H136558   0.333   0.088   1.781 -0.5324  0.2399  1.4613
 4121TIP3    H236559   0.186   0.078   1.815 -0.9638 -0.3269 -0.4738
 4122TIP3   OH236560   5.946   1.334   0.102 -0.5388 -0.0199  0.1693
 4122TIP3    H136561   5.881   1.337   0.172 -0.4903 -0.3643  0.2336
 4122TIP3    H236562   6.029   1.316   0.146 -0.0513  2.2586  0.2891
 4123TIP3   OH236563   2.413   4.698   0.932 -0.3123  0.1619 -0.4433
 4123TIP3    H136564   2.509   4.695   0.930 -0.0983 -1.8415  3.2035
 4123TIP3    H236565   2.386   4.606   0.935 -2.4730  0.6503 -2.3999
 4124TIP3   OH236566   2.939   0.062   9.665  0.0448  0.8590 -0.3408
 4124TIP3    H136567   2.878   0.084   9.736 -0.6659  1.6373 -1.1546
 4124TIP3    H236568   2.975   0.147   9.639 -0.6333  0.7543 -1.7055
 4125TIP3   OH236569   1.455   0.405   9.436  0.0588 -0.9795  0.3886
 4125TIP3    H136570   1.485   0.492   9.409  0.9461 -1.0300  1.1410
 4125TIP3    H236571   1.498   0.390   9.520 -1.9260 -1.1826  1.4329
 4126TIP3   OH236572   1.866   7.018   9.730  0.3044 -0.2057 -0.0506
 4126TIP3    H136573   1.850   6.923   9.725  1.8612 -0.5254  0.4157
 4126TIP3    H236574   1.881   7.035   9.823  2.6775 -0.0265 -0.4016
 4127TIP3   OH236575   1.561   4.847   1.375  0.7161  0.5618  0.0731
 4127TIP3    H136576   1.506   4.925   1.379  1.0405  0.8030 -0.1148
 4127TIP3    H236577   1.637   4.874   1.324  0.4742 -0.1015 -0.6680
 4128TIP3   OH236578   5.055   5.012   8.336  0.5265  0.0885  0.0541
 4128TIP3    H136579   5.098   5.031   8.253  0.1518  1.7217  0.2069
 4128TIP3    H236580   5.031   4.920   8.329  3.7918 -0.8778 -0.1246
 4129TIP3   OH236581   6.572   4.506   9.382  0.1924  0.2258  0.1203
 4129TIP3    H136582   6.514   4.530   9.309 -1.6133 -1.6324  0.8270
 4129TIP3    H236583   6.572   4.411   9.381  0.0096  0.1434  2.6064
 4130TIP3   OH236584   7.297   1.572   9.021 -0.2581 -0.3791  0.1836
 4130TIP3    H136585   7.229   1.571   8.953 -0.8633  2.3559  0.6272
 4130TIP3    H236586   7.377   1.594   8.974 -0.7860  2.1215  0.3609
 4131TIP3   OH236587   3.457   6.212   7.027 -0.3613 -0.1688 -0.1519
 4131TIP3    H136588   3.369   6.196   7.063  0.3086 -0.8155  1.3080
 4131TIP3    H236589   3.492   6.124   7.013 -0.1122  0.0894 -1.1652
 4132TIP3   OH236590   7.262   2.972   2.384  0.0405  0.0368 -0.3458
 4132TIP3    H136591   7.294   3.061   2.375 -1.5502  0.7199  0.2841
 4132TIP3    H236592   7.182   2.981   2.436  1.1539 -2.0158  1.9518
 4133TIP3   OH236593   6.172   1.456   9.750  0.5726 -0.1648  0.7176
 4133TIP3    H136594   6.127   1.477   9.668  1.0614  2.1310  0.9875
 4133TIP3    H236595   6.256   1.419   9.723 -0.7802 -3.2735  0.2285
 4134TIP3   OH236596   5.963   7.346   8.271  0.1044 -0.0129  0.0797
 4134TIP3    H136597   5.881   7.305   8.299  1.3298 -1.8596  1.1870
 4134TIP3    H236598   5.959   7.345   8.176 -0.2640 -2.1280  0.0725
 4135TIP3   OH236599   2.990   4.731   0.352 -0.1067  0.1532  0.5783
 4135TIP3    H136600   2.990   4.642   0.387  1.3867 -0.6073 -1.1833
 4135TIP3    H236601   3.012   4.787   0.427 -0.6173 -0.9861  1.6047
 4136TIP3   OH236602   4.637   6.647   8.347  0.6949 -0.0128  0.1035
 4136TIP3    H136603   4.705   6.668   8.411  1.2730  0.3931 -0.6328
 4136TIP3    H236604   4.648   6.553   8.329 -0.2891 -0.4387  1.5259
 4137TIP3   OH236605   7.086   6.370   7.750 -0.2982  0.0665 -0.0138
 4137TIP3    H136606   7.167   6.364   7.700 -0.6046 -0.0256 -0.4991
 4137TIP3    H236607   7.108   6.333   7.836 -0.5866 -2.7877 -1.0506
 4138TIP3   OH236608   4.208   1.868   8.968  0.3712  0.2939  0.3980
 4138TIP3    H136609   4.288   1.827   9.001  0.5334 -0.6879 -1.1243
 4138TIP3    H236610   4.174   1.806   8.904 -1.4146  0.8780  0.7362
 4139TIP3   OH236611   2.744   5.497   6.784  0.4538  0.7288 -0.2433
 4139TIP3    H136612   2.676   5.430   6.785  1.9111 -0.8237  0.3692
 4139TIP3    H236613   2.746   5.528   6.694 -1.0064  0.7663 -0.2860
 4140TIP3   OH236614   5.433   4.470   1.640  0.8902  0.2854 -0.0480
 4140TIP3    H136615   5.523   4.497   1.656  0.7039  1.8916 -1.4407
 4140TIP3    H236616   5.385   4.552   1.627 -0.2812 -0.5944 -1.6954
 4141TIP3   OH236617   6.106   2.014   7.815  0.2717 -0.4586 -0.2138
 4141TIP3    H136618   6.128   1.931   7.857 -1.2175 -1.0718 -0.5794
 4141TIP3    H236619   6.043   2.055   7.875 -1.7044 -1.2401 -1.6326
 4142TIP3   OH236620   1.192   4.927   2.036 -0.6599 -0.0435 -0.0084
 4142TIP3    H136621   1.206   4.948   2.128 -0.2712  3.2219 -0.6773
 4142TIP3    H236622   1.275   4.887   2.008 -0.0556  0.7135  0.6419
 4143TIP3   OH236623   6.458   5.068   9.802 -0.1203  0.2752 -0.0726
 4143TIP3    H136624   6.532   5.015   9.774 -2.0039 -1.6063 -1.8717
 4143TIP3    H236625   6.456   5.141   9.740  0.1064  0.2165 -0.1498
 4144TIP3   OH236626   5.063   5.014   9.888  0.1666 -0.1787 -0.4132
 4144TIP3    H136627   5.116   5.062   9.824  1.0618  0.8569  1.0556
 4144TIP3    H236628   5.073   5.063   9.969 -1.1831 -1.2991  0.4701
 4145TIP3   OH236629   1.981   6.980   0.005 -0.1385  0.4762 -0.0103
 4145TIP3    H136630   1.992   7.072   0.030 -1.6669  1.3942 -2.3456
 4145TIP3    H236631   1.918   6.945   0.067  0.4793  0.9955  0.9229
 4146TIP3   OH236632   6.434   4.620   8.092  0.0905  0.1094 -0.5167
 4146TIP3    H136633   6.511   4.674   8.109  1.2011 -1.9665  1.5346
 4146TIP3    H236634   6.452   4.577   8.008  0.5487  0.6284 -0.6861
 4147TIP3   OH236635   2.683   0.151   6.827  0.0649 -0.3324 -0.5437
 4147TIP3    H136636   2.735   0.080   6.864  1.0993  1.5711  2.0025
 4147TIP3    H236637   2.747   0.215   6.797 -0.7275  1.0417  0.5418
 4148TIP3   OH236638   3.167   0.518   1.126 -0.1963  0.7010  0.0645
 4148TIP3    H136639   3.153   0.456   1.198  0.2431 -1.7432 -1.7950
 4148TIP3    H236640   3.232   0.579   1.158  0.4448 -0.6920  1.5393
 4149TIP3   OH236641   2.294   1.567   1.554 -0.3957 -0.1323  0.5914
 4149TIP3    H136642   2.216   1.583   1.607  0.1195  2.5147  0.6815
 4149TIP3    H236643   2.266   1.585   1.464  0.2137  1.4006  0.6876
 4150TIP3   OH236644   0.455   0.968   0.856 -0.3531  0.2982  0.6987
 4150TIP3    H136645   0.512   0.957   0.932  0.8950  1.1256 -0.0696
 4150TIP3    H236646   0.515   0.973   0.782 -1.3248  2.3953 -0.0380
 4151TIP3   OH236647   5.183   2.385   0.945 -0.5195  0.8557  0.2664
 4151TIP3    H136648   5.124   2.310   0.936  1.8559 -0.9967 -0.7712
 4151TIP3    H236649   5.149   2.449   0.881 -0.4768 -0.8468 -1.5568
 4152TIP3   OH236650   0.837   1.192   2.949 -0.2573 -0.2406  0.2123
 4152TIP3    H136651   0.840   1.111   2.899  0.6744 -0.7000  0.9959
 4152TIP3    H236652   0.777   1.173   3.022  0.0526 -0.2593  0.4612
 4153TIP3   OH236653   6.900   5.002   1.513 -0.2353 -0.3085  0.3010
 4153TIP3    H136654   6.945   5.086   1.504 -0.2856 -0.3069  0.0399
 4153TIP3    H236655   6.945   4.944   1.451 -0.4906 -0.3484  0.1486
 4154TIP3   OH236656   5.911   5.229   8.415 -0.3149 -0.4625  0.0084
 4154TIP3    H136657   5.865   5.214   8.333  1.9751 -0.1285 -1.4533
 4154TIP3    H236658   5.999   5.193   8.400  0.5991  0.8511  1.7952
 4155TIP3   OH236659   7.299   4.051   9.893 -0.1196 -0.4982 -0.2119
 4155TIP3    H136660   7.342   4.030   9.811  0.6293  1.4156 -0.3617
 4155TIP3    H236661   7.255   4.134   9.877  0.0409 -0.0829  1.3115
 4156TIP3   OH236662   3.268   3.650   0.691  0.2759 -0.3900 -0.6448
 4156TIP3    H136663   3.278   3.608   0.777  0.2936 -0.2686 -0.5876
 4156TIP3    H236664   3.320   3.597   0.632  0.0687 -0.6170 -0.6257
 4157TIP3   OH236665   2.171   2.392   8.027  0.0698  1.0053 -0.2799
 4157TIP3    H136666   2.262   2.392   8.055  0.8386  0.3979 -2.5837
 4157TIP3    H236667   2.156   2.480   7.993  1.1496  0.0085 -3.6882
 4158TIP3   OH236668   1.008   3.026   2.068 -0.3591 -0.5171  0.9361
 4158TIP3    H136669   0.925   2.982   2.049 -1.7442  1.4055  2.1619
 4158TIP3    H236670   1.060   2.960   2.114  0.5567 -3.1337 -3.3354
 4159TIP3   OH236671   3.620   4.923   8.793 -0.5356  0.6578 -0.0835
 4159TIP3    H136672   3.556   4.876   8.740  0.3748 -0.2654 -0.3792
 4159TIP3    H236673   3.658   4.987   8.733 -1.9858  2.0472  0.3944
 4160TIP3   OH236674   6.985   0.337   1.169 -0.6703  0.2258 -0.1393
 4160TIP3    H136675   7.022   0.417   1.133  2.1308 -0.7487  0.3381
 4160TIP3    H236676   7.022   0.331   1.258 -3.5339  0.0869  1.1496
 4161TIP3   OH236677   7.095   4.325   8.751 -0.0584 -0.1111  0.0539
 4161TIP3    H136678   7.016   4.367   8.785 -0.7868 -0.8847 -0.6602
 4161TIP3    H236679   7.063   4.249   8.702  1.1957 -1.1897  0.8357
 4162TIP3   OH236680   6.501   4.638   1.981 -0.2541 -0.0850  0.3701
 4162TIP3    H136681   6.411   4.671   1.970  0.1058  1.5628  1.9130
 4162TIP3    H236682   6.501   4.598   2.067  0.7379  0.8941  0.8472
 4163TIP3   OH236683   4.407   6.352   1.285  0.3640  0.3415 -0.0399
 4163TIP3    H136684   4.407   6.370   1.379  0.0486 -1.1505  0.2655
 4163TIP3    H236685   4.314   6.345   1.263  0.3460 -4.3483  0.6290
 4164TIP3   OH236686   6.193   4.919   2.434  0.2078  0.1399 -0.5297
 4164TIP3    H136687   6.203   5.014   2.439  0.4021  0.1427 -0.9681
 4164TIP3    H236688   6.280   4.887   2.411  0.5781 -0.2926  1.3003
 4165TIP3   OH236689   2.904   4.138   8.181  0.7257  0.1667  0.6824
 4165TIP3    H136690   2.882   4.069   8.243 -0.2924  0.3691  0.5602
 4165TIP3    H236691   2.968   4.097   8.122 -0.9158 -1.1648 -0.2777
 4166TIP3   OH236692   6.230   5.689   9.065 -0.3562 -0.4108  0.2888
 4166TIP3    H136693   6.136   5.671   9.059 -0.9479  2.3537 -0.0494
 4166TIP3    H236694   6.235   5.782   9.085  2.3243  0.4790 -3.5184
 4167TIP3   OH236695   3.097   6.516   3.241 -0.1181 -0.5510 -0.3381
 4167TIP3    H136696   3.148   6.595   3.258  0.1096 -0.7315 -0.1767
 4167TIP3    H236697   3.162   6.450   3.220 -0.0137 -1.5309  2.6299
 4168TIP3   OH236698   3.052   2.334   0.892 -0.1618  0.1455  0.5507
 4168TIP3    H136699   3.050   2.254   0.944 -0.0344 -0.2598 -0.0586
 4168TIP3    H236700   2.969   2.378   0.911 -0.7502 -0.7039  0.0061
 4169TIP3   OH236701   3.558   5.497   2.924  0.3361  0.5001  0.1576
 4169TIP3    H136702   3.485   5.559   2.928 -1.0552 -1.1046  0.7701
 4169TIP3    H236703   3.636   5.552   2.913 -0.8189  2.3467  0.7913
 4170TIP3   OH236704   0.892   1.766   8.781 -0.1116  0.2203 -0.4349
 4170TIP3    H136705   0.957   1.836   8.783  1.0028 -0.8048  0.7808
 4170TIP3    H236706   0.932   1.697   8.727  0.5221 -1.0176  1.5084
 4171TIP3   OH236707   1.599   1.743   9.742  0.3037 -0.5797 -0.4795
 4171TIP3    H136708   1.610   1.821   9.797 -0.3591 -1.1525  0.5056
 4171TIP3    H236709   1.686   1.705   9.736  0.7083  0.4371 -1.2886
 4172TIP3   OH236710   6.010   3.611   8.717 -0.1195  0.0993  0.2118
 4172TIP3    H136711   6.055   3.634   8.798 -0.9551 -0.7165  0.9226
 4172TIP3    H236712   6.028   3.518   8.704 -0.1854  0.1688 -0.4158
 4173TIP3   OH236713   2.379   1.333   8.920 -0.5729 -0.0382 -0.0791
 4173TIP3    H136714   2.452   1.383   8.884  0.8151 -0.1440  2.3697
 4173TIP3    H236715   2.301   1.379   8.890  0.5399  1.1032 -1.3365
 4174TIP3   OH236716   0.772   0.578   0.000 -0.2965  0.2664 -0.0901
 4174TIP3    H136717   0.721   0.657   0.018  1.0612  0.8276  1.7169
 4174TIP3    H236718   0.832   0.604  -0.070 -0.5729  0.5184 -0.2361
 4175TIP3   OH236719   0.447   4.819   0.565  0.0280  0.2900  0.6459
 4175TIP3    H136720   0.447   4.893   0.505 -0.8707  1.3949  1.9416
 4175TIP3    H236721   0.511   4.843   0.632 -0.3178 -0.0716  1.1158
 4176TIP3   OH236722   3.635   3.510   7.919 -0.1700  0.1806 -0.3301
 4176TIP3    H136723   3.697   3.576   7.951 -0.5887  0.8086 -0.8034
 4176TIP3    H236724   3.561   3.560   7.887 -0.7698 -0.5558 -0.1133
 4177TIP3   OH236725   0.973   4.787   7.335 -0.2299 -0.7496 -0.5331
 4177TIP3    H136726   0.979   4.862   7.276  1.9533 -0.5052 -0.0731
 4177TIP3    H236727   0.920   4.818   7.408 -0.6232 -0.1626 -1.0583
 4178TIP3   OH236728   0.801   0.468   7.745  0.0154  0.6052 -0.7847
 4178TIP3    H136729   0.750   0.388   7.732 -1.2073  1.0408  1.0024
 4178TIP3    H236730   0.736   0.538   7.744  0.8622  1.4061 -0.5948
 4179TIP3   OH236731   5.973   4.096   9.608 -0.4499  0.1848 -0.0187
 4179TIP3    H136732   5.960   4.182   9.647  0.1533  0.2425  0.0569
 4179TIP3    H236733   6.054   4.063   9.646 -0.7903 -0.5156  0.1197
 4180TIP3   OH236734   6.729   5.079   0.841  0.1136 -0.1104 -0.4075
 4180TIP3    H136735   6.682   5.066   0.923  0.6820  0.8116  0.0853
 4180TIP3    H236736   6.747   4.991   0.809 -0.2932 -0.4786  0.3572
 4181TIP3   OH236737   2.950   6.094   0.675  0.1374  0.2720 -0.1136
 4181TIP3    H136738   2.858   6.068   0.674  0.0146  0.6261  0.7454
 4181TIP3    H236739   2.949   6.189   0.660  0.4620  0.0833 -1.4513
 4182TIP3   OH236740   1.701   1.595   6.798 -0.1212  0.3494  0.0261
 4182TIP3    H136741   1.626   1.536   6.796 -1.6383  2.1598 -0.1912
 4182TIP3    H236742   1.728   1.603   6.707  0.0521  0.0519  0.0495
 4183TIP3   OH236743   0.784   7.007   1.128  0.0765 -0.1831  0.1933
 4183TIP3    H136744   0.715   7.039   1.069 -0.0125 -0.2773  0.2461
 4183TIP3    H236745   0.852   7.074   1.124 -0.0992 -0.0007  0.2847
 4184TIP3   OH236746   0.851   6.575   6.690  0.0074  0.1371 -0.3667
 4184TIP3    H136747   0.836   6.484   6.716 -0.7949  0.6082  0.9579
 4184TIP3    H236748   0.776   6.596   6.635 -0.1108  0.1601 -0.1989
 4185TIP3   OH236749   0.875   1.826   7.795  0.2906 -0.1646 -0.1416
 4185TIP3    H136750   0.814   1.778   7.851  0.7169  1.3996  1.7515
 4185TIP3    H236751   0.962   1.797   7.824  0.5111  0.0149 -0.6149
 4186TIP3   OH236752   0.933   5.017   8.289 -0.1658  0.3292 -0.1158
 4186TIP3    H136753   1.023   5.013   8.257 -0.3573  1.4462 -0.8521
 4186TIP3    H236754   0.902   4.927   8.283  1.7477 -0.7110  2.8348
 4187TIP3   OH236755   0.658   3.153   9.007  0.0538 -0.0356  0.8706
 4187TIP3    H136756   0.616   3.079   9.051  0.6933 -0.4249  0.8307
 4187TIP3    H236757   0.684   3.212   9.078  1.6207 -0.9398  1.0964
 4188TIP3   OH236758   4.793   1.394   8.579 -0.0542 -0.1903 -0.3295
 4188TIP3    H136759   4.805   1.406   8.485  1.2744  0.4473 -0.1035
 4188TIP3    H236760   4.732   1.463   8.605 -0.4953 -0.4261 -0.7293
 4189TIP3   OH236761   4.276   6.195   0.255  0.0206  0.0832 -0.6033
 4189TIP3    H136762   4.216   6.259   0.217 -1.0319 -0.5820 -0.0938
 4189TIP3    H236763   4.303   6.141   0.180 -0.1031  0.3139 -0.8159
 4190TIP3   OH236764   7.421   3.348   0.158 -0.1136 -0.5742  0.2397
 4190TIP3    H136765   7.402   3.413   0.091  1.0864 -2.1217 -1.7358
 4190TIP3    H236766   7.506   3.373   0.193  0.9615 -1.6650 -1.4257
 4191TIP3   OH236767   4.133   6.915   0.056 -0.6991  0.3401  0.2389
 4191TIP3    H136768   4.049   6.875   0.033 -1.2818  1.1768  0.8456
 4191TIP3    H236769   4.109   6.996   0.101  0.4255 -0.1935  1.8633
 4192TIP3   OH236770   1.065   6.154   1.686  0.5250 -0.0237 -0.2931
 4192TIP3    H136771   1.032   6.183   1.601  1.0664  1.2530 -0.0914
 4192TIP3    H236772   1.054   6.231   1.743 -0.7427 -1.1421  1.0623
 4193TIP3   OH236773   7.334   4.062   0.337 -0.6405 -0.7708  0.2281
 4193TIP3    H136774   7.332   4.137   0.395 -0.6296 -1.3047  0.9265
 4193TIP3    H236775   7.267   4.003   0.370 -0.6205 -1.0947 -0.2865
 4194TIP3   OH236776   0.497   3.643   9.929 -0.2805  0.1562  0.1283
 4194TIP3    H136777   0.544   3.574   9.882 -1.1841 -1.2167  1.1698
 4194TIP3    H236778   0.406   3.632   9.903 -0.6335  0.0511  1.3762
 4195TIP3   OH236779   5.840   0.490   8.169 -0.1838 -0.6193 -0.1640
 4195TIP3    H136780   5.764   0.544   8.190 -1.0380 -2.1859  0.9812
 4195TIP3    H236781   5.913   0.533   8.213 -0.3813  0.8766 -1.2340
 4196TIP3   OH236782   6.972   4.951   9.810  0.8618 -0.0067 -0.2241
 4196TIP3    H136783   6.962   4.856   9.818  1.0339  0.0106  0.1920
 4196TIP3    H236784   7.020   4.977   9.889  0.0355  0.5454  0.1028
 4197TIP3   OH236785   2.544   4.435   7.065 -0.2054  0.2461  0.1380
 4197TIP3    H136786   2.518   4.489   7.140 -1.5261  0.1302 -0.2145
 4197TIP3    H236787   2.621   4.479   7.029  0.7726  0.0268  1.8539
 4198TIP3   OH236788   0.193   5.793   0.175  0.1054 -0.1429 -0.4872
 4198TIP3    H136789   0.099   5.810   0.185 -0.0039  0.8346 -2.6261
 4198TIP3    H236790   0.197   5.720   0.112  0.7778  0.1410 -0.7811
 4199TIP3   OH236791   0.461   2.267   9.947  0.4010 -0.9165  0.3689
 4199TIP3    H136792   0.459   2.204   9.874  0.4191  0.9261 -1.2913
 4199TIP3    H236793   0.379   2.314   9.940  0.7852 -0.1333  1.0058
 4200TIP3   OH236794   5.247   0.977   9.640 -0.0581  0.4816  0.2747
 4200TIP3    H136795   5.324   0.935   9.677  0.2102 -0.3437 -1.1358
 4200TIP3    H236796   5.245   1.064   9.680  1.1149  0.2082  0.9663
 4201TIP3   OH236797   3.781   5.620   7.293  0.1535 -0.1048 -0.0370
 4201TIP3    H136798   3.734   5.653   7.217  3.1614  2.1532 -1.1462
 4201TIP3    H236799   3.868   5.597   7.260  2.2800  2.8321  2.8309
 4202TIP3   OH236800   1.437   1.522   1.064 -0.6024 -0.4244  0.2192
 4202TIP3    H136801   1.474   1.610   1.053 -3.1466  0.6462 -0.6989
 4202TIP3    H236802   1.403   1.522   1.154 -2.0332  0.1785 -0.2967
 4203TIP3   OH236803   4.676   1.215   7.448  0.3241  0.4290  0.3494
 4203TIP3    H136804   4.696   1.123   7.431 -2.2819 -0.0304 -0.7024
 4203TIP3    H236805   4.757   1.251   7.486  2.1590 -1.7203 -1.2278
 4204TIP3   OH236806   0.381   0.717   9.597  0.3123  0.6363 -0.1903
 4204TIP3    H136807   0.388   0.743   9.506 -0.5474 -1.6156 -0.9664
 4204TIP3    H236808   0.461   0.668   9.615  0.2555  0.6557  0.1350
 4205TIP3   OH236809   1.871   5.064   9.338 -0.0869  0.1684 -0.1865
 4205TIP3    H136810   1.939   5.131   9.343  0.2147 -0.1218 -0.3748
 4205TIP3    H236811   1.789   5.114   9.335  0.1221  0.5238 -0.0902
 4206TIP3   OH236812   2.181   6.766   0.008  0.1136 -0.4586  0.5325
 4206TIP3    H136813   2.199   6.731   0.096 -1.4085 -1.2549  0.5626
 4206TIP3    H236814   2.107   6.826   0.021 -1.7871 -2.4578 -0.5242
 4207TIP3   OH236815   1.241   3.321   0.611  0.2316 -0.0657 -0.0032
 4207TIP3    H136816   1.241   3.415   0.593  0.3942 -0.0438  0.1073
 4207TIP3    H236817   1.266   3.282   0.527 -0.8380 -0.0736 -0.3324
 4208TIP3   OH236818   3.366   5.236   2.184  0.2641  0.8358 -0.0466
 4208TIP3    H136819   3.310   5.291   2.238 -2.3597 -1.4791 -0.1607
 4208TIP3    H236820   3.454   5.272   2.194 -0.4073  1.7296  4.1558
 4209TIP3   OH236821   1.121   6.780   9.104  0.4053  0.2715 -0.4465
 4209TIP3    H136822   1.164   6.783   9.018 -0.0690  0.9461 -0.6658
 4209TIP3    H236823   1.153   6.857   9.149 -0.5921  0.8049 -0.6248
 4210TIP3   OH236824   2.265   5.483   1.428  0.4102  0.0710  0.3389
 4210TIP3    H136825   2.176   5.503   1.458 -0.5866 -1.1504 -1.5886
 4210TIP3    H236826   2.302   5.427   1.496  0.3309  1.8522  1.9236
 4211TIP3   OH236827   3.212   5.586   2.808 -0.5627  0.3222  0.1202
 4211TIP3    H136828   3.223   5.541   2.724  0.3423 -0.7848  0.8066
 4211TIP3    H236829   3.118   5.605   2.812 -0.4321  1.7111 -1.7737
 4212TIP3   OH236830   3.996   5.989   2.923  0.4604 -0.0257  0.2732
 4212TIP3    H136831   4.055   5.918   2.896  0.3107  1.2408 -4.1927
 4212TIP3    H236832   3.910   5.964   2.889  0.3380  2.0186 -1.1316
 4213TIP3   OH236833   5.981   3.044   1.577  0.2011  0.3865 -0.4400
 4213TIP3    H136834   6.041   3.031   1.504 -1.3714  2.3236 -2.1890
 4213TIP3    H236835   6.002   3.132   1.610  0.0066  0.0587  0.5911
 4214TIP3   OH236836   4.975   3.489   8.652 -0.1154 -0.2187  0.0271
 4214TIP3    H136837   4.985   3.403   8.694  1.8494 -0.7549 -1.3828
 4214TIP3    H236838   5.043   3.543   8.692 -0.9085  0.5190  0.4233
 4215TIP3   OH236839   2.996   4.909   2.562 -0.5976 -0.2330 -0.5730
 4215TIP3    H136840   2.904   4.930   2.545 -0.7317 -1.3216 -1.3218
 4215TIP3    H236841   3.001   4.814   2.552  0.4402 -0.2971  0.3386
 4216TIP3   OH236842   1.880   5.850   0.355 -0.4568  0.5090  0.2796
 4216TIP3    H136843   1.874   5.847   0.259 -1.6341  0.8865  0.3293
 4216TIP3    H236844   1.953   5.791   0.376  0.2835  0.9548 -0.8841
 4217TIP3   OH236845   0.359   4.609   0.934  0.5632  0.0029 -0.3223
 4217TIP3    H136846   0.285   4.622   0.875  0.9494 -1.1744 -1.1010
 4217TIP3    H236847   0.435   4.639   0.884  0.5293  2.4186  0.9331
 4218TIP3   OH236848   3.500   5.180   7.079 -0.3123  0.3979 -0.2945
 4218TIP3    H136849   3.497   5.242   7.151  1.1705 -0.2216  0.3428
 4218TIP3    H236850   3.508   5.094   7.122 -1.4033 -0.1632 -1.1689
 4219TIP3   OH236851   5.879   4.745   9.957 -0.3883 -0.5332  0.0465
 4219TIP3    H136852   5.919   4.749  10.044  0.3634  0.4218 -0.3197
 4219TIP3    H236853   5.785   4.746   9.973 -0.2555 -0.7161  0.8605
 4220TIP3   OH236854   7.434   5.914   8.806 -0.3636 -0.1091  0.1629
 4220TIP3    H136855   7.361   5.888   8.862 -2.0716  1.8027 -1.0166
 4220TIP3    H236856   7.461   6.000   8.839  0.1749 -0.0201 -0.4704
 4221TIP3   OH236857   5.672   6.677   8.340 -0.0538  0.2350  0.6541
 4221TIP3    H136858   5.655   6.678   8.245  0.7433 -0.5824  0.4897
 4221TIP3    H236859   5.666   6.769   8.366 -1.1204  0.3794 -0.0274
 4222TIP3   OH236860   2.007   7.241   0.440 -0.3973 -0.1035  0.0296
 4222TIP3    H136861   2.089   7.192   0.445 -0.4822 -0.5857 -2.1966
 4222TIP3    H236862   2.014   7.306   0.509  1.5001 -0.6678  0.4353
 4223TIP3   OH236863   5.123   2.050   7.558  0.5580 -0.2090  0.0502
 4223TIP3    H136864   5.136   2.092   7.643 -2.3906 -0.3157  0.6486
 4223TIP3    H236865   5.108   1.958   7.579 -1.3365 -0.0443 -0.4208
 4224TIP3   OH236866   3.746   6.188   0.142 -0.5700 -0.1483  0.3084
 4224TIP3    H136867   3.686   6.117   0.161 -0.2265 -1.1311 -1.9275
 4224TIP3    H236868   3.699   6.243   0.078  0.3116 -0.1014 -0.3217
 4225TIP3   OH236869   1.449   6.945   7.862 -0.1721  0.6236 -0.0506
 4225TIP3    H136870   1.424   6.930   7.953  1.3010 -0.8364  0.1639
 4225TIP3    H236871   1.507   7.021   7.865  0.7913 -0.1112  0.4209
 4226TIP3   OH236872   5.934   1.987   0.789  0.0900  0.1864 -0.2771
 4226TIP3    H136873   5.849   2.001   0.831 -0.6415 -0.5153 -1.4656
 4226TIP3    H236874   5.966   2.075   0.768 -0.1538  0.4727  0.4960
 4227TIP3   OH236875   7.236   3.424   8.682 -0.3447 -0.2161  0.8207
 4227TIP3    H136876   7.250   3.370   8.760  0.5222 -2.1763 -0.6046
 4227TIP3    H236877   7.232   3.362   8.610  1.0934  1.6351 -0.9860
 4228TIP3   OH236878   7.187   1.603   8.373  0.4093 -0.3780  0.3720
 4228TIP3    H136879   7.224   1.658   8.441  0.1853 -0.4377  0.5443
 4228TIP3    H236880   7.256   1.539   8.353  0.3133 -0.6385  0.8620
 4229TIP3   OH236881   3.943   5.885   2.542 -0.6235  0.0864  0.2141
 4229TIP3    H136882   3.931   5.817   2.608 -0.1983 -0.5434 -0.3402
 4229TIP3    H236883   3.854   5.908   2.516 -0.7711 -0.3749  0.2983
 4230TIP3   OH236884   0.734   2.389   2.082 -0.0273 -0.0202  0.0070
 4230TIP3    H136885   0.754   2.459   2.020  0.4611  0.2903  0.5039
 4230TIP3    H236886   0.642   2.370   2.067  0.2713 -0.5151 -1.3758
 4231TIP3   OH236887   2.254   1.523   7.755 -0.3999 -0.0524  0.0632
 4231TIP3    H136888   2.218   1.554   7.838 -1.1611 -1.0382  0.1156
 4231TIP3    H236889   2.348   1.541   7.762 -0.8652  3.0229 -0.2919
 4232TIP3   OH236890   1.337   4.955   6.328  0.3506 -0.2145 -0.0609
 4232TIP3    H136891   1.347   5.050   6.320 -1.5477  0.0187 -0.1108
 4232TIP3    H236892   1.405   4.919   6.271 -0.1727  1.1512 -1.6169
 4233TIP3   OH236893   0.783   4.192   9.243  0.1173  0.1202  0.2368
 4233TIP3    H136894   0.796   4.102   9.213  0.5726  0.1699  0.2679
 4233TIP3    H236895   0.691   4.211   9.224 -0.5234 -0.9980  1.9919
 4234TIP3   OH236896   6.294   2.193   9.561  0.8496 -0.1904 -0.0863
 4234TIP3    H136897   6.383   2.228   9.564  1.2288 -0.9435 -1.6158
 4234TIP3    H236898   6.305   2.100   9.582  0.3769 -0.2268  0.0030
 4235TIP3   OH236899   5.474   4.507   8.973  0.3220  0.1214 -0.9515
 4235TIP3    H136900   5.557   4.536   9.010  0.0889  0.9783 -1.0759
 4235TIP3    H236901   5.494   4.487   8.882  0.4220  0.2043 -0.9470
 4236TIP3   OH236902   4.581   5.477   2.678  0.2671 -0.0024  0.0595
 4236TIP3    H136903   4.606   5.395   2.635  0.3296  0.6810 -1.2505
 4236TIP3    H236904   4.661   5.505   2.723  0.0495 -1.0010  1.1302
 4237TIP3   OH236905   3.272   7.167   2.281  0.4379  0.1224 -0.2581
 4237TIP3    H136906   3.304   7.077   2.272  0.4299 -0.0379  1.1031
 4237TIP3    H236907   3.179   7.158   2.302  1.0020  0.2875  2.6975
 4238TIP3   OH236908   1.380   2.000   1.825  0.4445  0.5619  0.2790
 4238TIP3    H136909   1.366   2.085   1.784 -2.3055  0.1675  0.1817
 4238TIP3    H236910   1.328   2.002   1.905  0.4549 -0.9358  0.3657
 4239TIP3   OH236911   5.706   7.415   8.792 -0.0546  0.1653  0.4904
 4239TIP3    H136912   5.729   7.458   8.710  1.3791 -2.1592 -0.4360
 4239TIP3    H236913   5.683   7.326   8.767 -0.5222 -0.3345  2.5192
 4240TIP3   OH236914   3.175   6.923   9.387 -0.1604  0.4187 -0.0863
 4240TIP3    H136915   3.083   6.898   9.393  0.0976 -0.4074  0.5543
 4240TIP3    H236916   3.223   6.842   9.402  0.6724  0.6092 -1.5362
 4241TIP3   OH236917   6.972   1.825   0.464  0.1684  0.2533 -0.0933
 4241TIP3    H136918   6.932   1.878   0.533  1.1591  0.3953  0.3911
 4241TIP3    H236919   7.033   1.767   0.510 -1.3243 -1.7692 -0.5385
 4242TIP3   OH236920   4.401   6.043   9.343  0.0258  0.2970 -0.1104
 4242TIP3    H136921   4.353   6.092   9.276 -0.8849 -1.1427 -0.5635
 4242TIP3    H236922   4.364   5.955   9.339  2.3025 -0.7302 -0.0532
 4243TIP3   OH236923   3.439   1.546   6.610 -0.7629  0.3370  0.0814
 4243TIP3    H136924   3.500   1.485   6.569  0.8859  1.1748  1.1673
 4243TIP3    H236925   3.357   1.497   6.619  0.1041 -1.2374 -0.3296
 4244TIP3   OH236926   4.526   0.935   9.737 -0.2442 -0.4755 -0.2746
 4244TIP3    H136927   4.574   0.970   9.662 -1.5311 -0.0491 -0.9284
 4244TIP3    H236928   4.592   0.927   9.806  0.6484  0.6018 -0.9657
 4245TIP3   OH236929   3.504   4.896   9.723 -0.3509 -0.4548 -0.5822
 4245TIP3    H136930   3.474   4.885   9.633 -1.7938  1.2624 -0.3480
 4245TIP3    H236931   3.554   4.978   9.722  1.2547 -1.3712 -0.1678
 4246TIP3   OH236932   6.340   5.006   1.176 -0.2455  0.2745  0.0322
 4246TIP3    H136933   6.322   4.914   1.193 -0.7186  0.1990 -0.8346
 4246TIP3    H236934   6.368   5.041   1.261  0.2376 -0.7263  0.2967
 4247TIP3   OH236935   1.765   6.182   9.175 -0.2167 -0.3519  0.2388
 4247TIP3    H136936   1.687   6.143   9.215  0.5016 -2.2280 -0.0936
 4247TIP3    H236937   1.789   6.121   9.105  3.5050 -1.8270  2.5058
 4248TIP3   OH236938   6.542   0.760   7.602  0.3931  0.6896 -0.0497
 4248TIP3    H136939   6.573   0.683   7.650  1.3039  1.0192 -0.0840
 4248TIP3    H236940   6.532   0.730   7.512  2.0678  0.9128 -0.3527
 4249TIP3   OH236941   3.742   6.644   7.276  0.1473  0.1400  0.0256
 4249TIP3    H136942   3.785   6.728   7.292 -0.7491  0.5270  0.4938
 4249TIP3    H236943   3.649   6.666   7.271 -0.1315 -0.8734  0.5148
 4250TIP3   OH236944   6.095   1.476   9.236 -0.1286  0.1296 -0.0313
 4250TIP3    H136945   6.008   1.515   9.250  0.1958  0.3906  1.5119
 4250TIP3    H236946   6.078   1.384   9.219 -0.6647 -0.5862  3.5195
 4251TIP3   OH236947   0.443   0.123   8.145 -0.0257 -0.0384  0.2332
 4251TIP3    H136948   0.496   0.203   8.143  0.1025 -0.0131  2.1249
 4251TIP3    H236949   0.428   0.107   8.239 -2.4353 -0.6715 -0.1903
 4252TIP3   OH236950   2.408   2.407   0.280  0.4055 -0.3110 -0.4345
 4252TIP3    H136951   2.485   2.365   0.318  1.4586  0.1916 -1.9014
 4252TIP3    H236952   2.369   2.340   0.224 -0.6127 -0.7582  0.7612
 4253TIP3   OH236953   3.022   7.205   1.300  0.2269  0.2919 -0.0970
 4253TIP3    H136954   2.939   7.247   1.322  0.2004  0.9568 -1.3845
 4253TIP3    H236955   3.012   7.178   1.208 -0.1312 -3.4670  0.8842
 4254TIP3   OH236956   0.633   5.564   1.078  0.2909 -0.0309  0.0260
 4254TIP3    H136957   0.620   5.659   1.086 -0.9786 -0.1850  0.0940
 4254TIP3    H236958   0.546   5.527   1.094  1.1869 -1.3677  2.2548
 4255TIP3   OH236959   1.766   4.847   9.189  0.4316  0.1814 -0.1601
 4255TIP3    H136960   1.794   4.906   9.259  1.3409  1.2552 -1.3697
 4255TIP3    H236961   1.676   4.824   9.212  0.0059  2.1214  0.3397
 4256TIP3   OH236962   0.711   1.126   2.471 -0.3817  0.6500  0.3089
 4256TIP3    H136963   0.627   1.084   2.489  0.2719 -1.1914 -0.7137
 4256TIP3    H236964   0.776   1.069   2.512  0.6813 -0.4882 -2.7410
 4257TIP3   OH236965   4.150   2.262   8.525 -0.3338  0.3162 -0.3294
 4257TIP3    H136966   4.131   2.187   8.582 -1.5011  1.0914  0.3520
 4257TIP3    H236967   4.244   2.276   8.537 -0.5070  0.3562  1.3285
 4258TIP3   OH236968   7.179   2.145   0.792 -0.2807  0.1327  0.8333
 4258TIP3    H136969   7.195   2.152   0.698  0.3959 -1.5068  0.8051
 4258TIP3    H236970   7.095   2.190   0.805 -0.4590  0.2558 -0.5580
 4259TIP3   OH236971   5.545   3.487   9.542  0.2656 -0.0783  0.0012
 4259TIP3    H136972   5.450   3.500   9.532 -0.0236 -0.9429  1.2770
 4259TIP3    H236973   5.574   3.566   9.588  0.2590  0.4023 -0.8027
 4260TIP3   OH236974   0.456   5.146   6.596  0.2241 -0.0710  0.3051
 4260TIP3    H136975   0.546   5.179   6.594  1.1504 -2.3480  0.8729
 4260TIP3    H236976   0.451   5.097   6.678 -1.2702 -0.7163 -0.1472
 4261TIP3   OH236977   0.220   0.943   9.277  0.4964  0.2740  0.3033
 4261TIP3    H136978   0.277   0.968   9.205  0.5378 -0.6596 -0.0035
 4261TIP3    H236979   0.245   1.001   9.349  0.6700  1.0010 -0.3342
 4262TIP3   OH236980   0.670   1.529   1.819 -0.2549 -0.4875 -0.2565
 4262TIP3    H136981   0.745   1.527   1.759  0.0800 -1.2728  0.1850
 4262TIP3    H236982   0.661   1.622   1.842 -1.0735  0.0297 -2.3474
 4263TIP3   OH236983   5.210   7.338   0.369 -0.2602  0.1082 -0.2088
 4263TIP3    H136984   5.138   7.278   0.386 -0.0438 -0.3978 -1.0081
 4263TIP3    H236985   5.216   7.392   0.448 -3.8183  2.6253 -1.4157
 4264TIP3   OH236986   1.224   1.902   8.819 -0.1562  0.1249 -0.1139
 4264TIP3    H136987   1.304   1.918   8.868 -0.3533  2.0656 -0.3310
 4264TIP3    H236988   1.154   1.908   8.884 -0.3060  1.2294 -0.3560
 4265TIP3   OH236989   2.509   5.731   6.327  0.4401  0.1623  0.3522
 4265TIP3    H136990   2.498   5.756   6.236 -2.5835  0.9284  0.8286
 4265TIP3    H236991   2.467   5.645   6.334 -1.5217  1.1292  1.3975
 4266TIP3   OH236992   4.944   6.181   8.801  0.2307 -0.3189  0.0030
 4266TIP3    H136993   4.970   6.089   8.790  1.3536 -0.4247  2.6664
 4266TIP3    H236994   4.863   6.176   8.852  0.1137  0.1697 -0.1336
 4267TIP3   OH236995   1.565   4.987   0.946  0.1290 -0.2206  0.3808
 4267TIP3    H136996   1.547   4.987   0.852 -1.7102 -1.1362  0.6939
 4267TIP3    H236997   1.541   4.900   0.976  2.5771 -0.6277  1.4243
 4268TIP3   OH236998   3.583   4.514   7.372 -0.1271 -0.5519 -0.1267
 4268TIP3    H136999   3.591   4.579   7.303 -0.0392  0.6938  1.0225
 4268TIP3    H237000   3.511   4.458   7.344 -1.5218  1.2281 -0.2094
 4269TIP3   OH237001   6.828   0.066   9.144  0.0349  0.2483  0.2577
 4269TIP3    H137002   6.796  -0.023   9.159  0.2700  0.0066 -0.5809
 4269TIP3    H237003   6.885   0.084   9.219 -0.9148  0.1358  1.0241
 4270TIP3   OH237004   6.086   5.652   0.004  0.8070  0.2185  0.2982
 4270TIP3    H137005   6.002   5.650   0.049 -0.0652 -0.5106 -1.2855
 4270TIP3    H237006   6.132   5.727   0.042 -0.4521  0.4879  1.3465
 4271TIP3   OH237007   7.391   2.394   9.982  0.1475 -0.2725  0.6042
 4271TIP3    H137008   7.425   2.340   9.911 -1.7480 -1.4212  0.4868
 4271TIP3    H237009   7.441   2.368  10.059  1.8136  0.5543 -0.1396
 4272TIP3   OH237010   5.311   2.549   9.145 -0.2994 -0.0614  0.7584
 4272TIP3    H137011   5.260   2.470   9.129 -0.6895  0.2373  0.5112
 4272TIP3    H237012   5.381   2.547   9.081 -0.4238 -0.1109  0.6236
 4273TIP3   OH237013   4.790   1.196   0.697  0.3468 -0.0085  0.4181
 4273TIP3    H137014   4.782   1.289   0.679  0.8982  0.1842  1.1375
 4273TIP3    H237015   4.747   1.153   0.622  0.5969  0.8071 -0.2072
 4274TIP3   OH237016   4.482   5.461   7.066  0.5954  0.4695 -0.3164
 4274TIP3    H137017   4.531   5.518   7.007  1.6476  0.7956  0.8464
 4274TIP3    H237018   4.546   5.430   7.130 -0.4907  0.0417  0.6168
 4275TIP3   OH237019   2.805   7.447   9.050 -0.6265 -0.5288  0.3736
 4275TIP3    H137020   2.742   7.490   8.992 -0.1036  0.0948  0.2636
 4275TIP3    H237021   2.877   7.509   9.059  0.3204 -1.5245 -0.0737
 4276TIP3   OH237022   2.800   5.628   9.528 -0.2311 -0.5157  0.1386
 4276TIP3    H137023   2.832   5.713   9.558  1.6354 -1.1617  0.0922
 4276TIP3    H237024   2.721   5.649   9.477  0.1722  1.1760  0.1506
 4277TIP3   OH237025   1.510   2.263   7.596 -0.2284 -0.0286 -0.3190
 4277TIP3    H137026   1.422   2.238   7.568 -0.5700 -0.9202  1.4457
 4277TIP3    H237027   1.545   2.185   7.640  0.6631  0.9607  0.7922
 4278TIP3   OH237028   6.130   5.586   7.963 -0.4473  0.0459  0.4588
 4278TIP3    H137029   6.174   5.512   8.004 -0.1581 -0.2642 -0.3980
 4278TIP3    H237030   6.161   5.662   8.012  0.0883 -0.2946  0.6577
 4279TIP3   OH237031   3.138   5.376   2.323  0.2584  0.0478 -0.1989
 4279TIP3    H137032   3.057   5.415   2.291 -0.6510 -0.2610  1.6151
 4279TIP3    H237033   3.109   5.306   2.382  1.8421  0.2528  0.8722
 4280TIP3   OH237034   0.449   6.673   8.677  0.1390  0.1343  0.3128
 4280TIP3    H137035   0.460   6.749   8.734 -1.2157  1.1705 -0.7271
 4280TIP3    H237036   0.394   6.705   8.605  2.6238 -0.7775 -2.1878
 4281TIP3   OH237037   3.472   1.523   8.200  0.4449 -0.0699  0.3389
 4281TIP3    H137038   3.464   1.448   8.259  2.6966  0.2444  1.1212
 4281TIP3    H237039   3.513   1.488   8.122 -1.2317 -0.1923 -0.5347
 4282TIP3   OH237040   1.998   3.427   1.059 -0.2605  0.4447  0.2529
 4282TIP3    H137041   2.003   3.482   0.981  0.8339 -1.8850 -1.4508
 4282TIP3    H237042   1.912   3.384   1.052  0.1328 -0.3091 -0.1121
 4283TIP3   OH237043   3.632   1.148   2.900  0.2983  0.4903  0.1105
 4283TIP3    H137044   3.577   1.225   2.909  0.1160  0.2386  1.2920
 4283TIP3    H237045   3.713   1.171   2.946  0.1693 -0.0769  0.6386
 4284TIP3   OH237046   3.273   2.455   8.978  0.4030 -0.4312  0.3711
 4284TIP3    H137047   3.260   2.549   8.989 -0.7592 -0.6513  1.0557
 4284TIP3    H237048   3.368   2.444   8.984  0.5367  0.6593  0.6073
 4285TIP3   OH237049   3.578   1.966   0.466 -0.0812 -0.4669 -0.6791
 4285TIP3    H137050   3.622   1.902   0.522  0.8619  1.8555  1.4550
 4285TIP3    H237051   3.645   2.033   0.450 -1.9711  1.7784  0.2505
 4286TIP3   OH237052   5.569   2.354   8.414 -0.0434  0.8747  0.4771
 4286TIP3    H137053   5.549   2.383   8.503  0.2990  0.4488  0.6951
 4286TIP3    H237054   5.641   2.412   8.387  0.3771  0.5020  0.7699
 4287TIP3   OH237055   2.677   0.188   8.904 -0.2298 -0.2711 -0.4976
 4287TIP3    H137056   2.721   0.272   8.895  0.7713 -0.7123  0.1042
 4287TIP3    H237057   2.626   0.179   8.824  1.1105  0.0694 -1.4143
 4288TIP3   OH237058   1.732   6.207   6.962  0.0516  0.0863 -0.0994
 4288TIP3    H137059   1.802   6.142   6.956  0.4072  0.5853 -2.3426
 4288TIP3    H237060   1.777   6.291   6.969 -0.3577  0.2860  0.1958
 4289TIP3   OH237061   3.520   6.412   8.578 -0.2219  0.3812 -0.0754
 4289TIP3    H137062   3.465   6.446   8.648 -1.1877 -2.3057  0.5937
 4289TIP3    H237063   3.542   6.323   8.605  1.9904  0.3335 -1.7525
 4290TIP3   OH237064   3.559   4.536   0.686 -0.2826  0.0424 -0.0647
 4290TIP3    H137065   3.559   4.445   0.714  0.9289  0.3468  1.0003
 4290TIP3    H237066   3.651   4.560   0.678 -0.5559  0.5796 -2.4580
 4291TIP3   OH237067   2.859   5.515   7.595 -0.2873  0.1100  0.3132
 4291TIP3    H137068   2.817   5.431   7.612 -0.9845  0.4242  0.1909
 4291TIP3    H237069   2.901   5.538   7.678 -1.5897  0.4722  0.8989
 4292TIP3   OH237070   2.533   0.985   7.761  0.2072 -0.4905  0.4671
 4292TIP3    H137071   2.545   0.953   7.672  1.8786  0.2673  0.3778
 4292TIP3    H237072   2.459   1.045   7.756 -0.2913 -1.1542 -0.2070
 4293TIP3   OH237073   6.226   5.971   9.138  0.2878 -0.4797  0.0690
 4293TIP3    H137074   6.206   6.024   9.061  2.4727 -0.1190 -0.3259
 4293TIP3    H237075   6.199   6.025   9.212 -1.4816 -0.6693 -0.3983
 4294TIP3   OH237076   1.044   6.193   8.868  0.7632  0.2412  0.1046
 4294TIP3    H137077   1.120   6.170   8.920  1.4944 -0.0106 -1.0244
 4294TIP3    H237078   1.064   6.280   8.833 -0.6939  1.4021  1.9748
 4295TIP3   OH237079   1.523   3.281   8.130  0.1097 -0.8756 -0.0875
 4295TIP3    H137080   1.547   3.259   8.040  1.5768 -1.1529  0.3460
 4295TIP3    H237081   1.534   3.199   8.179  0.5999 -0.4228  0.5805
 4296TIP3   OH237082   5.505   7.307   9.424  0.1414  0.2796  0.1121
 4296TIP3    H137083   5.414   7.280   9.412  0.5386 -1.2430  0.3406
 4296TIP3    H237084   5.500   7.397   9.455 -1.2550  0.4973 -0.6963
 4297TIP3   OH237085   6.724   4.602   1.471  0.3658 -0.3740  0.5904
 4297TIP3    H137086   6.669   4.618   1.395  0.0114 -3.6255 -0.0074
 4297TIP3    H237087   6.691   4.662   1.538 -0.9741  0.8202 -1.0640
 4298TIP3   OH237088   6.011   1.891   0.076  0.3476 -0.4133 -0.2513
 4298TIP3    H137089   5.934   1.905   0.020  1.1927 -0.6986 -1.5353
 4298TIP3    H237090   6.085   1.914   0.020  1.1510  2.8924  1.9115
 4299TIP3   OH237091   5.079   1.976   1.801 -0.4402  0.4161  0.4294
 4299TIP3    H137092   5.030   1.984   1.719  0.6898 -0.3379 -0.3652
 4299TIP3    H237093   5.043   1.899   1.843 -0.3464  0.2045  0.1298
 4300TIP3   OH237094   7.177   4.510   9.011  0.0140 -0.0936  0.1373
 4300TIP3    H137095   7.221   4.509   8.926  1.4950 -1.7456  0.8701
 4300TIP3    H237096   7.111   4.440   9.004 -1.9466  1.7224 -0.6155
 4301TIP3   OH237097   6.493   6.693   8.092  0.3155  0.2645 -0.3280
 4301TIP3    H137098   6.561   6.633   8.122 -1.2670  0.1966  3.7758
 4301TIP3    H237099   6.539   6.774   8.071  1.8633 -0.3021  0.6996
 4302TIP3   OH237100   3.932   2.556   7.074 -0.1634 -0.1061  0.2324
 4302TIP3    H137101   3.992   2.517   7.010  0.9568 -2.7213  2.6541
 4302TIP3    H237102   3.947   2.650   7.067  2.3175 -0.5116 -1.0742
 4303TIP3   OH237103   2.612   6.470   9.372  0.4869 -0.4739  0.6339
 4303TIP3    H137104   2.563   6.493   9.293 -0.1382 -2.7576  0.2896
 4303TIP3    H237105   2.694   6.433   9.340  0.9314  0.0474  1.1314
 4304TIP3   OH237106   3.261   2.398   0.032  0.3699  0.1241  0.1595
 4304TIP3    H137107   3.337   2.443   0.070  0.4228  0.9149 -0.8507
 4304TIP3    H237108   3.294   2.360  -0.049 -0.4260  0.9500 -0.5696
 4305TIP3   OH237109   1.871   6.053   0.100 -0.4070 -0.1769 -0.3069
 4305TIP3    H137110   1.857   6.068   0.194  2.3119 -0.1900  0.1860
 4305TIP3    H237111   1.894   6.140   0.066  0.0154 -0.4117 -0.6348
 4306TIP3   OH237112   4.349   3.335   9.572 -0.3870 -0.2353 -0.0344
 4306TIP3    H137113   4.321   3.267   9.510  0.0699 -1.0854  0.6726
 4306TIP3    H237114   4.325   3.418   9.529 -0.6239 -0.8226 -1.0742
 4307TIP3   OH237115   7.178   0.520   8.258  0.1400 -0.3632  0.4988
 4307TIP3    H137116   7.196   0.584   8.190 -0.5653  0.3113  0.9364
 4307TIP3    H237117   7.234   0.445   8.235 -0.4363 -0.3563 -1.0997
 4308TIP3   OH237118   0.981   1.202   2.186 -0.0400  0.5203 -0.5051
 4308TIP3    H137119   1.030   1.131   2.228 -0.4811  1.0714  1.0091
 4308TIP3    H237120   0.906   1.216   2.244 -0.1365  2.0082 -0.9555
 4309TIP3   OH237121   1.891   1.411   0.481  0.2281  0.0516 -0.0994
 4309TIP3    H137122   1.803   1.447   0.481 -0.7935 -2.2827 -0.2260
 4309TIP3    H237123   1.880   1.321   0.512  2.7054 -0.0150  0.8098
 4310TIP3   OH237124   2.569   4.377   9.550  0.0130  0.3736  0.5815
 4310TIP3    H137125   2.539   4.466   9.533 -1.4620 -0.2153 -0.0915
 4310TIP3    H237126   2.494   4.322   9.528  1.5589 -1.1987 -1.0194
 4311TIP3   OH237127   6.039   1.860   9.108  0.2020 -0.3838 -0.1027
 4311TIP3    H137128   6.126   1.818   9.108  0.7521  0.4234 -3.8823
 4311TIP3    H237129   6.027   1.889   9.018 -3.1519  1.4330  0.7968
 4312TIP3   OH237130   1.997   1.387   9.786  0.6072 -0.1456 -0.8606
 4312TIP3    H137131   1.946   1.469   9.788 -2.9165 -2.1199  0.9217
 4312TIP3    H237132   1.999   1.363   9.693  1.1738  1.5985 -1.3432
 4313TIP3   OH237133   0.510   1.841   7.792 -0.0819  0.7620  0.0363
 4313TIP3    H137134   0.531   1.895   7.715 -0.2805  1.2992  0.3578
 4313TIP3    H237135   0.566   1.763   7.782  0.0548  0.9276 -0.5367
 4314TIP3   OH237136   0.865   7.221   8.462 -0.4828  0.3758  0.1919
 4314TIP3    H137137   0.775   7.230   8.493 -0.7379 -0.1876 -0.3576
 4314TIP3    H237138   0.918   7.213   8.542 -0.9976  0.0400  0.5049
 4315TIP3   OH237139   1.526   1.112   8.437 -0.0231 -0.6953 -0.2822
 4315TIP3    H137140   1.578   1.178   8.391  0.0521 -0.6143 -0.0847
 4315TIP3    H237141   1.548   1.029   8.394 -1.5015 -0.3806 -1.7631
 4316TIP3   OH237142   1.965   5.144   2.249 -0.1242  0.7150  0.1042
 4316TIP3    H137143   1.967   5.099   2.164  0.3998  0.8721  0.0297
 4316TIP3    H237144   2.051   5.186   2.255  0.9120 -1.4649  1.8681
 4317TIP3   OH237145   7.003   4.247   9.038 -0.1872 -0.3103 -0.0691
 4317TIP3    H137146   6.960   4.211   8.961 -1.3929 -1.9787  1.3294
 4317TIP3    H237147   7.049   4.173   9.077 -0.2965  0.3111  1.2791
 4318TIP3   OH237148   0.077   6.720   8.798  0.4345 -0.4929  0.1930
 4318TIP3    H137149   0.069   6.671   8.880 -1.9529  0.3941  0.5527
 4318TIP3    H237150   0.097   6.653   8.733 -0.9632 -1.7146  0.9555
 4319TIP3   OH237151   6.613   3.397   8.729 -0.1115  0.3185  0.4933
 4319TIP3    H137152   6.603   3.433   8.641 -1.9468  0.8724  0.8753
 4319TIP3    H237153   6.603   3.303   8.718  1.3825  0.2052 -0.0861
 4320TIP3   OH237154   7.151   4.625   9.603  0.6208  0.4995  0.1482
 4320TIP3    H137155   7.200   4.543   9.598  1.0679  0.8201 -1.0929
 4320TIP3    H237156   7.218   4.693   9.596  0.1375  0.9575 -0.1001
 4321TIP3   OH237157   2.321   3.497   1.284  0.6452 -0.2900  0.1291
 4321TIP3    H137158   2.352   3.407   1.270 -0.8610 -0.4655 -2.8811
 4321TIP3    H237159   2.343   3.543   1.203 -0.5989  1.4433  0.7088
 4322TIP3   OH237160   2.065   7.110   1.404 -0.1185 -0.3538  0.2321
 4322TIP3    H137161   1.996   7.099   1.338  0.2634  0.3907 -0.3113
 4322TIP3    H237162   2.019   7.143   1.481 -0.6412 -1.6740  0.5231
 4323TIP3   OH237163   4.242   4.142   0.487  0.4311 -0.1167 -0.5408
 4323TIP3    H137164   4.278   4.115   0.572 -0.4541  0.6919  0.1250
 4323TIP3    H237165   4.317   4.149   0.429  1.1563  0.1319  0.4119
 4324TIP3   OH237166   0.246   5.973   8.136  0.0657  0.1855 -0.4094
 4324TIP3    H137167   0.216   5.918   8.208 -0.1236 -0.4785 -0.9804
 4324TIP3    H237168   0.332   6.005   8.164  0.6760 -1.2899 -0.4978
 4325TIP3   OH237169   5.986   4.837   1.566 -0.3979  0.7508  0.1092
 4325TIP3    H137170   5.975   4.847   1.472  1.2355 -0.1582 -0.2127
 4325TIP3    H237171   6.020   4.922   1.595 -1.5139  1.2491  0.0170
 4326TIP3   OH237172   1.903   6.090   6.429 -0.0825  0.2499  0.4119
 4326TIP3    H137173   1.809   6.077   6.413  0.0786 -0.6606  0.1249
 4326TIP3    H237174   1.921   6.040   6.508  0.5584 -1.3489 -0.7023
 4327TIP3   OH237175   2.433   4.884   5.927  0.3496 -0.6371  0.3483
 4327TIP3    H137176   2.366   4.933   5.975 -0.9226 -1.8119 -0.1833
 4327TIP3    H237177   2.432   4.921   5.839  0.7628 -0.3372  0.4624
 4328TIP3   OH237178   4.898   3.062   1.695  0.1474 -0.0679  0.0649
 4328TIP3    H137179   4.926   3.004   1.624  0.0735 -0.3623  0.2771
 4328TIP3    H237180   4.813   3.095   1.666 -0.3587 -0.9776  0.4703
 4329TIP3   OH237181   5.325   3.094   0.976 -0.0641 -0.1556  0.6935
 4329TIP3    H137182   5.231   3.091   0.991 -0.1204  0.9761  0.6288
 4329TIP3    H237183   5.337   3.155   0.903  0.6608 -0.9444  0.1267
 4330TIP3   OH237184   1.293   2.117   9.571  0.4943  0.1756  0.4762
 4330TIP3    H137185   1.349   2.192   9.548  1.1453 -0.6433 -0.7719
 4330TIP3    H237186   1.349   2.062   9.625 -0.0262  0.6368  1.5000
 4331TIP3   OH237187   4.784   2.427   9.263  0.9136  0.5361  0.8892
 4331TIP3    H137188   4.791   2.331   9.260  2.0198  0.6290 -0.0143
 4331TIP3    H237189   4.873   2.457   9.283  0.8055  1.4110  0.1330
 4332TIP3   OH237190   0.666   4.737   2.217 -0.5148  0.5153  0.0597
 4332TIP3    H137191   0.707   4.714   2.133 -3.1278 -0.0131 -1.1915
 4332TIP3    H237192   0.663   4.832   2.217 -0.9060  0.5146 -0.6986
 4333TIP3   OH237193   1.997   0.384   1.700 -0.4182 -0.5482  0.3885
 4333TIP3    H137194   2.061   0.448   1.670 -2.8792  1.2992 -1.2705
 4333TIP3    H237195   1.994   0.395   1.795 -0.2586  1.2894  0.2049
 4334TIP3   OH237196   4.916   6.584   1.420 -0.5124  0.3951 -0.2687
 4334TIP3    H137197   5.005   6.614   1.434 -0.6141  0.1013  1.1481
 4334TIP3    H237198   4.864   6.632   1.485 -1.0118 -1.1280  0.5040
 4335TIP3   OH237199   5.062   4.440   8.342  0.3308 -0.6673 -0.8873
 4335TIP3    H137200   5.074   4.376   8.273 -0.3307 -1.4821 -0.2725
 4335TIP3    H237201   4.976   4.420   8.379  0.4507  0.0758 -0.1634
 4336TIP3   OH237202   6.300   2.344   1.209  0.2273  0.3582 -0.2127
 4336TIP3    H137203   6.341   2.430   1.216  1.4910 -0.3088  1.6202
 4336TIP3    H237204   6.347   2.300   1.138 -0.4543  1.1612 -1.1845
 4337TIP3   OH237205   6.403   0.816   2.122 -0.1027 -0.4204  0.5686
 4337TIP3    H137206   6.431   0.886   2.181 -0.6223  0.0653  0.2512
 4337TIP3    H237207   6.395   0.859   2.037 -0.0919 -0.9476  0.3030
 4338TIP3   OH237208   5.031   5.987   9.683 -0.1273 -0.0133 -0.0171
 4338TIP3    H137209   4.985   5.906   9.662 -0.8761  0.3582  0.1198
 4338TIP3    H237210   4.962   6.045   9.715  0.2911  0.8746 -0.6789
 4339TIP3   OH237211   6.170   0.668   2.148 -0.4239 -0.0760  0.0501
 4339TIP3    H137212   6.093   0.685   2.202 -1.0532 -3.2343  0.3663
 4339TIP3    H237213   6.222   0.748   2.154 -2.4451  1.2185  1.9143
 4340TIP3   OH237214   4.353   3.963   8.218 -0.1126  0.4328 -0.7447
 4340TIP3    H137215   4.285   4.026   8.245 -0.3987 -0.0900 -0.2225
 4340TIP3    H237216   4.338   3.951   8.124  0.3908  1.6675 -1.0094
 4341TIP3   OH237217   0.725   1.528   9.929  0.0814 -0.1814  0.2011
 4341TIP3    H137218   0.799   1.467   9.929 -1.2897 -1.9333 -0.5404
 4341TIP3    H237219   0.667   1.495   9.861 -0.8807  1.8130 -0.0227
 4342TIP3   OH237220   2.860   7.043   8.419  0.3866 -0.1622  0.3939
 4342TIP3    H137221   2.923   6.971   8.416  0.5946  0.0396 -0.9683
 4342TIP3    H237222   2.907   7.118   8.382  0.1981  0.7216  1.8491
 4343TIP3   OH237223   4.971   3.594   2.434 -0.3120  0.0863  0.7313
 4343TIP3    H137224   4.880   3.572   2.411 -0.3379 -0.2325  1.1440
 4343TIP3    H237225   4.968   3.688   2.452 -0.5857  0.0543  0.8631
 4344TIP3   OH237226   3.225   7.065   0.173  0.4300 -0.3598 -0.0375
 4344TIP3    H137227   3.235   7.036   0.083  2.4084 -1.0500  0.3574
 4344TIP3    H237228   3.150   7.016   0.206 -1.0789  0.7790 -1.5999
 4345TIP3   OH237229   2.226   6.182   6.850 -1.0529 -0.4816  0.4395
 4345TIP3    H137230   2.288   6.251   6.825 -0.1588 -1.3081  0.2797
 4345TIP3    H237231   2.155   6.188   6.786 -0.4181 -0.4330 -0.2705
 4346TIP3   OH237232   0.390   1.142   8.644  0.0392  0.3416 -0.5450
 4346TIP3    H137233   0.473   1.095   8.652 -0.0628  0.2508  0.0922
 4346TIP3    H237234   0.407   1.213   8.583  0.7883  0.7648  0.1455
 4347TIP3   OH237235   0.186   2.191   1.219 -0.1682 -0.3061  0.4739
 4347TIP3    H137236   0.234   2.165   1.141  0.7332  1.4295  0.4010
 4347TIP3    H237237   0.136   2.269   1.192  0.8866  0.8940  1.8169
 4348TIP3   OH237238   1.777   3.593   0.197 -0.3114  0.1947  0.0304
 4348TIP3    H137239   1.735   3.615   0.281  0.6435 -2.2515  1.2513
 4348TIP3    H237240   1.800   3.678   0.159 -2.4849  1.4535  1.3053
 4349TIP3   OH237241   5.276   6.789   0.812  0.0185 -0.4343 -0.0451
 4349TIP3    H137242   5.255   6.882   0.820  2.6557  0.2358 -0.3196
 4349TIP3    H237243   5.359   6.779   0.859  0.9485 -2.1969 -1.9454
 4350TIP3   OH237244   2.059   0.945   6.726  0.2280  0.2359  0.6366
 4350TIP3    H137245   2.059   0.989   6.641 -1.6408  0.5429  0.7585
 4350TIP3    H237246   2.025   0.857   6.707 -2.1111  0.9196  1.2894
 4351TIP3   OH237247   7.356   2.132   0.981  0.7457 -0.1444  0.4249
 4351TIP3    H137248   7.408   2.057   0.953 -1.0034 -2.0671  1.9608
 4351TIP3    H237249   7.288   2.140   0.914  0.4363 -0.5239  0.6830
 4352TIP3   OH237250   2.095   6.476   8.007  0.1078  0.4471  0.0751
 4352TIP3    H137251   2.076   6.410   7.940 -0.2979  1.3001 -0.6713
 4352TIP3    H237252   2.092   6.560   7.960 -0.8679  1.1252  1.2718
 4353TIP3   OH237253   4.440   7.043   1.315  0.1785 -0.7001 -0.6554
 4353TIP3    H137254   4.355   7.013   1.284  0.0789  0.8542 -2.0585
 4353TIP3    H237255   4.422   7.087   1.398 -0.4543 -0.1139 -1.0940
 4354TIP3   OH237256   0.079   1.974   8.688 -0.2306  0.2531  0.0381
 4354TIP3    H137257   0.037   1.941   8.768  0.8398  0.9424  0.9095
 4354TIP3    H237258   0.042   2.061   8.675  0.3870  0.5780  0.4091
 4355TIP3   OH237259   2.899   0.728   9.971 -0.3724 -0.0774 -0.1939
 4355TIP3    H137260   2.936   0.646   9.939  0.1239 -0.0564  0.3205
 4355TIP3    H237261   2.955   0.796   9.933  0.7677 -0.0844  1.3964
 4356TIP3   OH237262   5.209   5.295   8.332 -0.6862  0.1192 -0.1941
 4356TIP3    H137263   5.139   5.312   8.394 -0.8483 -0.2360 -0.2793
 4356TIP3    H237264   5.190   5.352   8.257  0.1981  1.5023  0.5831
 4357TIP3   OH237265   4.938   4.694   1.518  0.6154 -0.2217 -0.0247
 4357TIP3    H137266   4.888   4.727   1.444  1.0505 -0.6225 -0.5090
 4357TIP3    H237267   4.985   4.618   1.483 -0.6798 -1.6320  1.1593
 4358TIP3   OH237268   0.348   4.944   2.138 -0.1366  0.2183 -0.1140
 4358TIP3    H137269   0.279   5.004   2.111  1.1675  1.5567 -0.6263
 4358TIP3    H237270   0.334   4.866   2.086 -0.8823  0.7137 -0.6778
 4359TIP3   OH237271   3.666   3.227   0.055  0.0215  0.3208 -0.0616
 4359TIP3    H137272   3.761   3.237   0.065  0.3247  0.1500 -2.2928
 4359TIP3    H237273   3.632   3.317   0.058  0.4364  0.5033 -0.6748
 4360TIP3   OH237274   5.379   4.773   7.885  0.3270 -0.2803  0.5084
 4360TIP3    H137275   5.369   4.800   7.793 -0.8216 -2.5864 -0.1219
 4360TIP3    H237276   5.301   4.805   7.929  0.1666 -0.4228  0.3303
 4361TIP3   OH237277   3.685   2.918   7.929  0.0574 -0.2880  0.0914
 4361TIP3    H137278   3.645   2.964   7.856 -0.7882  1.3619  1.5375
 4361TIP3    H237279   3.612   2.876   7.974  0.2815  0.3883  1.1225
 4362TIP3   OH237280   4.816   5.779   0.848 -0.4123 -0.4509  0.2705
 4362TIP3    H137281   4.796   5.737   0.932  0.1500 -3.5346 -0.9983
 4362TIP3    H237282   4.907   5.807   0.856  0.4909 -3.0180 -0.0435
 4363TIP3   OH237283   4.232   2.405   0.781 -0.0657 -0.2199  0.2561
 4363TIP3    H137284   4.294   2.418   0.709  0.9568 -1.4954  0.8683
 4363TIP3    H237285   4.247   2.316   0.810  1.0705  0.8856  3.4627
 4364TIP3   OH237286   5.730   4.948   0.200 -0.0502  0.1669 -0.3516
 4364TIP3    H137287   5.681   5.027   0.220  1.4599  0.4712  2.7139
 4364TIP3    H237288   5.665   4.878   0.203 -1.2227  1.1127 -2.1295
 4365TIP3   OH237289   3.078   5.197   8.024  0.4618 -0.0099  0.1506
 4365TIP3    H137290   3.113   5.118   7.984  0.7540 -0.4589  1.2381
 4365TIP3    H237291   2.983   5.190   8.013  0.5167 -0.2797 -0.1556
 4366TIP3   OH237292   0.218   5.407   0.273  0.3272  0.3033  0.1623
 4366TIP3    H137293   0.164   5.431   0.197  1.3047  1.0458 -0.3117
 4366TIP3    H237294   0.192   5.469   0.341  0.1810  0.2965  0.1133
 4367TIP3   OH237295   1.031   2.472   1.366 -0.3697 -0.1693 -0.1374
 4367TIP3    H137296   0.951   2.430   1.334 -0.3989  0.3019 -0.6934
 4367TIP3    H237297   1.000   2.553   1.409 -0.0915  0.7989 -1.6910
 4368TIP3   OH237298   4.304   5.433   7.349 -0.3393  0.2266  0.3298
 4368TIP3    H137299   4.273   5.432   7.258 -0.3076  1.3798  0.2829
 4368TIP3    H237300   4.325   5.342   7.369 -0.8256 -0.1166 -0.6544
 4369TIP3   OH237301   0.951   7.099   0.298  0.5390 -0.1344  0.7559
 4369TIP3    H137302   0.862   7.092   0.264  0.8034  0.6798 -0.1325
 4369TIP3    H237303   0.958   7.027   0.360 -1.4210  1.0238  2.4358
 4370TIP3   OH237304   0.096   5.926   1.993  0.6993  0.6042 -0.2912
 4370TIP3    H137305   0.121   5.972   1.913  3.2109 -0.9916 -0.5536
 4370TIP3    H237306   0.138   5.840   1.984  0.3828  0.1045  2.3851
 4371TIP3   OH237307   2.485   3.622   7.312  0.0810 -0.9876 -0.5845
 4371TIP3    H137308   2.574   3.648   7.335  0.2358 -0.5100 -1.6930
 4371TIP3    H237309   2.444   3.604   7.397  1.2354 -1.2659 -0.0569
 4372TIP3   OH237310   3.026   0.541   9.284 -0.1229  0.3044  0.3573
 4372TIP3    H137311   2.981   0.461   9.255  0.6947  0.4221 -1.3035
 4372TIP3    H237312   2.955   0.600   9.309 -0.7719 -0.5399  0.5850
 4373TIP3   OH237313   3.067   5.347   0.001 -0.4543  0.2864 -0.1759
 4373TIP3    H137314   3.078   5.425   0.055  1.6576  0.1113 -0.2641
 4373TIP3    H237315   3.078   5.378  -0.089 -2.4887  0.3295 -0.4430
 4374TIP3   OH237316   3.199   6.602   8.470  0.4665 -0.4502  0.1923
 4374TIP3    H137317   3.210   6.520   8.518  1.8116 -0.3818  0.0398
 4374TIP3    H237318   3.283   6.646   8.480 -0.2609  0.9522  0.3332
 4375TIP3   OH237319   4.912   1.198   1.558  0.2691  0.3180  0.3280
 4375TIP3    H137320   4.875   1.121   1.601 -0.8192 -0.3872 -1.7449
 4375TIP3    H237321   4.855   1.270   1.583 -0.1424 -0.0152  0.3442
 4376TIP3   OH237322   6.984   3.341   1.955  0.4378 -0.1295  0.1002
 4376TIP3    H137323   6.908   3.367   1.902  1.2681 -0.7422 -1.4460
 4376TIP3    H237324   7.055   3.398   1.924  1.3047 -1.5127 -0.5097
 4377TIP3   OH237325   1.149   5.025   1.756 -0.3403 -0.9039 -0.1669
 4377TIP3    H137326   1.187   5.056   1.838  0.0949  2.3921 -1.4668
 4377TIP3    H237327   1.219   4.975   1.714  0.1711 -0.7576  0.5051
 4378TIP3   OH237328   1.527   0.649   9.349 -0.0064  0.0655  0.4734
 4378TIP3    H137329   1.601   0.689   9.303  1.6958 -0.8551  2.2341
 4378TIP3    H237330   1.467   0.721   9.366  1.0419  1.0904 -0.0257
 4379TIP3   OH237331   6.051   2.129   8.557 -0.5607 -0.2466  0.2462
 4379TIP3    H137332   6.054   2.179   8.639 -1.4704  0.3688 -0.0776
 4379TIP3    H237333   6.138   2.140   8.519 -0.5761  0.6173  0.4524
 4380TIP3   OH237334   3.683   5.510   7.777  0.3480 -0.1835  0.6432
 4380TIP3    H137335   3.768   5.472   7.799  0.7498  0.8263  0.9232
 4380TIP3    H237336   3.682   5.514   7.681 -0.1126 -1.7552  0.5523
 4381TIP3   OH237337   1.365   0.412   9.946 -0.1525 -0.1603  0.1157
 4381TIP3    H137338   1.301   0.429  10.016 -1.4696 -1.5175 -0.7244
 4381TIP3    H237339   1.326   0.452   9.868 -0.1723 -1.2995 -0.4774
 4382TIP3   OH237340   2.493   0.574   2.659  0.0353  0.4619 -0.3835
 4382TIP3    H137341   2.502   0.632   2.734 -0.6653  1.0745 -0.7679
 4382TIP3    H237342   2.457   0.493   2.695 -2.7744  1.6185 -0.3978
 4383TIP3   OH237343   0.217   4.639   9.239  0.3691 -0.0766 -0.0994
 4383TIP3    H137344   0.138   4.625   9.291  0.4042 -1.7734 -0.4529
 4383TIP3    H237345   0.213   4.731   9.213  0.4382  0.9119  3.0218
 4384TIP3   OH237346   0.198   5.197   1.111  0.2778 -0.0262  0.0831
 4384TIP3    H137347   0.163   5.271   1.161 -0.1597 -0.6428  0.7061
 4384TIP3    H237348   0.193   5.225   1.020  2.4408  1.7124  0.4156
 4385TIP3   OH237349   2.881   1.944   2.200  0.1762 -0.0729 -0.1216
 4385TIP3    H137350   2.973   1.964   2.222  0.4909  0.3639 -1.7130
 4385TIP3    H237351   2.882   1.851   2.178  0.3300  0.0191 -0.5201
 4386TIP3   OH237352   2.840   0.223   7.107 -0.3747 -0.0125 -0.1298
 4386TIP3    H137353   2.789   0.166   7.165 -1.2101  0.1877 -0.6432
 4386TIP3    H237354   2.853   0.171   7.028 -0.5073  0.2443 -0.3209
 4387TIP3   OH237355   1.161   1.612   9.855  0.0504 -0.5689 -0.5881
 4387TIP3    H137356   1.218   1.688   9.853  0.4332 -0.8370 -0.1216
 4387TIP3    H237357   1.187   1.561   9.778 -0.6852  0.1033 -1.2981
 4388TIP3   OH237358   6.035   3.355   9.541 -0.4019 -0.2376 -0.3623
 4388TIP3    H137359   6.061   3.335   9.630  2.3731  0.5535 -0.8932
 4388TIP3    H237360   5.945   3.322   9.534 -0.2834 -1.3876  2.3166
 4389TIP3   OH237361   0.195   4.092   8.291  0.7882 -0.0461 -0.0361
 4389TIP3    H137362   0.282   4.071   8.257  0.7274  0.0190 -0.2344
 4389TIP3    H237363   0.203   4.083   8.386  1.4104  1.4537  0.0695
 4390TIP3   OH237364   4.620   3.811   9.926 -0.3046  0.5795 -0.0531
 4390TIP3    H137365   4.540   3.775   9.888 -0.4040 -1.0685  1.5838
 4390TIP3    H237366   4.602   3.905   9.933 -2.5503  0.1299  1.1864
 4391TIP3   OH237367   7.166   6.381   1.228 -0.5046 -0.0907 -0.8804
 4391TIP3    H137368   7.071   6.372   1.237 -0.6800  0.9053 -1.6297
 4391TIP3    H237369   7.185   6.469   1.259  0.0807 -0.0144 -1.4454
 4392TIP3   OH237370   0.632   2.167   8.269 -0.1641 -0.0317 -0.0025
 4392TIP3    H137371   0.672   2.109   8.204 -0.7464 -0.3426 -0.0905
 4392TIP3    H237372   0.551   2.197   8.228 -0.0332  0.5903  0.1745
 4393TIP3   OH237373   4.330   2.367   8.223 -0.4992  0.7003 -0.3487
 4393TIP3    H137374   4.379   2.316   8.287  0.4193  0.1888 -1.4123
 4393TIP3    H237375   4.312   2.450   8.267  0.9222  0.7178  0.2675
 4394TIP3   OH237376   3.746   2.312   8.207 -0.0054  0.0817 -0.4529
 4394TIP3    H137377   3.749   2.274   8.119  1.4193  0.0264 -0.4029
 4394TIP3    H237378   3.835   2.301   8.240 -0.1359  1.4835  0.4128
 4395TIP3   OH237379   3.713   7.171   9.473 -0.2106 -0.1370  0.1548
 4395TIP3    H137380   3.723   7.093   9.528  0.8343  1.0046  1.6818
 4395TIP3    H237381   3.803   7.198   9.455 -0.5624  0.9514 -0.0134
 4396TIP3   OH237382   5.898   0.435   9.574 -0.4858  0.1903  0.3816
 4396TIP3    H137383   5.849   0.400   9.500  2.0940 -1.1103 -0.8291
 4396TIP3    H237384   5.921   0.524   9.548 -2.6919  1.0909  1.2777
 4397TIP3   OH237385   1.588   6.222   7.930  0.1612  0.5212  0.1260
 4397TIP3    H137386   1.525   6.210   8.002  0.9416  1.2545  0.9535
 4397TIP3    H237387   1.587   6.316   7.912 -0.0999  0.3305 -0.9082
 4398TIP3   OH237388   3.886   7.401   1.775  0.0900  0.3514  0.6483
 4398TIP3    H137389   3.976   7.388   1.804  0.5158  0.6178 -0.4946
 4398TIP3    H237390   3.867   7.325   1.719 -0.4836  0.1718  1.0717
 4399TIP3   OH237391   0.692   6.629   8.882 -0.7859 -0.2524  0.1911
 4399TIP3    H137392   0.783   6.647   8.906 -0.4942 -2.1072  0.6598
 4399TIP3    H237393   0.651   6.715   8.875  0.9804  0.6128  0.0496
 4400TIP3   OH237394   2.141   1.653   9.272  0.4198  0.1545 -0.0380
 4400TIP3    H137395   2.057   1.677   9.310  0.0897 -0.5311 -0.3118
 4400TIP3    H237396   2.186   1.603   9.340  0.8500  0.9779  0.3081
 4401TIP3   OH237397   7.288   1.459   1.451  0.0155 -0.1930  0.3322
 4401TIP3    H137398   7.194   1.442   1.460  0.0137  0.7288  2.7997
 4401TIP3    H237399   7.311   1.420   1.367 -2.6766  0.0730 -0.6402
 4402TIP3   OH237400   0.720   7.145   7.586  0.0349 -0.0120  0.3083
 4402TIP3    H137401   0.672   7.187   7.516  2.0362  1.0106 -0.5445
 4402TIP3    H237402   0.805   7.122   7.547  0.0558 -2.3531  1.5221
 4403TIP3   OH237403   3.554   2.509   9.864  0.7333 -0.3036 -1.0743
 4403TIP3    H137404   3.628   2.551   9.822 -1.0467  1.0706 -3.0556
 4403TIP3    H237405   3.494   2.582   9.885 -1.3360 -1.5515 -2.2915
 4404TIP3   OH237406   1.114   1.447   2.094  0.1128  0.0362  0.2286
 4404TIP3    H137407   1.043   1.508   2.074  0.1832  0.6256  1.6596
 4404TIP3    H237408   1.072   1.373   2.135 -0.0273 -1.1555 -1.9305
 4405TIP3   OH237409   6.858   6.339   1.223  0.1164  0.1137  0.8988
 4405TIP3    H137410   6.870   6.265   1.162 -0.1680  0.6992  0.1096
 4405TIP3    H237411   6.811   6.404   1.171  2.5784  1.9028  0.7323
 4406TIP3   OH237412   1.343   1.386   1.585 -0.8330 -0.6483  0.0363
 4406TIP3    H137413   1.388   1.449   1.642  0.7251 -1.8580  0.2063
 4406TIP3    H237414   1.413   1.347   1.532 -1.5489 -3.0920  0.7736
 4407TIP3   OH237415   3.374   6.663   7.463 -0.2641  0.2424  0.5673
 4407TIP3    H137416   3.299   6.604   7.476  0.3638 -0.8846 -0.6599
 4407TIP3    H237417   3.393   6.697   7.551 -1.8158  0.0713  0.9945
 4408TIP3   OH237418   4.298   7.305   9.010 -0.1194  0.4577 -0.9240
 4408TIP3    H137419   4.373   7.247   8.995 -1.0920 -1.0741 -0.0639
 4408TIP3    H237420   4.309   7.335   9.100 -1.7438 -1.6734  0.0462
 4409TIP3   OH237421   2.502   3.242   7.876  0.5264 -0.4767  0.2818
 4409TIP3    H137422   2.448   3.164   7.864 -0.1544  0.0261  0.0642
 4409TIP3    H237423   2.555   3.247   7.796 -2.1631  1.4131 -1.5757
 4410TIP3   OH237424   1.532   3.044   8.437 -0.4899  0.3950  0.4677
 4410TIP3    H137425   1.555   3.057   8.345 -3.2071 -0.8200 -0.5082
 4410TIP3    H237426   1.580   2.965   8.463 -0.7285 -0.0399 -0.3684
 4411TIP3   OH237427   5.850   5.228   0.561  0.2642  0.3372  0.1013
 4411TIP3    H137428   5.901   5.307   0.542  1.8373 -0.0416  2.4045
 4411TIP3    H237429   5.822   5.239   0.652  0.3191 -1.6577  0.3981
 4412TIP3   OH237430   6.525   5.891   8.938 -0.1752  0.3896  0.6102
 4412TIP3    H137431   6.435   5.860   8.943  0.2280 -0.6203  1.6840
 4412TIP3    H237432   6.569   5.852   9.012  1.0267  1.3425  0.4317
 4413TIP3   OH237433   5.761   3.995   8.790 -0.0279  0.2229 -0.0046
 4413TIP3    H137434   5.827   3.949   8.738  0.0257 -0.3320  0.5345
 4413TIP3    H237435   5.692   3.931   8.803  0.6942 -0.2564  1.9993
 4414TIP3   OH237436   4.659   6.899   9.954 -0.0075  0.1335 -0.3242
 4414TIP3    H137437   4.567   6.890   9.929 -0.2346 -1.6667  0.9569
 4414TIP3    H237438   4.681   6.816   9.995  0.7465  2.1770  3.9914
 4415TIP3   OH237439   1.923   2.343   8.153 -0.8524  0.0949  0.5368
 4415TIP3    H137440   1.865   2.324   8.079  0.2904 -0.1540 -0.3270
 4415TIP3    H237441   2.009   2.356   8.113  0.4494 -2.9023  2.0170
 4416TIP3   OH237442   0.349   7.354   1.558  0.1035 -0.6036 -0.1038
 4416TIP3    H137443   0.309   7.424   1.610  1.3185 -0.1773  0.2904
 4416TIP3    H237444   0.434   7.340   1.598  1.1784 -0.1249 -2.0999
 4417TIP3   OH237445   1.423   3.402   0.829  0.0611  0.3916 -0.6494
 4417TIP3    H137446   1.367   3.369   0.759 -1.1926 -0.7533  0.8156
 4417TIP3    H237447   1.482   3.329   0.849 -1.3834 -0.3446  1.2442
 4418TIP3   OH237448   5.835   4.694   8.450 -0.4768 -0.0431 -0.2005
 4418TIP3    H137449   5.792   4.650   8.376  0.4837  2.8886 -2.7821
 4418TIP3    H237450   5.920   4.651   8.458  0.5727  1.2829 -2.8566
 4419TIP3   OH237451   4.436   5.530   8.154 -0.3046  0.3270 -0.0186
 4419TIP3    H137452   4.502   5.577   8.206  0.2954  2.1580 -2.2463
 4419TIP3    H237453   4.421   5.587   8.078 -0.8537 -2.3150 -2.0443
 4420TIP3   OH237454   4.548   0.002   1.316 -0.5391 -0.2418  0.5187
 4420TIP3    H137455   4.616   0.031   1.255 -0.6976 -0.7215  0.1086
 4420TIP3    H237456   4.497  -0.063   1.267 -0.7556 -0.5333  1.1141
 4421TIP3   OH237457   0.212   5.532   0.512  0.1049 -0.0827  0.5640
 4421TIP3    H137458   0.283   5.476   0.542  0.9693 -0.5758 -2.1476
 4421TIP3    H237459   0.140   5.514   0.572  0.4879 -3.8001  0.1205
 4422TIP3   OH237460   6.893   4.190   1.663  0.1640  0.0193  0.0600
 4422TIP3    H137461   6.888   4.122   1.730 -0.4603 -1.7154 -1.6276
 4422TIP3    H237462   6.917   4.142   1.583 -0.6856  1.7271 -1.2878
 4423TIP3   OH237463   0.702   5.038   6.980 -0.1339 -0.5868  0.1978
 4423TIP3    H137464   0.644   4.981   7.030 -0.5928  0.8797  1.4025
 4423TIP3    H237465   0.658   5.050   6.896 -1.1967 -0.1425  0.7969
 4424TIP3   OH237466   1.739   1.307   6.728  0.2342  0.3640  0.2855
 4424TIP3    H137467   1.805   1.339   6.668  1.6459  0.8134  1.9897
 4424TIP3    H237468   1.670   1.272   6.672  0.7952  2.0701 -1.5773
 4425TIP3   OH237469   0.456   5.063   7.681 -0.3133  0.0605 -0.6778
 4425TIP3    H137470   0.405   5.121   7.625  0.7978  1.4788 -0.2782
 4425TIP3    H237471   0.547   5.083   7.660  0.1060 -0.4959  0.5016
 4426TIP3   OH237472   6.248   2.055   9.117  0.0661 -0.5280 -0.6094
 4426TIP3    H137473   6.165   2.038   9.161 -0.9291  2.4957 -1.0505
 4426TIP3    H237474   6.314   2.039   9.185 -1.1369 -0.0031  0.7474
 4427TIP3   OH237475   2.162   1.881   1.485  0.2794 -0.0272  0.2561
 4427TIP3    H137476   2.079   1.887   1.439 -0.1748 -4.5056  0.0371
 4427TIP3    H237477   2.140   1.894   1.578 -0.1798  1.0989  0.0092
 4428TIP3   OH237478   7.205   0.084   9.159  0.4542 -0.0291 -0.4465
 4428TIP3    H137479   7.219  -0.009   9.177  0.4333 -0.2551 -1.5022
 4428TIP3    H237480   7.150   0.114   9.231  0.2189 -0.9040 -0.2438
 4429TIP3   OH237481   6.581   3.993   7.766 -0.4281 -0.2072  0.1554
 4429TIP3    H137482   6.654   3.979   7.705 -0.2711  0.8638  0.0905
 4429TIP3    H237483   6.598   3.931   7.838 -0.7857 -1.7245 -1.0032
 4430TIP3   OH237484   3.624   5.546   7.490  0.0993 -0.3053  0.1052
 4430TIP3    H137485   3.593   5.459   7.464  1.7058 -1.0850  0.6282
 4430TIP3    H237486   3.688   5.570   7.422  0.7012 -0.1833  0.7010
 4431TIP3   OH237487   2.358   3.872   9.076 -0.6271  0.3760  0.1228
 4431TIP3    H137488   2.436   3.916   9.043  0.4581 -0.1494  1.8451
 4431TIP3    H237489   2.287   3.905   9.021  1.0047 -0.5927 -2.8088
 4432TIP3   OH237490   5.277   4.528   8.164  0.1959  0.5576 -0.0452
 4432TIP3    H137491   5.350   4.469   8.178 -0.1562 -0.0952 -0.8666
 4432TIP3    H237492   5.214   4.506   8.232  0.5745  0.8220  0.3930
 4433TIP3   OH237493   1.542   5.000   0.665  0.3394 -0.0874 -0.2568
 4433TIP3    H137494   1.457   4.971   0.633  0.8410 -0.2538 -1.5318
 4433TIP3    H237495   1.533   5.095   0.675  0.0724 -0.0669 -0.6537
 4434TIP3   OH237496   2.826   4.899   9.893 -0.2257 -0.0033 -0.1784
 4434TIP3    H137497   2.858   4.815   9.927 -0.2802  0.9519  2.4154
 4434TIP3    H237498   2.758   4.874   9.830 -0.7778 -1.9259  1.0722
 4435TIP3   OH237499   0.203   5.187   7.577 -0.1003 -0.2703  0.7675
 4435TIP3    H137500   0.212   5.221   7.488 -0.6091 -0.6195  0.5760
 4435TIP3    H237501   0.135   5.120   7.570 -0.1322 -0.3121  1.4180
 4436TIP3   OH237502   6.250   3.272   1.234 -0.1634  0.3765  0.3176
 4436TIP3    H137503   6.165   3.306   1.263 -1.7111 -1.0530 -2.2099
 4436TIP3    H237504   6.253   3.182   1.267 -0.1206  0.0803 -0.4733
 4437TIP3   OH237505   6.235   7.155   8.107 -0.2185  0.0395 -0.0128
 4437TIP3    H137506   6.230   7.184   8.016 -0.6195 -0.3285 -0.1102
 4437TIP3    H237507   6.189   7.223   8.157  0.2236  0.3704 -0.0526
 4438TIP3   OH237508   0.244   4.506   9.907  0.7850  0.6446 -0.0967
 4438TIP3    H137509   0.309   4.576   9.895  1.4436  0.4660  2.0254
 4438TIP3    H237510   0.269   4.464   9.989 -1.9998  0.5271  0.7795
 4439TIP3   OH237511   0.259   1.521   0.024  0.0400  0.0516 -0.2548
 4439TIP3    H137512   0.330   1.575   0.057  1.5084 -1.1562 -1.2892
 4439TIP3    H237513   0.183   1.545   0.077  0.7034  2.8144 -0.4186
 4440TIP3   OH237514   4.298   3.627   8.969 -0.3715 -0.3103  0.6556
 4440TIP3    H137515   4.386   3.663   8.979 -0.0431 -0.1467 -2.1198
 4440TIP3    H237516   4.312   3.534   8.950 -0.4968  0.2800 -2.8809
 4441TIP3   OH237517   7.164   6.351   9.321  0.2913 -0.3536 -0.0577
 4441TIP3    H137518   7.202   6.373   9.406  0.2563 -0.8644  0.0944
 4441TIP3    H237519   7.073   6.327   9.341  0.4450 -1.0431 -0.1555
 4442TIP3   OH237520   0.260   5.808   6.709  0.2421 -0.4979  0.0329
 4442TIP3    H137521   0.210   5.879   6.668  1.0857  1.5153  2.3261
 4442TIP3    H237522   0.204   5.778   6.781  0.0537 -1.9790 -0.6914
 4443TIP3   OH237523   1.177   6.411   9.410 -0.2985 -0.4969 -0.3187
 4443TIP3    H137524   1.185   6.407   9.315  0.8401  1.8909 -0.3994
 4443TIP3    H237525   1.208   6.326   9.440 -0.2265 -1.1225 -2.0476
 4444TIP3   OH237526   6.154   0.960   0.513  0.3417 -0.0254 -0.6267
 4444TIP3    H137527   6.062   0.983   0.504 -0.0568 -0.1413  2.3428
 4444TIP3    H237528   6.154   0.865   0.526  0.5731  0.2557  1.8765
 4445TIP3   OH237529   0.612   5.554   1.602  0.1645 -0.2280  0.2937
 4445TIP3    H137530   0.577   5.543   1.514  0.2586  2.2172 -0.1272
 4445TIP3    H237531   0.693   5.605   1.590 -0.3957  1.1185  1.8310
 4446TIP3   OH237532   2.754   6.138   8.462  0.1057 -0.5173 -0.0444
 4446TIP3    H137533   2.747   6.203   8.392  0.5228 -0.8725 -0.4203
 4446TIP3    H237534   2.677   6.082   8.450 -1.2313  0.9108  1.3470
 4447TIP3   OH237535   5.829   4.185   0.202  0.5089 -0.0245  0.0752
 4447TIP3    H137536   5.833   4.099   0.245 -0.4316 -0.8402 -1.4137
 4447TIP3    H237537   5.737   4.198   0.181  0.8263  0.7314 -0.9481
 4448TIP3   OH237538   1.727   1.622   2.482 -0.3831 -0.2830 -0.4438
 4448TIP3    H137539   1.710   1.704   2.435 -2.0683 -1.0052 -1.1341
 4448TIP3    H237540   1.746   1.558   2.414 -0.6598 -0.8332 -0.0109
 4449TIP3   OH237541   1.589   0.249   7.086 -0.2223  0.0624 -0.0958
 4449TIP3    H137542   1.562   0.245   6.994 -1.6673 -0.6631  0.3231
 4449TIP3    H237543   1.532   0.186   7.130  1.0673 -0.2784  1.1649
 4450TIP3   OH237544   3.812   3.808   1.601  0.5895 -0.3453  0.1703
 4450TIP3    H137545   3.886   3.790   1.659  1.0349  1.3289  0.1782
 4450TIP3    H237546   3.843   3.785   1.514  0.6057 -1.0062  0.3447
 4451TIP3   OH237547   2.835   2.154   0.772  0.0841 -0.1531 -0.5343
 4451TIP3    H137548   2.863   2.071   0.734  2.5127  0.2566  0.1754
 4451TIP3    H237549   2.874   2.221   0.716 -1.5232  0.5480 -0.8766
 4452TIP3   OH237550   6.373   3.859   0.975  0.5850  0.4706 -0.1533
 4452TIP3    H137551   6.402   3.907   0.898 -0.1175  2.0934  0.5569
 4452TIP3    H237552   6.397   3.915   1.049 -0.2650 -0.2676  0.7099
 4453TIP3   OH237553   7.277   4.104   8.497  0.0088 -0.1185 -0.2869
 4453TIP3    H137554   7.335   4.170   8.458 -0.0634  0.4233  0.5005
 4453TIP3    H237555   7.337   4.041   8.536  0.0798  0.1442  0.0363
 4454TIP3   OH237556   2.070   0.750   9.278 -0.4938  0.6284  0.1664
 4454TIP3    H137557   1.990   0.723   9.323 -0.3064  0.6863  0.5352
 4454TIP3    H237558   2.072   0.696   9.199  0.5851 -1.4863  1.5492
 4455TIP3   OH237559   6.634   7.347   0.375  0.2016 -0.3514 -0.5699
 4455TIP3    H137560   6.585   7.405   0.433 -0.4302  0.7601 -2.1478
 4455TIP3    H237561   6.671   7.405   0.308  1.7442 -1.4661 -0.7372
 4456TIP3   OH237562   1.385   3.320   1.872 -0.0751 -0.1561  0.5746
 4456TIP3    H137563   1.296   3.292   1.893 -1.2038  1.9941 -0.9420
 4456TIP3    H237564   1.393   3.408   1.908  1.6533 -0.4682  1.0896
 4457TIP3   OH237565   1.879   6.796   8.963 -0.2230 -0.0167 -0.5079
 4457TIP3    H137566   1.870   6.779   9.057 -0.2918 -1.7695 -0.8046
 4457TIP3    H237567   1.809   6.858   8.943  0.4442  1.2091  0.7725
 4458TIP3   OH237568   5.956   2.076   0.264 -0.2306  0.7316 -0.2136
 4458TIP3    H137569   5.963   2.011   0.194 -0.6236  1.0314 -0.5423
 4458TIP3    H237570   6.017   2.047   0.331 -1.7865 -1.0313  0.5062
 4459TIP3   OH237571   6.053   6.731   7.503  0.2413 -0.2481  0.4755
 4459TIP3    H137572   6.047   6.635   7.512 -1.7281 -0.2305 -0.1556
 4459TIP3    H237573   6.098   6.744   7.420 -0.4434 -0.6681  0.0236
 4460TIP3   OH237574   0.538   0.159   9.791 -0.2753  0.2858 -0.0142
 4460TIP3    H137575   0.475   0.107   9.841 -0.5920  0.2308 -0.4579
 4460TIP3    H237576   0.484   0.212   9.732  0.1021 -0.7561 -1.3674
 4461TIP3   OH237577   1.659   5.357   2.544  0.3509 -0.2268  0.1842
 4461TIP3    H137578   1.575   5.336   2.585  0.0992  1.8104  0.8262
 4461TIP3    H237579   1.715   5.281   2.564 -1.1194 -1.3230  0.3092
 4462TIP3   OH237580   3.583   1.127   9.589 -0.2707 -0.0455  0.1378
 4462TIP3    H137581   3.492   1.110   9.612 -0.0475  0.0036  1.1377
 4462TIP3    H237582   3.606   1.205   9.640  0.6657 -0.7588  0.8443
 4463TIP3   OH237583   7.226   0.903   1.216 -0.6695  0.5621  0.2356
 4463TIP3    H137584   7.286   0.926   1.288  0.6999 -0.4914 -0.5098
 4463TIP3    H237585   7.147   0.871   1.260  1.2862 -3.1951  1.4783
 4464TIP3   OH237586   0.090   4.037   1.692 -0.2401  0.0928  0.7719
 4464TIP3    H137587   0.155   4.036   1.762  0.9594 -0.8329 -0.3032
 4464TIP3    H237588   0.027   4.104   1.718  2.2732  2.6226  0.8591
 4465TIP3   OH237589   0.941   6.776   1.185 -0.0841 -0.2059 -0.0948
 4465TIP3    H137590   0.868   6.837   1.174 -1.3190 -1.1000  2.2836
 4465TIP3    H237591   0.987   6.808   1.263 -0.7026 -2.1774  1.1433
 4466TIP3   OH237592   6.123   7.101   1.683  0.1657 -0.3269  0.4206
 4466TIP3    H137593   6.040   7.054   1.692  0.2528 -0.2419  1.9303
 4466TIP3    H237594   6.176   7.045   1.627  0.0742 -1.8121  1.7268
 4467TIP3   OH237595   5.310   0.813   8.265  0.9759  0.2088  0.1082
 4467TIP3    H137596   5.329   0.828   8.173 -0.1829 -1.1226 -0.3907
 4467TIP3    H237597   5.284   0.721   8.269  1.3439  0.1422  1.8330
 4468TIP3   OH237598   1.835   4.738   2.812 -0.4722  0.1578  0.5513
 4468TIP3    H137599   1.920   4.763   2.851  0.3257  0.1984 -1.1333
 4468TIP3    H237600   1.840   4.643   2.803 -0.4252  0.2062  0.0572
 4469TIP3   OH237601   2.941   3.741   8.932  0.5507  0.5163 -0.2142
 4469TIP3    H137602   2.941   3.655   8.890  0.3690  0.0651  0.6759
 4469TIP3    H237603   3.013   3.789   8.890 -0.7730  0.7535 -2.3235
 4470TIP3   OH237604   2.217   1.534   9.600 -0.4149 -0.3324 -0.3960
 4470TIP3    H137605   2.168   1.453   9.586  0.2391 -0.7116 -0.5018
 4470TIP3    H237606   2.151   1.597   9.630 -1.1826 -0.5011 -1.6654
 4471TIP3   OH237607   1.767   0.137   0.883  0.2213  0.4540 -0.1951
 4471TIP3    H137608   1.711   0.164   0.810 -1.1258  1.0402  0.9993
 4471TIP3    H237609   1.713   0.077   0.934  1.7801 -1.4032 -0.6020
 4472TIP3   OH237610   4.821   7.150   8.644 -0.1574 -0.6549  0.3944
 4472TIP3    H137611   4.848   7.234   8.607 -3.5032  1.1488  1.6725
 4472TIP3    H237612   4.804   7.094   8.568  1.1818  0.0989 -0.4991
 4473TIP3   OH237613   2.767   3.450   7.599  0.5069 -0.0922  0.2364
 4473TIP3    H137614   2.705   3.511   7.560 -0.3849 -0.3339  1.2516
 4473TIP3    H237615   2.848   3.500   7.606  0.4993  0.1816 -1.2351
 4474TIP3   OH237616   1.146   0.985   7.466 -0.1477 -0.4893  0.3295
 4474TIP3    H137617   1.128   1.010   7.557 -1.5192 -0.1225 -0.0251
 4474TIP3    H237618   1.125   1.064   7.415  1.9621 -0.2091 -0.2087
 4475TIP3   OH237619   2.885   6.926   1.401  0.1359  0.3812 -0.2690
 4475TIP3    H137620   2.858   7.018   1.411 -1.4075 -0.1546  1.0046
 4475TIP3    H237621   2.962   6.930   1.344 -0.1952  2.4151 -0.6799
 4476TIP3   OH237622   1.108   3.464   7.048  0.2429  0.4460  0.2425
 4476TIP3    H137623   1.168   3.408   6.999 -1.6669 -0.9958 -0.5619
 4476TIP3    H237624   1.165   3.531   7.087  2.1660  0.0033 -1.6140
 4477TIP3   OH237625   4.291   1.180   1.913  0.6735  0.2756 -0.2308
 4477TIP3    H137626   4.253   1.249   1.859 -0.1577 -1.2347 -1.6624
 4477TIP3    H237627   4.216   1.136   1.954  1.2244  0.5729  1.1603
 4478TIP3   OH237628   2.854   5.381   2.279 -0.3113 -0.3299  0.3660
 4478TIP3    H137629   2.814   5.353   2.361  0.4996 -0.4294  0.7412
 4478TIP3    H237630   2.781   5.392   2.218 -0.8383 -1.1222  0.8453
 4479TIP3   OH237631   1.507   6.316   9.255  0.1958  0.0107 -0.1672
 4479TIP3    H137632   1.466   6.234   9.282 -0.0187  0.4299  0.8402
 4479TIP3    H237633   1.465   6.339   9.173  1.7164 -1.9427 -1.5882
 4480TIP3   OH237634   4.650   3.711   0.298  0.0405 -0.0830 -0.4879
 4480TIP3    H137635   4.663   3.633   0.244 -0.7326  0.4313 -1.4417
 4480TIP3    H237636   4.692   3.782   0.249 -1.8134  0.6367 -1.1039
 4481TIP3   OH237637   4.539   0.625   7.860 -0.3023 -0.1465  0.3132
 4481TIP3    H137638   4.477   0.588   7.799 -0.1435  1.5343 -0.9376
 4481TIP3    H237639   4.563   0.552   7.918  0.1252 -2.0022 -2.0708
 4482TIP3   OH237640   1.619   0.173   1.849 -0.1265  0.3587 -0.5885
 4482TIP3    H137641   1.604   0.254   1.800 -1.4626 -1.3539 -3.2807
 4482TIP3    H237642   1.537   0.124   1.838  0.5835 -1.3112  1.0934
 4483TIP3   OH237643   0.932   5.940   9.153 -0.2917  0.1494 -0.3742
 4483TIP3    H137644   0.936   6.011   9.216  0.7736 -0.5465  0.3808
 4483TIP3    H237645   0.879   5.873   9.195  0.5572 -0.3840 -0.1188
 4484TIP3   OH237646   1.565   1.392   8.970 -0.1861 -0.4488  0.3851
 4484TIP3    H137647   1.563   1.456   9.041 -0.8709 -0.5533  0.4668
 4484TIP3    H237648   1.658   1.386   8.946 -0.1476  0.9029  0.0820
 4485TIP3   OH237649   3.638   2.445   1.194 -0.4629 -0.1565 -0.3568
 4485TIP3    H137650   3.618   2.537   1.174 -1.5114 -0.3110 -0.0554
 4485TIP3    H237651   3.678   2.412   1.113  2.9269  1.3747  0.5252
 4486TIP3   OH237652   7.148   1.110   9.877  0.5163  0.1863  0.1900
 4486TIP3    H137653   7.159   1.180   9.942 -1.3205  1.1137 -0.4009
 4486TIP3    H237654   7.128   1.033   9.929  0.2828  0.6387  0.7905
 4487TIP3   OH237655   1.346   4.650   0.319  0.4253 -0.0241 -0.7573
 4487TIP3    H137656   1.320   4.565   0.355  1.0782  0.0783 -0.0266
 4487TIP3    H237657   1.435   4.663   0.351  1.1277 -0.0256 -2.5997
 4488TIP3   OH237658   5.205   6.377   8.142  0.1473 -0.4314 -0.0086
 4488TIP3    H137659   5.120   6.340   8.120 -1.1276  1.7630  0.8764
 4488TIP3    H237660   5.211   6.371   8.237  0.5855  0.1962  0.0108
 4489TIP3   OH237661   2.704   6.746   1.223 -0.1213 -0.6734 -0.0793
 4489TIP3    H137662   2.740   6.792   1.299  0.0437  1.8089 -1.5222
 4489TIP3    H237663   2.616   6.721   1.249  0.3990 -1.1076  1.3646
 4490TIP3   OH237664   5.373   2.822   7.541 -0.1682 -0.0980  0.1402
 4490TIP3    H137665   5.343   2.831   7.451  0.7298  2.5302  0.0066
 4490TIP3    H237666   5.327   2.891   7.589 -0.0098 -0.9203  1.5361
 4491TIP3   OH237667   3.444   0.272   0.554  0.5459  0.0439  0.0134
 4491TIP3    H137668   3.537   0.291   0.547  0.1204  2.5153  0.2848
 4491TIP3    H237669   3.402   0.334   0.493 -0.9356 -0.9984 -0.0865
 4492TIP3   OH237670   1.589   6.747   7.753 -0.5830  0.2340  0.7635
 4492TIP3    H137671   1.625   6.775   7.669 -0.7162 -1.3745  0.1474
 4492TIP3    H237672   1.539   6.823   7.783 -0.2980  0.9407 -0.4644
 4493TIP3   OH237673   5.203   2.304   9.080 -0.0346  0.5900 -0.5406
 4493TIP3    H137674   5.193   2.317   8.986 -2.7138  0.6142 -0.3208
 4493TIP3    H237675   5.158   2.221   9.098 -0.0727  0.8694  0.7945
 4494TIP3   OH237676   7.111   6.758   1.112 -0.1696  0.0990  0.1760
 4494TIP3    H137677   7.156   6.755   1.028  1.3210  1.5242  0.8862
 4494TIP3    H237678   7.034   6.814   1.096  1.1246  1.9702  0.1587
 4495TIP3   OH237679   1.831   6.865   8.318  0.5288  0.0992  0.2963
 4495TIP3    H137680   1.855   6.862   8.225  2.5486  1.9677  0.6729
 4495TIP3    H237681   1.739   6.893   8.318  1.1933  2.5171 -1.1462
 4496TIP3   OH237682   5.817   2.856   9.801 -0.1099 -0.3006 -0.5246
 4496TIP3    H137683   5.739   2.911   9.808 -1.1919 -1.5976 -1.5686
 4496TIP3    H237684   5.827   2.818   9.888  0.5506  1.3605  0.1582
 4497TIP3   OH237685   0.290   5.221   0.451  0.3454 -0.1252 -0.0984
 4497TIP3    H137686   0.361   5.267   0.495 -1.1371  1.2393  0.9851
 4497TIP3    H237687   0.266   5.278   0.379 -0.2927 -0.0841  0.1416
 4498TIP3   OH237688   1.982   0.792   0.305 -0.1129 -0.1600 -0.2745
 4498TIP3    H137689   2.073   0.812   0.328 -1.0590  0.9061  3.2029
 4498TIP3    H237690   1.942   0.878   0.293 -0.9288 -0.5777 -0.5802
 4499TIP3   OH237691   4.052   4.790   1.916  0.1812  0.4940  0.3501
 4499TIP3    H137692   4.074   4.791   2.009 -0.1276  1.3225  0.4210
 4499TIP3    H237693   4.069   4.879   1.886 -0.8039  0.5302 -0.1326
 4500TIP3   OH237694   2.035   2.750   9.017  0.2391  0.1000 -0.3868
 4500TIP3    H137695   1.957   2.754   8.962 -0.3558  0.8836  0.4814
 4500TIP3    H237696   2.008   2.790   9.100  1.0944 -1.0732  0.5028
 4501TIP3   OH237697   4.120   5.909   8.992 -0.1090 -0.2234  0.0680
 4501TIP3    H137698   4.188   5.875   8.934 -0.5475  0.7635 -1.0732
 4501TIP3    H237699   4.070   5.832   9.019 -0.3771 -0.6425 -1.5258
 4502TIP3   OH237700   3.163   4.012   2.206 -0.1117  0.7529  0.3008
 4502TIP3    H137701   3.233   4.068   2.172 -0.7286  0.6551 -1.1886
 4502TIP3    H237702   3.090   4.071   2.223 -0.1333  0.6603  0.5410
 4503TIP3   OH237703   0.081   4.126   2.699 -0.1619  0.0319  0.2932
 4503TIP3    H137704   0.102   4.183   2.772  0.1796 -0.8656  0.9115
 4503TIP3    H237705   0.166   4.100   2.664 -0.2877 -0.8632  0.6350
 4504TIP3   OH237706   7.191   6.238   7.975 -0.1599  0.1018 -0.1917
 4504TIP3    H137707   7.240   6.159   8.000 -1.1030 -0.4368 -0.0027
 4504TIP3    H237708   7.099   6.212   7.980 -0.5438  1.5235  0.9030
 4505TIP3   OH237709   0.093   5.487   8.301 -0.3910 -0.4936  0.1496
 4505TIP3    H137710   0.066   5.403   8.262  2.9000 -1.2656 -0.7792
 4505TIP3    H237711   0.117   5.541   8.226 -1.6993  1.0615  0.7952
 4506TIP3   OH237712   3.051   3.591   7.664 -0.4288  0.5530  0.0657
 4506TIP3    H137713   3.047   3.518   7.727 -1.3071  0.9218  0.4423
 4506TIP3    H237714   3.138   3.582   7.624  0.1142  0.2543  1.2608
 4507TIP3   OH237715   0.010   5.792   1.003 -0.4800  0.2465  0.8290
 4507TIP3    H137716   0.043   5.788   1.093 -1.2634 -0.3457  1.1009
 4507TIP3    H237717   0.032   5.880   0.973  2.4489 -0.4711  0.5484
 4508TIP3   OH237718   3.720   0.949   0.754 -0.1235  0.2950  0.2555
 4508TIP3    H137719   3.718   0.971   0.847 -1.3287 -0.7004  0.4900
 4508TIP3    H237720   3.802   0.901   0.743  0.4036  1.0903  0.6252
 4509TIP3   OH237721   5.257   3.913   7.410 -1.0410  0.7277  0.4751
 4509TIP3    H137722   5.161   3.912   7.407 -1.0273  0.8497 -0.0538
 4509TIP3    H237723   5.280   3.998   7.446 -1.1412  0.4035  1.3499
 4510TIP3   OH237724   6.821   1.612   8.809 -0.2056 -0.2670  0.7517
 4510TIP3    H137725   6.788   1.533   8.851  0.6438 -0.2378  1.5009
 4510TIP3    H237726   6.804   1.600   8.716 -1.2335 -0.7668  0.9957
 4511TIP3   OH237727   2.840   7.100   2.594  0.3439  0.2608  0.2142
 4511TIP3    H137728   2.833   7.146   2.678 -1.6797 -0.7544  0.6597
 4511TIP3    H237729   2.756   7.056   2.584  0.4635  0.5139 -2.4665
 4512TIP3   OH237730   0.842   4.354   0.140  0.0737 -0.2129 -0.0395
 4512TIP3    H137731   0.913   4.416   0.125  0.6129 -0.6629  0.6151
 4512TIP3    H237732   0.885   4.274   0.172 -0.6437 -0.7883 -0.4598
 4513TIP3   OH237733   4.669   2.395   7.125 -0.7392  0.1921 -0.4361
 4513TIP3    H137734   4.705   2.400   7.213 -0.2353 -1.6047 -0.4993
 4513TIP3    H237735   4.608   2.469   7.119  1.3468  2.0682  0.3926
 4514TIP3   OH237736   1.000   6.831   7.872 -0.6025  0.5029 -0.0656
 4514TIP3    H137737   1.009   6.890   7.947  0.7737 -1.6100  1.5640
 4514TIP3    H237738   0.932   6.769   7.898 -0.3560 -0.0406 -0.6792
 4515TIP3   OH237739   2.155   3.370   7.535 -0.1923  0.2134 -0.2959
 4515TIP3    H137740   2.250   3.368   7.525 -0.2037  0.6189 -0.4926
 4515TIP3    H237741   2.122   3.414   7.456 -0.5971 -0.5459 -0.5600
 4516TIP3   OH237742   0.586   0.254   1.025  0.0199 -0.2787 -0.0826
 4516TIP3    H137743   0.669   0.290   0.993  0.4451 -1.4076 -0.2938
 4516TIP3    H237744   0.561   0.189   0.960  0.1804 -1.6121  1.1419
 4517TIP3   OH237745   0.264   6.584   0.557  0.1175 -0.0445  0.0759
 4517TIP3    H137746   0.356   6.570   0.575  0.1350  1.3725  1.3635
 4517TIP3    H237747   0.261   6.610   0.464  1.1141  0.6117  0.2104
 4518TIP3   OH237748   7.255   5.923   8.995  0.0349 -0.2536  0.2832
 4518TIP3    H137749   7.209   5.849   9.033 -0.8346 -0.0068 -0.2565
 4518TIP3    H237750   7.331   5.936   9.052 -0.0411 -1.2715  0.6317
 4519TIP3   OH237751   6.880   2.030   1.843  0.0033 -0.6198 -0.4075
 4519TIP3    H137752   6.834   2.004   1.764  0.0999  1.5642 -1.2584
 4519TIP3    H237753   6.827   1.995   1.914 -1.9510  0.1350 -1.3952
 4520TIP3   OH237754   6.099   0.265   9.989 -0.1597 -0.5730 -0.8047
 4520TIP3    H137755   6.125   0.326   9.920  0.5519  2.8384  2.1531
 4520TIP3    H237756   6.179   0.216  10.009  0.2262 -0.0401 -1.0091
 4521TIP3   OH237757   7.317   1.687   2.604  0.5114 -0.4221  0.1066
 4521TIP3    H137758   7.299   1.594   2.592  0.6828 -0.5009  0.4524
 4521TIP3    H237759   7.232   1.724   2.631  0.3086 -0.3762 -0.5783
 4522TIP3   OH237760   1.055   7.267   9.368  0.1945 -0.6904  0.6974
 4522TIP3    H137761   1.061   7.200   9.437 -0.7724 -1.5522 -0.0176
 4522TIP3    H237762   1.144   7.300   9.359  0.1404  0.4655  3.3087
 4523TIP3   OH237763   5.374   0.119   9.744 -0.1113  0.4937  0.1127
 4523TIP3    H137764   5.389   0.040   9.796  1.7158  0.6575 -0.0755
 4523TIP3    H237765   5.404   0.191   9.799  2.0054  0.6569 -1.1136
 4524TIP3   OH237766   0.551   4.143   0.370  0.8154  0.1498 -0.3048
 4524TIP3    H137767   0.552   4.235   0.399 -0.2013 -0.1197  0.6573
 4524TIP3    H237768   0.634   4.107   0.402 -0.8041 -0.5022  3.7414
 4525TIP3   OH237769   6.489   2.572   8.002 -0.1521  0.6516 -0.0603
 4525TIP3    H137770   6.502   2.477   8.000  0.8275  0.7822 -0.4708
 4525TIP3    H237771   6.439   2.591   7.923  1.0806  0.6593 -0.8615
 4526TIP3   OH237772   7.118   1.362   0.930  0.0136 -0.5751 -0.2721
 4526TIP3    H137773   7.095   1.360   1.022  0.2824  0.6451 -0.1608
 4526TIP3    H237774   7.039   1.332   0.885 -0.5390  0.0153  0.2893
 4527TIP3   OH237775   3.958   6.521   0.392  0.0355 -0.0347 -0.1807
 4527TIP3    H137776   4.014   6.551   0.464 -0.2332  1.6889 -0.6475
 4527TIP3    H237777   3.884   6.582   0.392  0.2649  0.3170 -2.1934
 4528TIP3   OH237778   4.978   1.072   9.597 -0.1460  0.0584 -0.2451
 4528TIP3    H137779   5.073   1.084   9.597 -0.3774  2.5888 -1.5779
 4528TIP3    H237780   4.950   1.110   9.680 -0.0414 -0.4868  0.0478
 4529TIP3   OH237781   5.701   1.190   0.223  0.2806  0.3833 -0.2252
 4529TIP3    H137782   5.692   1.284   0.204 -2.5445 -0.0269 -1.4814
 4529TIP3    H237783   5.687   1.147   0.139 -0.6111 -1.2035  0.6796
 4530TIP3   OH237784   5.718   0.023   9.619  0.3441 -0.1860 -0.0632
 4530TIP3    H137785   5.773  -0.027   9.679  0.9377  0.2525 -0.2384
 4530TIP3    H237786   5.677   0.090   9.675 -0.7643 -1.0913  0.2508
 4531TIP3   OH237787   5.977   3.317   1.105 -0.2312 -0.5054  0.1537
 4531TIP3    H137788   5.914   3.307   1.176 -2.4471  1.1142 -1.4250
 4531TIP3    H237789   6.040   3.382   1.137 -0.4600 -0.7401  1.0885
 4532TIP3   OH237790   3.014   6.064   7.297  0.1403  0.0673  0.2480
 4532TIP3    H137791   2.964   6.141   7.322  1.0447  0.3920  1.1105
 4532TIP3    H237792   3.023   6.014   7.378  0.4128 -0.4530 -0.0950
 4533TIP3   OH237793   6.988   1.680   8.181 -0.0279 -0.3918  0.0522
 4533TIP3    H137794   7.057   1.644   8.236 -0.4962 -0.2045  0.7922
 4533TIP3    H237795   6.973   1.615   8.113  1.7746  0.1431 -0.9131
 4534TIP3   OH237796   4.731   6.976   8.877  0.0929  0.0335 -0.2005
 4534TIP3    H137797   4.761   7.030   8.803 -0.4459 -1.0041 -1.2134
 4534TIP3    H237798   4.768   6.890   8.860 -0.5677 -0.3775  0.4067
 4535TIP3   OH237799   0.916   3.666   2.472 -0.0192 -0.1999  0.6662
 4535TIP3    H137800   0.909   3.588   2.526 -2.4083 -1.1043 -0.7952
 4535TIP3    H237801   0.911   3.634   2.382  1.5062  1.4540 -0.0813
 4536TIP3   OH237802   0.259   5.887   8.857 -0.2594 -0.0130 -0.4410
 4536TIP3    H137803   0.237   5.832   8.933  0.6936 -0.9886 -0.8445
 4536TIP3    H237804   0.179   5.891   8.806 -0.1893 -1.5646 -0.7141
 4537TIP3   OH237805   2.532   0.965   2.700 -0.1559 -0.0723 -0.0659
 4537TIP3    H137806   2.574   1.047   2.673  2.9374 -1.0371  1.3410
 4537TIP3    H237807   2.514   0.919   2.618  0.3374  0.9819 -0.7845
 4538TIP3   OH237808   1.362   6.772   7.058  0.3814  0.2427 -0.0416
 4538TIP3    H137809   1.284   6.827   7.052 -0.0527 -0.4550 -1.2652
 4538TIP3    H237810   1.382   6.751   6.967  2.3495  0.8761  0.1942
 4539TIP3   OH237811   6.997   6.998   1.558 -0.2849 -0.2291  0.0481
 4539TIP3    H137812   7.045   6.948   1.492 -2.5362 -3.7490  0.8018
 4539TIP3    H237813   7.060   7.011   1.629  0.5277 -1.6061 -0.3999
 4540TIP3   OH237814   6.212   0.885   1.164 -0.0390  0.3505  0.0896
 4540TIP3    H137815   6.118   0.896   1.148 -0.0918  0.9048  0.7250
 4540TIP3    H237816   6.247   0.854   1.080 -0.6329  1.0854 -0.4475
 4541TIP3   OH237817   1.151   1.775   9.117  0.1583  0.8890 -0.0278
 4541TIP3    H137818   1.123   1.706   9.177  2.4288 -2.1755 -2.1972
 4541TIP3    H237819   1.086   1.773   9.047  0.2847  0.8882 -0.1446
 4542TIP3   OH237820   6.977   7.459   7.086 -0.6670  0.3504 -0.1046
 4542TIP3    H137821   7.038   7.532   7.096  1.3096 -1.1759 -0.5453
 4542TIP3    H237822   6.898   7.488   7.132 -0.3900  3.1964 -1.1804
 4543TIP3   OH237823   2.795   0.436   8.904  0.0173 -0.1972  0.1535
 4543TIP3    H137824   2.808   0.517   8.953  0.5646 -0.5566  0.6155
 4543TIP3    H237825   2.884   0.405   8.885 -0.1861 -0.2115 -0.8200
 4544TIP3   OH237826   3.345   7.451   0.519  0.1227 -0.6707 -0.3136
 4544TIP3    H137827   3.388   7.534   0.499 -3.0526  0.6577 -2.4408
 4544TIP3    H237828   3.380   7.390   0.455  0.2188 -0.1360 -0.7790
 4545TIP3   OH237829   5.719   2.026   1.580  0.4535 -0.1542 -0.2355
 4545TIP3    H137830   5.675   2.058   1.501 -1.6215 -0.7995  0.5947
 4545TIP3    H237831   5.791   2.088   1.594 -0.4677  1.2428 -1.3916
 4546TIP3   OH237832   4.686   5.190   9.377 -0.5028  0.1165  0.3321
 4546TIP3    H137833   4.617   5.251   9.350 -0.0822  0.4875  0.0874
 4546TIP3    H237834   4.640   5.124   9.430 -0.7854  1.3481  1.7000
 4547TIP3   OH237835   0.482   1.250   0.892 -0.7095  0.1366  0.0909
 4547TIP3    H137836   0.461   1.157   0.884 -0.0135 -0.0813  0.6640
 4547TIP3    H237837   0.407   1.288   0.938 -1.4320  0.0491 -0.9838
 4548TIP3   OH237838   3.110   2.655   7.549 -0.6918 -0.3871 -0.3933
 4548TIP3    H137839   3.063   2.640   7.467  1.0937 -1.9045 -1.2030
 4548TIP3    H237840   3.116   2.569   7.590  2.1128 -0.4965 -0.7954
 4549TIP3   OH237841   6.963   2.232   7.821 -1.0274  0.2597 -0.3098
 4549TIP3    H137842   6.974   2.146   7.860 -0.7566  0.5250  0.2174
 4549TIP3    H237843   7.050   2.256   7.790 -1.1592  0.2269 -0.7204
 4550TIP3   OH237844   2.371   7.434   1.238 -0.7067  0.0878  0.0487
 4550TIP3    H137845   2.380   7.339   1.243 -0.9988  0.0371 -0.3694
 4550TIP3    H237846   2.380   7.463   1.329  2.0213 -0.0828 -0.0840
 4551TIP3   OH237847   1.201   3.608   0.546 -0.4585  0.3926 -0.4732
 4551TIP3    H137848   1.227   3.639   0.460  1.8780  0.8718  0.3343
 4551TIP3    H237849   1.235   3.673   0.607 -0.2385 -0.9710  0.9336
 4552TIP3   OH237850   4.086   5.670   1.978  0.5249  0.4287 -0.0135
 4552TIP3    H137851   4.179   5.668   1.956  1.2395  4.5668  1.7882
 4552TIP3    H237852   4.082   5.634   2.066  0.2256 -0.5040 -0.3918
 4553TIP3   OH237853   0.748   1.520   8.316 -0.1008  0.6137  0.7155
 4553TIP3    H137854   0.703   1.600   8.289 -0.8354 -0.0011  0.0646
 4553TIP3    H237855   0.749   1.466   8.237  0.0320 -0.1830  1.2568
 4554TIP3   OH237856   0.862   3.648   8.475  0.2746  0.4305  0.0819
 4554TIP3    H137857   0.830   3.590   8.543 -0.5229 -1.4525 -1.7782
 4554TIP3    H237858   0.955   3.625   8.466  0.3160  0.4912  0.3572
 4555TIP3   OH237859   5.162   2.918   0.719  0.1242  0.2150  0.7917
 4555TIP3    H137860   5.105   2.973   0.772  0.9998 -0.1795  2.2110
 4555TIP3    H237861   5.200   2.856   0.781  2.8969  1.1026  0.1574
 4556TIP3   OH237862   0.020   6.461   8.840  0.0573  0.2120 -0.3580
 4556TIP3    H137863   0.045   6.448   8.748 -1.8137 -1.2774 -0.7194
 4556TIP3    H237864   0.068   6.394   8.888 -0.2590 -0.1219 -0.5027
 4557TIP3   OH237865   4.296   6.529   2.376  0.1883  0.5576  0.2167
 4557TIP3    H137866   4.389   6.514   2.393  0.2663  0.3038 -0.4119
 4557TIP3    H237867   4.259   6.549   2.462  0.6588 -0.2394  0.6162
 4558TIP3   OH237868   4.006   2.404   0.170 -0.4705  0.2868 -0.1496
 4558TIP3    H137869   3.959   2.400   0.087 -1.2691 -0.9709  0.3296
 4558TIP3    H237870   4.084   2.350   0.157  0.6031  1.9565 -0.7839
 4559TIP3   OH237871   1.927   6.277   9.939  1.0906 -0.2076 -0.0385
 4559TIP3    H137872   2.000   6.257   9.880 -0.3067 -0.3528 -1.7979
 4559TIP3    H237873   1.918   6.372   9.935  0.9089 -0.2305 -0.1630
 4560TIP3   OH237874   6.971   7.307   9.264  0.3326  0.6611  0.2984
 4560TIP3    H137875   7.052   7.257   9.269 -0.4658 -0.5651  2.1125
 4560TIP3    H237876   6.979   7.374   9.333  0.5036  1.6710 -0.6807
 4561TIP3   OH237877   4.040   4.215   1.146  0.4211  0.5068  0.7320
 4561TIP3    H137878   3.968   4.243   1.089  1.5950  3.2087  0.3806
 4561TIP3    H237879   4.083   4.144   1.098 -0.8415  0.1881  0.0370
 4562TIP3   OH237880   6.366   6.500   1.001  0.0470  0.4490 -0.0928
 4562TIP3    H137881   6.317   6.497   1.083  0.2710 -1.0281 -0.0006
 4562TIP3    H237882   6.302   6.474   0.934  0.2773  0.1139 -0.1818
 4563TIP3   OH237883   1.044   6.469   6.931 -0.9918  0.1370  0.0893
 4563TIP3    H137884   1.037   6.378   6.958  1.5428 -0.1862 -0.0489
 4563TIP3    H237885   1.027   6.520   7.010 -3.3123 -0.3562 -0.0302
 4564TIP3   OH237886   7.008   0.796   8.340  0.1395 -0.0266 -0.0586
 4564TIP3    H137887   7.050   0.757   8.263 -0.0077 -0.4885  0.0930
 4564TIP3    H237888   7.049   0.883   8.347  1.3101 -0.5790  0.2631
 4565TIP3   OH237889   4.555   6.373   9.756  0.1883 -0.4288 -0.2488
 4565TIP3    H137890   4.461   6.370   9.776  0.1152  1.8011  0.0488
 4565TIP3    H237891   4.562   6.330   9.671 -0.8202 -2.1478  0.4728
 4566TIP3   OH237892   2.908   0.312   2.448  0.1926 -0.0021  0.1165
 4566TIP3    H137893   2.916   0.390   2.394 -1.4133 -0.8440 -1.4285
 4566TIP3    H237894   2.814   0.299   2.459  0.4380 -1.2878  0.9990
 4567TIP3   OH237895   5.560   3.932   1.513  0.2504 -0.7678 -0.5932
 4567TIP3    H137896   5.591   3.950   1.424  0.2253  0.0465 -0.4461
 4567TIP3    H237897   5.472   3.896   1.501  0.2617 -0.6935 -0.9025
 4568TIP3   OH237898   1.861   6.652   0.920  0.6414  0.0674 -0.7573
 4568TIP3    H137899   1.845   6.649   0.825 -0.8031 -0.5042 -0.5326
 4568TIP3    H237900   1.885   6.562   0.942  0.3515  0.0511 -0.4995
 4569TIP3   OH237901   4.344   5.692   7.960 -0.1802 -0.0357  0.7214
 4569TIP3    H137902   4.354   5.710   7.866  0.3632 -0.6768  0.6468
 4569TIP3    H237903   4.299   5.769   7.994 -0.1606  0.3199 -0.0235
 4570TIP3   OH237904   1.766   4.242   0.522 -0.1553  0.3326  0.0315
 4570TIP3    H137905   1.749   4.306   0.591 -0.9244 -0.1886  0.3385
 4570TIP3    H237906   1.860   4.225   0.526  0.0588  1.4280 -0.0469
 4571TIP3   OH237907   0.816   1.456   0.371 -0.1240  0.6217  0.1763
 4571TIP3    H137908   0.830   1.366   0.342  1.2806  0.4010  1.4414
 4571TIP3    H237909   0.736   1.452   0.423 -0.0474  0.0934  0.2616
 4572TIP3   OH237910   5.229   1.064   0.010 -0.4119  0.7441 -0.2551
 4572TIP3    H137911   5.248   1.124   0.082  0.2586  0.9379 -0.5863
 4572TIP3    H237912   5.211   1.121  -0.065  1.2661  0.5528 -0.8385
 4573TIP3   OH237913   2.890   5.475   8.609  0.2783  0.5787  0.5911
 4573TIP3    H137914   2.880   5.465   8.514 -2.2861 -2.1423  0.9993
 4573TIP3    H237915   2.824   5.540   8.634 -0.9880 -0.7151  0.7442
 4574TIP3   OH237916   6.116   0.931   7.743 -0.1864  1.0871  0.4054
 4574TIP3    H137917   6.062   0.869   7.791 -0.2705  0.5848 -0.3225
 4574TIP3    H237918   6.054   0.976   7.684  0.0360  1.1635  0.2277
 4575TIP3   OH237919   7.055   6.041   8.577  0.3509  0.3371  0.2343
 4575TIP3    H137920   6.995   5.992   8.521  1.1783 -0.5609  0.1105
 4575TIP3    H237921   7.044   6.003   8.664 -0.3688  1.2113  0.5379
 4576TIP3   OH237922   3.164   7.422   7.648  0.5729  0.1711  0.0348
 4576TIP3    H137923   3.101   7.413   7.719 -0.8952 -2.4346 -1.4422
 4576TIP3    H237924   3.117   7.470   7.580  1.1415  0.5464 -0.1048
 4577TIP3   OH237925   0.645   2.116   8.808 -0.5937  0.3800 -0.0546
 4577TIP3    H137926   0.643   2.020   8.811 -2.1408  0.4021  1.0143
 4577TIP3    H237927   0.665   2.142   8.898 -0.8257  1.0488 -0.1923
 4578TIP3   OH237928   3.072   4.247   9.236 -0.0853  0.1041  0.9072
 4578TIP3    H137929   3.061   4.152   9.225 -0.6267  0.1563  0.9980
 4578TIP3    H237930   3.086   4.279   9.147 -0.1059 -0.0341  0.8523
 4579TIP3   OH237931   6.607   3.081   1.283 -0.3634  0.3606 -0.0812
 4579TIP3    H137932   6.563   3.137   1.347 -1.0123 -1.4878  1.1603
 4579TIP3    H237933   6.536   3.037   1.237  0.1306 -0.4143 -0.1196
 4580TIP3   OH237934   3.059   6.809   9.696  0.0484 -0.1401 -0.4281
 4580TIP3    H137935   2.966   6.814   9.719  0.6003  0.8070  1.9936
 4580TIP3    H237936   3.064   6.744   9.627 -2.4392 -0.0384 -0.7890
 4581TIP3   OH237937   1.668   4.102   8.303 -0.1085 -0.6472  0.4215
 4581TIP3    H137938   1.664   4.010   8.327 -0.1141 -1.2253 -1.6115
 4581TIP3    H237939   1.578   4.133   8.310 -0.0724 -0.7276  1.3024
 4582TIP3   OH237940   3.372   0.540   1.380  0.2476 -0.5667 -0.2146
 4582TIP3    H137941   3.322   0.600   1.436  1.0997 -0.8639  0.9072
 4582TIP3    H237942   3.389   0.464   1.436  0.9327 -0.9737 -0.9545
 4583TIP3   OH237943   6.360   6.639   8.424  0.2822  0.1182  0.2721
 4583TIP3    H137944   6.282   6.663   8.475  0.2019  2.1449 -0.7049
 4583TIP3    H237945   6.326   6.619   8.336  0.8191  0.8699 -0.1220
 4584TIP3   OH237946   6.516   6.792   0.778  0.0805  0.3678  0.1745
 4584TIP3    H137947   6.593   6.833   0.738  0.9906 -0.9011  0.5758
 4584TIP3    H237948   6.445   6.855   0.761  0.8910  0.9324 -1.4265
 4585TIP3   OH237949   0.153   2.731   2.682  0.0231 -0.4023 -0.2140
 4585TIP3    H137950   0.157   2.823   2.709  0.0151 -0.6959  0.8078
 4585TIP3    H237951   0.105   2.687   2.752  2.0861 -1.6111  0.5384
 4586TIP3   OH237952   7.065   6.527   8.028 -0.2035 -0.3577 -0.7084
 4586TIP3    H137953   7.038   6.495   8.114  0.9322 -0.8289 -0.5059
 4586TIP3    H237954   7.045   6.620   8.029 -0.1234 -0.3416  0.1086
 4587TIP3   OH237955   3.151   7.114   0.465 -0.8630  0.2240 -0.4168
 4587TIP3    H137956   3.099   7.062   0.403  1.7014 -1.2704 -1.4528
 4587TIP3    H237957   3.088   7.176   0.503 -3.0909 -0.5909 -2.5286
 4588TIP3   OH237958   6.336   5.201   0.356 -0.3387 -0.6987  0.4036
 4588TIP3    H137959   6.281   5.275   0.382 -0.5556 -0.5090 -0.5649
 4588TIP3    H237960   6.290   5.161   0.283  0.9452 -0.3456 -0.6413
 4589TIP3   OH237961   2.234   0.045   8.803 -0.5146  0.0127  0.5395
 4589TIP3    H137962   2.144   0.042   8.772  0.1829 -0.8287 -1.5809
 4589TIP3    H237963   2.254  -0.045   8.829  0.2627 -0.2189 -0.7870
 4590TIP3   OH237964   2.705   1.107   1.771 -0.3052 -0.2183 -0.2296
 4590TIP3    H137965   2.702   1.122   1.677 -0.6091 -0.4073 -0.2537
 4590TIP3    H237966   2.778   1.160   1.802 -0.4635  0.1723 -0.5122
 4591TIP3   OH237967   6.400   7.014   9.167 -0.5492 -0.4394 -0.5673
 4591TIP3    H137968   6.438   7.041   9.083 -0.6419 -1.2366 -0.8707
 4591TIP3    H237969   6.471   7.025   9.229 -1.1039  2.3771 -0.2759
 4592TIP3   OH237970   2.131   6.513   7.480  0.2316 -0.1147  0.3490
 4592TIP3    H137971   2.072   6.441   7.459 -2.1000  1.6319  0.4748
 4592TIP3    H237972   2.139   6.562   7.397 -0.0430  0.7145  0.8042
 4593TIP3   OH237973   0.295   5.567   7.503  0.3736  0.2840  0.4721
 4593TIP3    H137974   0.337   5.651   7.486  0.6513  0.2509  0.9724
 4593TIP3    H237975   0.223   5.588   7.562  0.9931  0.0612  1.3339
 4594TIP3   OH237976   6.461   6.480   9.911 -0.3265 -0.3687  0.0283
 4594TIP3    H137977   6.372   6.497   9.878 -0.5661 -2.6205 -0.6564
 4594TIP3    H237978   6.499   6.421   9.847  1.2926 -0.3239  0.9125
 4595TIP3   OH237979   3.078   2.765   8.735  0.3697  0.4337 -0.3121
 4595TIP3    H137980   3.006   2.710   8.704  0.8164  0.0848 -0.7351
 4595TIP3    H237981   3.079   2.839   8.675  0.1782  0.5834 -0.1307
 4596TIP3   OH237982   4.175   0.584   1.311  0.5413  0.1713 -0.5842
 4596TIP3    H137983   4.145   0.608   1.399  1.1774 -0.2759 -0.2377
 4596TIP3    H237984   4.224   0.660   1.281 -1.4878  1.2334 -1.4669
 4597TIP3   OH237985   5.510   7.187   1.419  0.3215  0.3485 -0.2387
 4597TIP3    H137986   5.509   7.112   1.359 -0.3885  1.7154 -2.0430
 4597TIP3    H237987   5.438   7.172   1.479  0.0846 -0.3440 -0.6893
 4598TIP3   OH237988   2.404   7.300   1.785 -0.8493  0.2633  0.1390
 4598TIP3    H137989   2.376   7.306   1.693 -2.3102  1.3717  0.6197
 4598TIP3    H237990   2.465   7.372   1.796  0.7549 -0.9472 -0.3830
 4599TIP3   OH237991   6.228   4.328   1.596 -0.1643  0.7518  0.8229
 4599TIP3    H137992   6.295   4.261   1.612 -0.4647  0.2673  0.1263
 4599TIP3    H237993   6.273   4.393   1.541  0.1060  1.0942  1.4390
 4600TIP3   OH237994   1.888   5.651   0.792 -0.2511 -0.1084  0.2125
 4600TIP3    H137995   1.830   5.685   0.724 -0.9379  0.5080  1.0775
 4600TIP3    H237996   1.962   5.711   0.792 -0.1351 -0.2519 -0.1573
 4601TIP3   OH237997   6.664   7.255   9.705 -0.2483  0.2327 -0.5812
 4601TIP3    H137998   6.731   7.203   9.749 -0.6927 -0.3695 -0.5968
 4601TIP3    H237999   6.712   7.305   9.639 -0.0038 -1.4741 -1.7582
 4602TIP3   OH238000   2.641   1.607   9.871  0.1809 -0.2629 -0.7815
 4602TIP3    H138001   2.678   1.695   9.882 -0.4373 -0.1786  1.0084
 4602TIP3    H238002   2.705   1.561   9.816  2.0117  0.4684  0.5875
 4603TIP3   OH238003   1.587   0.014   8.445  0.6151  0.0383 -0.2358
 4603TIP3    H138004   1.664  -0.042   8.440  0.0880 -0.6101 -2.0146
 4603TIP3    H238005   1.622   0.103   8.441  1.4052 -0.1448  1.7409
 4604TIP3   OH238006   0.565   3.120   1.127  0.0827 -0.2486 -0.0346
 4604TIP3    H138007   0.569   3.041   1.072 -0.4731 -0.0663 -0.3481
 4604TIP3    H238008   0.607   3.094   1.209 -2.0872 -1.6174  0.7471
 4605TIP3   OH238009   2.883   7.064   0.590 -0.0914 -0.4862  0.4988
 4605TIP3    H138010   2.860   7.157   0.590  1.9987  0.0927 -0.0726
 4605TIP3    H238011   2.841   7.029   0.512  0.2850  0.3378 -0.0985
 4606TIP3   OH238012   2.766   3.617   8.436  0.0968 -0.2697 -0.1051
 4606TIP3    H138013   2.779   3.701   8.391 -1.4416  1.0488  1.7209
 4606TIP3    H238014   2.698   3.573   8.384  0.5820 -0.2109 -0.8141
 4607TIP3   OH238015   0.122   5.076   2.030 -1.0276  0.1236 -0.1210
 4607TIP3    H138016   0.091   5.148   2.084 -0.4112 -1.0498  1.9281
 4607TIP3    H238017   0.062   5.004   2.050 -0.7850 -0.3405 -1.0177
 4608TIP3   OH238018   6.123   2.570   1.206  0.2763 -0.5097 -0.4624
 4608TIP3    H138019   6.119   2.517   1.127  1.5950 -0.6392 -0.4615
 4608TIP3    H238020   6.144   2.509   1.276 -0.1187 -0.2731 -0.1252
 4609TIP3   OH238021   0.971   0.906   0.494 -0.2188 -0.3920  0.4942
 4609TIP3    H138022   1.025   0.901   0.416 -0.3734  0.0093  0.3613
 4609TIP3    H238023   1.002   0.834   0.549 -0.1962 -0.7507  0.0131
 4610TIP3   OH238024   4.686   1.914   1.899 -0.3602  0.1482  0.5304
 4610TIP3    H138025   4.627   1.976   1.943 -0.3116  0.1711  0.5627
 4610TIP3    H238026   4.671   1.831   1.945 -2.1319 -0.4325 -0.9837
 4611TIP3   OH238027   1.972   1.068   1.840  0.3724 -0.0399 -0.1425
 4611TIP3    H138028   2.008   1.072   1.752 -2.4892  0.4607 -1.4115
 4611TIP3    H238029   1.971   0.975   1.862  2.1913 -0.0735 -0.0980
 4612TIP3   OH238030   5.634   1.404   9.668  0.0313  0.5322 -0.2996
 4612TIP3    H138031   5.671   1.323   9.633  0.0843  1.1132 -1.6531
 4612TIP3    H238032   5.634   1.392   9.762  1.4414 -0.4480 -0.4003
 4613TIP3   OH238033   1.359   5.378   2.118  0.0177  0.0930  0.5732
 4613TIP3    H138034   1.443   5.425   2.109  1.8414 -2.5381  2.2883
 4613TIP3    H238035   1.338   5.387   2.211 -0.3184 -1.2594  0.6398
 4614TIP3   OH238036   5.905   7.043   8.605 -0.4888 -0.1526 -0.3807
 4614TIP3    H138037   5.936   7.015   8.691  0.9044 -2.3226 -1.5226
 4614TIP3    H238038   5.977   7.022   8.545 -0.8129  2.6428 -1.9256
 4615TIP3   OH238039   7.235   4.725   9.993  0.0442 -0.0458 -0.2477
 4615TIP3    H138040   7.251   4.817   9.969 -0.9366 -0.2039 -1.6362
 4615TIP3    H238041   7.160   4.699   9.939  1.2654 -2.1216 -1.0461
 4616TIP3   OH238042   4.604   4.025   2.522  0.0848 -0.4876 -0.2404
 4616TIP3    H138043   4.676   4.039   2.583 -0.8265 -2.0935  1.2882
 4616TIP3    H238044   4.541   4.094   2.543  0.2624 -0.3548 -0.1389
 4617TIP3   OH238045   2.940   1.960   9.477 -0.2406 -0.3489  0.3432
 4617TIP3    H138046   2.868   2.018   9.501 -0.5105 -0.1739 -0.8457
 4617TIP3    H238047   2.992   1.953   9.557  0.8090  2.9425  0.0967
 4618TIP3   OH238048   5.894   5.693   8.042  0.2539 -0.1587  0.3129
 4618TIP3    H138049   5.939   5.646   7.971  1.4022 -0.0628  0.9492
 4618TIP3    H238050   5.898   5.632   8.116  1.0725  0.6085  0.9249
 4619TIP3   OH238051   2.398   4.172   8.382 -0.8891  0.1569  0.1400
 4619TIP3    H138052   2.353   4.227   8.446  0.6445 -0.4481  1.8152
 4619TIP3    H238053   2.452   4.114   8.435 -0.4060 -1.1264 -1.6925
 4620TIP3   OH238054   6.447   5.525   1.006  0.3911 -0.2179  0.6270
 4620TIP3    H138055   6.418   5.522   1.097 -1.2521  0.4427  0.1608
 4620TIP3    H238056   6.397   5.456   0.962  0.0446  0.4531 -0.0577
 4621TIP3   OH238057   3.923   1.325   8.501 -0.2972  0.1915  0.4453
 4621TIP3    H138058   3.965   1.269   8.566  1.4818 -0.6112 -1.2686
 4621TIP3    H238059   3.946   1.414   8.526 -1.9938  0.1441  2.4204
 4622TIP3   OH238060   7.282   0.476   7.051 -0.0096 -0.1997  0.3695
 4622TIP3    H138061   7.360   0.446   7.005  0.1860  0.1139  0.4944
 4622TIP3    H238062   7.283   0.571   7.041  0.6044 -0.0167  1.9167
 4623TIP3   OH238063   7.295   0.370   9.187 -0.3332 -0.4673  0.0365
 4623TIP3    H138064   7.318   0.323   9.267  1.3158 -1.6327 -1.0770
 4623TIP3    H238065   7.267   0.302   9.126 -0.2715  0.2567 -0.8156
 4624TIP3   OH238066   4.714   2.005   0.971  0.7359 -0.5934  0.4843
 4624TIP3    H138067   4.625   1.973   0.955  0.8750 -0.7274 -0.0375
 4624TIP3    H238068   4.735   1.976   1.060 -0.5538  1.3100  1.4782
 4625TIP3   OH238069   5.526   0.815   0.639 -0.4456  0.3882  0.9853
 4625TIP3    H138070   5.509   0.831   0.546  0.2939 -1.5986  0.4520
 4625TIP3    H238071   5.555   0.900   0.673 -1.0202  1.2291 -0.5120
 4626TIP3   OH238072   4.572   0.346   2.557 -0.0243  0.0013  0.2050
 4626TIP3    H138073   4.631   0.417   2.582 -0.1336  0.0882  0.2201
 4626TIP3    H238074   4.598   0.323   2.468  0.8017 -0.7585  0.6313
 4627TIP3   OH238075   0.275   1.740   2.811  0.3369 -0.1567 -0.2116
 4627TIP3    H138076   0.228   1.656   2.809 -1.5673  0.8317  0.5727
 4627TIP3    H238077   0.229   1.791   2.877  2.5025  0.9553  0.5084
 4628TIP3   OH238078   0.043   3.636   8.858  0.1798 -0.0203  0.6934
 4628TIP3    H138079   0.137   3.626   8.850  0.0533 -0.3778 -0.6883
 4628TIP3    H238080   0.020   3.591   8.939  1.3790  1.5311  1.9662
 4629TIP3   OH238081   1.912   1.864   8.118  0.6010 -0.0834 -0.2832
 4629TIP3    H138082   1.851   1.830   8.053 -1.3277  3.7204 -0.7673
 4629TIP3    H238083   1.988   1.892   8.067  0.7208 -0.5193 -0.3469
 4630TIP3   OH238084   0.560   5.703   8.066  0.2604  0.1269  0.2233
 4630TIP3    H138085   0.654   5.719   8.071  0.2589  0.1168  0.2927
 4630TIP3    H238086   0.522   5.773   8.119  0.2145  0.2693  0.0026
 4631TIP3   OH238087   1.567   0.507   0.705  0.7527 -0.1935 -0.0386
 4631TIP3    H138088   1.547   0.583   0.650  1.0514  0.7562  1.1334
 4631TIP3    H238089   1.483   0.464   0.718  0.5133  0.1590 -0.3939
 4632TIP3   OH238090   5.472   1.335   9.398  0.1583 -0.2133  0.0330
 4632TIP3    H138091   5.520   1.271   9.449 -0.1692 -0.1285  0.4540
 4632TIP3    H238092   5.530   1.411   9.393  0.0820 -0.1219  0.5136
 4633TIP3   OH238093   0.530   7.193   0.048  0.1975 -0.7646 -0.1687
 4633TIP3    H138094   0.601   7.175   0.108 -0.2262  2.1621  1.3786
 4633TIP3    H238095   0.572   7.201  -0.038  1.6963  0.3880  0.6300
 4634TIP3   OH238096   5.602   6.474   8.523  0.0567  0.3154 -0.0895
 4634TIP3    H138097   5.620   6.534   8.451 -0.6135  0.0016 -0.5433
 4634TIP3    H238098   5.510   6.448   8.509  0.3782 -0.9395 -0.0220
 4635TIP3   OH238099   6.018   2.187   9.482  0.2710  0.1213 -0.5823
 4635TIP3    H138100   5.994   2.111   9.535  0.7425  0.6277  0.3857
 4635TIP3    H238101   6.110   2.203   9.502 -0.0102  1.3894 -0.1885
 4636TIP3   OH238102   3.651   2.918   1.193  0.3964  0.1891 -0.0968
 4636TIP3    H138103   3.704   2.989   1.156  3.2384 -1.0072  1.4014
 4636TIP3    H238104   3.685   2.839   1.151 -2.8296 -0.3980 -1.8690
 4637TIP3   OH238105   3.065   2.480   1.555 -0.1175 -0.4702  0.8930
 4637TIP3    H138106   3.074   2.395   1.599  0.2582 -0.5881  0.5964
 4637TIP3    H238107   3.067   2.458   1.462  1.1732 -0.0268  0.7984
 4638TIP3   OH238108   4.066   5.508   6.934 -0.2632 -0.4229  0.2461
 4638TIP3    H138109   4.111   5.587   6.904 -0.0679 -0.0914  1.3641
 4638TIP3    H238110   3.996   5.495   6.870  0.0126  0.3673 -0.2361
 4639TIP3   OH238111   3.084   6.113   2.706 -0.0599 -0.4895  0.2869
 4639TIP3    H138112   3.011   6.167   2.675 -0.5175  0.0853  2.2017
 4639TIP3    H238113   3.043   6.053   2.769  0.8036 -1.5804 -0.1724
 4640TIP3   OH238114   2.504   1.247   9.604  0.1520  0.1594 -0.1321
 4640TIP3    H138115   2.505   1.333   9.563  0.7492 -0.2845 -1.0695
 4640TIP3    H238116   2.593   1.235   9.638  0.2270 -0.3072 -0.4796
 4641TIP3   OH238117   0.042   5.881   9.826  0.3391  0.3370  0.4472
 4641TIP3    H138118  -0.041   5.842   9.854 -0.6386  0.9344 -1.4331
 4641TIP3    H238119   0.064   5.836   9.745  0.8171  1.5287 -0.1091
 4642TIP3   OH238120   3.830   3.242   7.637  0.0807  0.2154  0.1429
 4642TIP3    H138121   3.782   3.195   7.569 -0.6275 -0.1774  0.9023
 4642TIP3    H238122   3.896   3.292   7.589 -1.7760  1.6681 -1.0602
 4643TIP3   OH238123   5.749   4.556   9.044 -0.0578  0.0619  0.2245
 4643TIP3    H138124   5.756   4.491   9.114  1.6777 -1.0980 -0.9743
 4643TIP3    H238125   5.826   4.543   8.990 -0.6451  1.8543 -1.1704
 4644TIP3   OH238126   5.791   0.397   9.856  0.5210 -0.4304 -0.2401
 4644TIP3    H138127   5.841   0.371   9.779  1.2669  0.2561 -0.0050
 4644TIP3    H238128   5.741   0.474   9.827  0.4540 -0.4459 -0.1662
 4645TIP3   OH238129   0.166   6.179   8.650 -0.0753 -0.6702 -0.0854
 4645TIP3    H138130   0.106   6.209   8.581 -1.1639 -0.8402  0.7540
 4645TIP3    H238131   0.124   6.208   8.731  1.3318 -0.2185  0.4996
 4646TIP3   OH238132   1.257   6.158   7.606 -0.2512 -0.4152 -0.3567
 4646TIP3    H138133   1.292   6.070   7.589 -0.7986 -1.2035  2.2319
 4646TIP3    H238134   1.329   6.217   7.583  1.0971 -1.7030  0.3447
 4647TIP3   OH238135   0.656   0.942   8.374 -0.3250  0.4146  0.0215
 4647TIP3    H138136   0.679   0.980   8.459 -0.5828 -0.4949  0.5172
 4647TIP3    H238137   0.716   0.984   8.312 -0.9353  1.9742  0.4455
 4648TIP3   OH238138   2.961   5.998   7.573 -0.1674 -0.1822  0.3287
 4648TIP3    H138139   2.921   6.074   7.616 -1.6469 -0.8301  0.1526
 4648TIP3    H238140   3.036   5.976   7.629 -0.3652  0.7371  0.9784
 4649TIP3   OH238141   0.903   6.054   6.726  0.1388  0.1698 -0.0292
 4649TIP3    H138142   0.876   6.023   6.639 -1.3992  0.0592  0.4593
 4649TIP3    H238143   0.888   5.979   6.784 -1.1483  0.9780  0.7256
 4650TIP3   OH238144   6.513   6.918   0.518 -0.1258 -0.6602  0.0056
 4650TIP3    H138145   6.586   6.965   0.477 -1.2968  2.0911  0.8448
 4650TIP3    H238146   6.463   6.884   0.444  0.2954  0.2040 -0.7070
 4651TIP3   OH238147   5.923   7.234   8.955  0.4360 -0.3375 -0.0252
 4651TIP3    H138148   5.858   7.303   8.941  2.1323  1.4312  0.3950
 4651TIP3    H238149   6.005   7.271   8.923  1.3033 -2.4511 -0.4299
 4652TIP3   OH238150   1.651   2.899   7.345 -0.5468  0.0159 -0.1618
 4652TIP3    H138151   1.721   2.904   7.411 -0.5173 -2.6406  0.1248
 4652TIP3    H238152   1.690   2.936   7.266  0.5647  0.2464  0.4612
 4653TIP3   OH238153   5.288   1.793   1.662 -0.1870  0.0147  0.3069
 4653TIP3    H138154   5.341   1.861   1.704 -0.1152 -0.7868  1.5889
 4653TIP3    H238155   5.224   1.841   1.610  0.4866  1.0416  0.3941
 4654TIP3   OH238156   3.503   3.423   8.769 -0.0156  0.7631 -0.7611
 4654TIP3    H138157   3.591   3.455   8.747  0.0833 -0.0708 -1.6558
 4654TIP3    H238158   3.518   3.335   8.804 -0.2808  1.6298  1.6916
 4655TIP3   OH238159   0.316   1.461   2.158  0.2337 -0.3527  0.0250
 4655TIP3    H138160   0.370   1.483   2.234  1.1953  0.2681 -0.8201
 4655TIP3    H238161   0.227   1.457   2.192  0.1195  3.3724  0.5765
 4656TIP3   OH238162   1.882   3.967   7.124  0.2376 -0.4195 -0.0412
 4656TIP3    H138163   1.946   3.944   7.056 -0.3773  1.3012 -1.2432
 4656TIP3    H238164   1.923   4.039   7.172 -0.7835  0.7573 -0.8754
 4657TIP3   OH238165   1.481   3.102   7.557  0.7695  0.1521 -0.1571
 4657TIP3    H138166   1.509   3.012   7.574 -1.0646 -0.3366  0.5209
 4657TIP3    H238167   1.404   3.093   7.500  1.1857  1.3577 -0.9675
 4658TIP3   OH238168   5.570   4.761   9.931 -0.0557 -0.0123 -0.4427
 4658TIP3    H138169   5.489   4.755   9.880  0.2570  1.7777 -1.2535
 4658TIP3    H238170   5.582   4.674   9.968 -1.8629 -0.5679 -1.0499
 4659TIP3   OH238171   4.833   0.874   1.964  0.4978 -0.3988 -0.0521
 4659TIP3    H138172   4.790   0.789   1.951 -0.8942  0.1776  0.6158
 4659TIP3    H238173   4.846   0.880   2.058 -2.5018  1.4901  0.4009
 4660TIP3   OH238174   1.096   1.318   0.214  0.4786 -0.5157  0.3135
 4660TIP3    H138175   1.032   1.355   0.154 -0.1110  0.6265  1.6073
 4660TIP3    H238176   1.104   1.226   0.187  0.2385 -0.0393 -1.4886
 4661TIP3   OH238177   6.555   6.936   1.439 -0.4243 -0.1317  0.1519
 4661TIP3    H138178   6.508   7.018   1.446  1.0267  0.8197 -0.6393
 4661TIP3    H238179   6.517   6.892   1.362  0.9082  1.3232 -1.4209
 4662TIP3   OH238180   3.375   2.083   1.609  0.3284  0.3327  0.1381
 4662TIP3    H138181   3.404   1.995   1.586  0.5409  0.0351  1.4963
 4662TIP3    H238182   3.304   2.102   1.547 -0.9944 -1.5325  0.9869
 4663TIP3   OH238183   0.481   1.859   9.713 -0.1745 -0.2912  0.4137
 4663TIP3    H138184   0.556   1.843   9.655 -0.2822  1.3230 -0.2299
 4663TIP3    H238185   0.520   1.871   9.799  0.0399 -2.1082  0.6160
 4664TIP3   OH238186   1.800   4.966   0.668 -0.0148 -0.1682 -0.0481
 4664TIP3    H138187   1.827   5.054   0.695 -0.3033  0.2238 -0.9895
 4664TIP3    H238188   1.704   4.968   0.669 -0.0484 -0.0428 -1.3229
 4665TIP3   OH238189   6.636   5.550   0.780  0.4052  0.2755 -0.2569
 4665TIP3    H138190   6.698   5.478   0.789 -0.7831 -0.9565 -1.4557
 4665TIP3    H238191   6.581   5.544   0.858  1.8304  1.4713  0.8908
 4666TIP3   OH238192   5.098   0.306   9.415 -0.0459 -0.1641 -0.3302
 4666TIP3    H138193   5.134   0.367   9.481  1.2276 -1.1958 -0.0214
 4666TIP3    H238194   5.171   0.247   9.396 -0.7135 -0.5078 -1.9467
 4667TIP3   OH238195   6.895   6.860   9.736  0.6151 -0.1766  0.4119
 4667TIP3    H138196   6.811   6.814   9.743  0.7911 -0.7105 -0.6420
 4667TIP3    H238197   6.885   6.937   9.791 -0.2920 -0.6243  0.9117
 4668TIP3   OH238198   2.416   6.955   7.324  0.2694 -0.3957 -0.2330
 4668TIP3    H138199   2.385   7.020   7.387 -0.1511  0.1791 -1.0124
 4668TIP3    H238200   2.510   6.971   7.319  0.1164  0.4361 -0.7093
 4669TIP3   OH238201   7.269   2.933   1.181  0.5744  0.0372  0.3566
 4669TIP3    H138202   7.317   3.015   1.172  0.6797 -0.2191 -2.1629
 4669TIP3    H238203   7.279   2.890   1.096 -0.1091 -2.2487  1.3461
 4670TIP3   OH238204   2.893   6.584   1.105  0.1324  0.4094  0.5102
 4670TIP3    H138205   2.841   6.646   1.157 -1.6963 -0.5627 -0.0605
 4670TIP3    H238206   2.895   6.622   1.017 -1.3721 -0.4917  0.0510
 4671TIP3   OH238207   1.141   0.326   1.038  0.0892  0.2176  0.2653
 4671TIP3    H138208   1.138   0.311   1.132  0.9420 -0.7688  0.1502
 4671TIP3    H238209   1.175   0.244   1.001  0.9207  1.0005 -0.7810
 4672TIP3   OH238210   3.891   6.466   8.668  0.6023 -0.6211 -0.6091
 4672TIP3    H138211   3.910   6.483   8.760  0.5899 -3.0915 -0.0660
 4672TIP3    H238212   3.816   6.406   8.670 -0.3623  0.4489 -2.3131
 4673TIP3   OH238213   1.853   3.810   9.223 -0.9491  0.2730 -0.4013
 4673TIP3    H138214   1.882   3.748   9.290  1.4718  0.4973 -1.1297
 4673TIP3    H238215   1.879   3.896   9.257  0.9303  0.3343 -1.8280
 4674TIP3   OH238216   6.347   3.579   9.384 -0.3247  0.5460 -0.5068
 4674TIP3    H138217   6.381   3.571   9.296  1.1033 -0.3264  0.0863
 4674TIP3    H238218   6.368   3.495   9.426 -1.7199  0.6122  0.4143
 4675TIP3   OH238219   4.124   0.145   8.873  0.5115  0.5555 -0.2365
 4675TIP3    H138220   4.069   0.077   8.914 -1.3262  2.7819  1.2291
 4675TIP3    H238221   4.116   0.127   8.779 -0.6311 -0.7394  0.0567
 4676TIP3   OH238222   5.535   6.933   9.214 -0.4746  0.4023  0.2346
 4676TIP3    H138223   5.557   6.840   9.203 -1.6480 -0.0012  1.0688
 4676TIP3    H238224   5.446   6.940   9.178 -0.1557  1.3470 -0.3955
 4677TIP3   OH238225   0.154   7.261   1.929 -0.2484 -0.3164  0.7652
 4677TIP3    H138226   0.125   7.352   1.937  2.3550  0.7513 -0.6554
 4677TIP3    H238227   0.161   7.231   2.020 -0.5627  1.1206  1.3050
 4678TIP3   OH238228   1.765   6.458   0.598  0.2954 -0.1787  0.1618
 4678TIP3    H138229   1.687   6.402   0.594  0.0455  0.2423 -1.2459
 4678TIP3    H238230   1.808   6.445   0.513  0.1661  1.8420 -0.2662
 4679TIP3   OH238231   2.259   6.471   8.415 -0.2379 -0.1497 -0.5884
 4679TIP3    H138232   2.196   6.527   8.371  0.7516  2.2718  0.8817
 4679TIP3    H238233   2.219   6.450   8.499  0.2843  0.1752 -0.2517
 4680TIP3   OH238234   6.752   6.703   8.817 -0.8215 -0.2644  0.4499
 4680TIP3    H138235   6.772   6.794   8.839 -1.8002  0.4173 -1.2267
 4680TIP3    H238236   6.833   6.655   8.832 -0.0661  1.0366  0.6434
 4681TIP3   OH238237   1.336   5.843   2.193 -0.2319  0.1508 -0.0216
 4681TIP3    H138238   1.339   5.773   2.128 -0.8090  0.5323 -0.4689
 4681TIP3    H238239   1.293   5.916   2.148 -1.0102  0.2832  0.8905
 4682TIP3   OH238240   4.933   2.905   9.320  0.0736 -0.3115  0.7302
 4682TIP3    H138241   4.968   2.817   9.331 -0.5238 -0.5964  0.4125
 4682TIP3    H238242   5.004   2.963   9.349  0.6895 -0.8784  0.4027
 4683TIP3   OH238243   2.716   2.312   0.431 -0.4976 -0.0869 -0.2063
 4683TIP3    H138244   2.653   2.274   0.492  0.6101  0.0942  1.1034
 4683TIP3    H238245   2.801   2.295   0.472  0.3253 -0.5072 -2.0249
 4684TIP3   OH238246   3.418   6.066   6.353  0.0007 -0.6159  0.0689
 4684TIP3    H138247   3.335   6.112   6.338  0.0351 -0.9576 -1.2929
 4684TIP3    H238248   3.394   5.974   6.358  0.4594 -0.9548 -2.4122
 4685TIP3   OH238249   4.642   2.920   1.610 -0.6439 -0.3845 -0.4753
 4685TIP3    H138250   4.689   2.875   1.680  1.7653  0.7638 -1.2412
 4685TIP3    H238251   4.581   2.978   1.655  1.1783  0.6839  0.7652
 4686TIP3   OH238252   0.680   1.046   8.623  0.0236  0.1945 -0.3409
 4686TIP3    H138253   0.724   1.131   8.625 -0.3062  0.3627  0.5119
 4686TIP3    H238254   0.725   0.995   8.691 -1.4622  0.5871  1.0196
 4687TIP3   OH238255   2.281   5.277   9.567 -0.6963 -0.3298  0.3531
 4687TIP3    H138256   2.330   5.351   9.533  0.3961 -1.2899 -0.2252
 4687TIP3    H238257   2.325   5.254   9.649 -0.5509 -0.7978  0.1496
 4688TIP3   OH238258   2.572   1.580   8.051  0.3194 -0.2987 -0.0994
 4688TIP3    H138259   2.517   1.578   8.129 -2.0390  0.7327 -1.6180
 4688TIP3    H238260   2.623   1.499   8.055 -0.9336 -1.0586  1.6474
 4689TIP3   OH238261   3.527   4.471   2.450  0.3689  0.1698  0.0360
 4689TIP3    H138262   3.616   4.436   2.454  1.2764  2.1729 -1.4155
 4689TIP3    H238263   3.482   4.428   2.524  3.0559  0.5696  2.0779
 4690TIP3   OH238264   0.479   5.744   6.575  0.3894  0.0445 -0.2852
 4690TIP3    H138265   0.399   5.738   6.627  0.4377  0.6199 -0.1493
 4690TIP3    H238266   0.485   5.658   6.532  0.0277 -0.2154  0.1764
 4691TIP3   OH238267   1.937   0.585   0.484  0.2276  0.0083 -0.4417
 4691TIP3    H138268   1.957   0.642   0.410  0.0657 -3.8606 -3.8556
 4691TIP3    H238269   2.018   0.535   0.497 -0.0951 -0.1049  1.3391
 4692TIP3   OH238270   1.918   3.972   9.698 -0.3565 -0.4889 -0.2238
 4692TIP3    H138271   1.907   3.877   9.691  1.7299 -0.6573 -3.0854
 4692TIP3    H238272   2.013   3.986   9.691 -0.6393  1.8406 -0.3396
 4693TIP3   OH238273   0.894   5.272   1.777 -0.1004  0.2806 -0.0542
 4693TIP3    H138274   0.908   5.183   1.809  1.4237 -0.1764 -1.7643
 4693TIP3    H238275   0.979   5.297   1.739 -1.0273  1.7548 -1.2719
 4694TIP3   OH238276   5.183   6.662   8.289  0.3173  0.1234 -0.1406
 4694TIP3    H138277   5.244   6.711   8.233  0.2371  1.0721  0.5716
 4694TIP3    H238278   5.238   6.596   8.332  0.7364  0.5932  0.0529
 4695TIP3   OH238279   3.934   2.327   9.039  0.1567 -0.5229  0.2210
 4695TIP3    H138280   3.971   2.244   9.070 -0.3920 -1.1061 -0.6545
 4695TIP3    H238281   3.981   2.394   9.089  1.3918 -1.3013  0.1349
 4696TIP3   OH238282   3.783   3.048   9.637  0.2461  0.1030 -0.2028
 4696TIP3    H138283   3.867   3.019   9.601 -0.3047  0.1893 -1.6168
 4696TIP3    H238284   3.805   3.125   9.689  1.2622 -0.8610  0.8865
 4697TIP3   OH238285   1.278   5.973   6.587  0.2213 -0.3272 -0.3698
 4697TIP3    H138286   1.236   5.940   6.666  0.2475 -1.4792 -0.8107
 4697TIP3    H238287   1.372   5.962   6.603  0.2112 -1.0179 -0.7340
 4698TIP3   OH238288   7.213   5.251   8.418  0.5107  0.4025  0.0059
 4698TIP3    H138289   7.157   5.251   8.495 -1.4158  0.8854 -1.3317
 4698TIP3    H238290   7.272   5.326   8.430 -1.8919  2.4835 -0.3943
 4699TIP3   OH238291   5.738   2.252   0.819  0.3296 -0.4427  0.0022
 4699TIP3    H138292   5.751   2.187   0.888 -0.7619 -0.0783  0.5723
 4699TIP3    H238293   5.643   2.261   0.811  0.4498  0.9362 -0.2031
 4700TIP3   OH238294   7.388   1.852   8.126 -0.2202 -0.0064  0.3510
 4700TIP3    H138295   7.436   1.925   8.086  0.6164 -0.5104  0.3943
 4700TIP3    H238296   7.436   1.835   8.208  0.7353 -1.7601 -0.5091
 4701TIP3   OH238297   3.330   1.546   9.532 -0.0944 -0.5940 -0.2658
 4701TIP3    H138298   3.376   1.587   9.459  0.8648 -1.6919 -0.3194
 4701TIP3    H238299   3.337   1.609   9.604 -0.7696  0.3558 -1.0011
 4702TIP3   OH238300   7.020   6.694   8.831 -0.1416  0.4054 -0.1712
 4702TIP3    H138301   7.096   6.691   8.772 -0.3444  1.6151 -0.5093
 4702TIP3    H238302   7.048   6.749   8.904 -0.8162  1.1749 -0.4854
 4703TIP3   OH238303   3.600   6.813   0.182  0.2683 -0.0885 -0.1085
 4703TIP3    H138304   3.600   6.904   0.212  0.2893 -0.5244  1.2640
 4703TIP3    H238305   3.531   6.810   0.115  0.4796  0.9941 -0.3924
 4704TIP3   OH238306   0.720   1.926   7.548 -0.0690 -0.3093 -0.3256
 4704TIP3    H138307   0.758   2.007   7.513 -0.5254  0.0104 -0.0988
 4704TIP3    H238308   0.772   1.906   7.625  1.3263 -1.3438 -1.4888
 4705TIP3   OH238309   0.319   4.376   2.130  0.0055 -0.2822 -0.5421
 4705TIP3    H138310   0.360   4.365   2.044 -1.6563  1.1899 -1.5981
 4705TIP3    H238311   0.361   4.453   2.167  0.3045 -0.5673 -0.2826
 4706TIP3   OH238312   0.864   6.601   0.959 -0.5734  0.7958  0.1509
 4706TIP3    H138313   0.792   6.560   1.006  0.7374 -1.4827  0.3091
 4706TIP3    H238314   0.903   6.662   1.022 -2.1493  1.8999  0.1237
 4707TIP3   OH238315   2.725   5.888   7.504 -0.0411 -0.0805 -0.1303
 4707TIP3    H138316   2.813   5.907   7.536  0.2347 -0.3583 -0.7167
 4707TIP3    H238317   2.723   5.921   7.415 -0.8041  0.6675  0.1520
 4708TIP3   OH238318   4.128   4.484   8.632 -0.2347 -0.3783  0.4279
 4708TIP3    H138319   4.154   4.414   8.691  1.0413 -0.2476  0.0387
 4708TIP3    H238320   4.170   4.562   8.667 -1.9517  0.2962  1.0747
 4709TIP3   OH238321   6.477   2.575   9.542 -0.8128 -0.1216 -0.0442
 4709TIP3    H138322   6.469   2.481   9.555 -3.1237  0.2229  1.6716
 4709TIP3    H238323   6.501   2.610   9.627  1.4549  0.7890 -0.9815
 4710TIP3   OH238324   1.106   3.889   8.547  0.3514 -0.0877 -0.1588
 4710TIP3    H138325   1.095   3.805   8.503 -1.9137 -0.1008  0.2909
 4710TIP3    H238326   1.165   3.938   8.490 -0.2659 -1.1120 -1.7689
 4711TIP3   OH238327   0.340   5.934   2.350  0.1920 -0.0676 -0.5473
 4711TIP3    H138328   0.322   6.028   2.345  1.2977  0.1246 -1.1206
 4711TIP3    H238329   0.372   5.911   2.263 -1.6368 -1.3387 -0.9525
 4712TIP3   OH238330   2.451   3.111   8.925 -0.5571  0.7370  0.5348
 4712TIP3    H138331   2.408   3.192   8.952 -0.6855  0.5692  0.8339
 4712TIP3    H238332   2.380   3.047   8.916 -0.3971  0.5059  0.8640
 4713TIP3   OH238333   4.081   4.768   1.112  0.3345 -0.1568 -0.4077
 4713TIP3    H138334   4.035   4.760   1.196  1.5985  3.8778  0.9320
 4713TIP3    H238335   4.154   4.707   1.119  0.8318  0.5817  1.8730
 4714TIP3   OH238336   5.241   5.669   8.039  0.1167  0.1237 -0.4981
 4714TIP3    H138337   5.215   5.677   7.948  0.1175  0.4459 -0.4740
 4714TIP3    H238338   5.337   5.672   8.037  0.1424 -0.5675 -0.5443
 4715TIP3   OH238339   3.892   2.272   1.653 -0.1670 -0.1237 -0.0949
 4715TIP3    H138340   3.802   2.262   1.622 -0.7332 -1.1223  1.7686
 4715TIP3    H238341   3.885   2.279   1.748  1.5110  2.7836 -0.0684
 4716TIP3   OH238342   6.747   4.340   9.673  0.5534 -0.1702  0.1682
 4716TIP3    H138343   6.811   4.363   9.605  0.8792 -1.3790  0.0370
 4716TIP3    H238344   6.696   4.269   9.634 -1.9084  1.7454 -0.3185
 4717TIP3   OH238345   1.521   5.215   7.326  0.2749  0.4281 -0.5045
 4717TIP3    H138346   1.489   5.281   7.388  0.9331  0.4799 -0.2097
 4717TIP3    H238347   1.447   5.155   7.315  0.4760 -0.1573  1.1192
 4718TIP3   OH238348   1.146   0.520   0.132 -0.3194 -0.5167 -0.4663
 4718TIP3    H138349   1.148   0.481   0.220 -1.6558 -1.3271 -0.7609
 4718TIP3    H238350   1.097   0.457   0.080 -2.2212  1.3597 -1.0603
 4719TIP3   OH238351   7.264   6.601   8.427  0.3264  0.4390  0.3194
 4719TIP3    H138352   7.325   6.609   8.354 -0.9892 -1.0262 -1.0333
 4719TIP3    H238353   7.184   6.644   8.396  0.7169  2.6784  2.2070
 4720TIP3   OH238354   2.937   0.968   0.277  0.1136 -0.1750 -0.5597
 4720TIP3    H138355   2.961   1.024   0.351  0.7051  1.3976 -1.8887
 4720TIP3    H238356   2.846   0.943   0.294  0.0444  0.6659  0.3755
 4721TIP3   OH238357   3.982   2.293   1.974 -0.0185  0.0524 -0.0143
 4721TIP3    H138358   3.976   2.231   2.046 -0.3901  1.9823  1.7232
 4721TIP3    H238359   3.918   2.361   1.995  0.8222  1.3655 -1.4656
 4722TIP3   OH238360   5.076   4.248   0.552  0.2628  0.9920 -0.5565
 4722TIP3    H138361   5.159   4.207   0.577  0.2687  1.5100  0.2880
 4722TIP3    H238362   5.083   4.338   0.582 -1.3818  0.5551  1.3515
 4723TIP3   OH238363   0.756   3.763   8.730 -0.4445 -0.4709  0.5469
 4723TIP3    H138364   0.703   3.686   8.750 -0.5120 -0.1900  1.5288
 4723TIP3    H238365   0.813   3.736   8.659 -0.6304 -1.3523  0.7263
 4724TIP3   OH238366   3.449   3.020   9.127 -0.0712  0.0247  0.3545
 4724TIP3    H138367   3.483   2.953   9.066 -0.3940 -0.1334  0.3458
 4724TIP3    H238368   3.516   3.088   9.128  0.3462 -0.3845  0.5014
 4725TIP3   OH238369   3.991   7.011   8.678  0.0163  0.2566 -0.1558
 4725TIP3    H138370   3.967   7.091   8.632  2.1955  0.8877 -0.3058
 4725TIP3    H238371   3.990   6.943   8.610  0.4895  0.6397 -0.5537
 4726TIP3   OH238372   1.805   0.672   1.506 -0.2363 -0.0930  0.2672
 4726TIP3    H138373   1.880   0.728   1.486 -0.3259 -0.2281 -0.4582
 4726TIP3    H238374   1.843   0.584   1.513 -0.1891 -0.0334  0.8135
 4727TIP3   OH238375   1.983   1.640   2.010 -0.0818  0.1173 -0.8586
 4727TIP3    H138376   1.937   1.567   1.968 -0.9601 -0.0364  0.2829
 4727TIP3    H238377   1.913   1.694   2.046  0.6086  0.6130 -0.2342
 4728TIP3   OH238378   6.910   5.099   2.387 -0.1137 -0.1112 -0.5488
 4728TIP3    H138379   6.946   5.089   2.475  1.4490 -0.0979 -1.1444
 4728TIP3    H238380   6.847   5.028   2.379  0.9655 -1.1889  0.0086
 4729TIP3   OH238381   1.597   5.582   2.149  0.2651 -0.1331  0.0976
 4729TIP3    H138382   1.569   5.607   2.061  0.5551 -0.5364 -0.1171
 4729TIP3    H238383   1.634   5.662   2.186  0.9679 -0.1678 -0.4903
 4730TIP3   OH238384   2.558   6.706   9.807 -0.2546  0.6982 -0.9881
 4730TIP3    H138385   2.485   6.654   9.841 -1.5726  3.0436 -0.0037
 4730TIP3    H238386   2.529   6.734   9.720 -0.4116  1.3400 -0.7384
 4731TIP3   OH238387   2.144   0.511   0.075 -0.2575 -0.5552 -0.0094
 4731TIP3    H138388   2.205   0.443   0.047 -0.4738 -0.5051 -0.6277
 4731TIP3    H238389   2.093   0.471   0.145 -0.5793 -1.1289 -0.5661
 4732TIP3   OH238390   5.291   4.368   1.446 -0.1394  0.0003  0.6243
 4732TIP3    H138391   5.214   4.388   1.499  0.6645  1.8043  1.1896
 4732TIP3    H238392   5.363   4.415   1.488  0.8649  0.1365 -1.1200
 4733TIP3   OH238393   4.973   3.635   0.720 -0.1164  0.6301 -0.1152
 4733TIP3    H138394   4.971   3.631   0.624  0.2216 -0.3152 -0.0957
 4733TIP3    H238395   5.042   3.574   0.745 -0.8107  0.1787  0.7700
 4734TIP3   OH238396   3.880   6.986   2.940 -0.6415 -0.2486 -0.4194
 4734TIP3    H138397   3.886   6.998   2.846  0.6562 -1.3080 -0.5032
 4734TIP3    H238398   3.969   7.001   2.972 -0.2770 -3.0180  0.1836
 4735TIP3   OH238399   2.672   2.727   2.704  0.1739  0.2079 -0.5731
 4735TIP3    H138400   2.648   2.668   2.776  0.6541  0.1258 -0.4745
 4735TIP3    H238401   2.751   2.771   2.735  1.2512 -0.9000 -1.6262
 4736TIP3   OH238402   5.082   6.064   1.065 -0.0427 -0.4323  0.3096
 4736TIP3    H138403   5.137   6.013   1.005 -0.3619 -0.4975  0.0685
 4736TIP3    H238404   5.143   6.097   1.131  0.5002  0.4734 -0.6031
 4737TIP3   OH238405   4.583   4.638   8.008 -0.0714 -0.2145 -0.1780
 4737TIP3    H138406   4.545   4.696   7.943 -0.6581  0.1530  0.4771
 4737TIP3    H238407   4.528   4.560   8.007  1.7208 -1.5578 -2.2877
 4738TIP3   OH238408   3.124   0.605   2.117 -0.5274  0.1539 -0.6793
 4738TIP3    H138409   3.057   0.654   2.070  0.3667  0.9278 -1.1759
 4738TIP3    H238410   3.136   0.653   2.199 -0.1727  0.3538 -0.8458
 4739TIP3   OH238411   4.396   3.164   7.804  0.1810  0.2732  0.0995
 4739TIP3    H138412   4.324   3.137   7.859  0.0191  0.0116 -0.2397
 4739TIP3    H238413   4.354   3.205   7.728  0.3818 -0.1183 -0.2234
 4740TIP3   OH238414   0.226   4.694   0.693  0.1027 -0.5095  0.0571
 4740TIP3    H138415   0.196   4.633   0.625 -1.9164 -1.0253  1.3093
 4740TIP3    H238416   0.311   4.725   0.662  0.7472 -3.1815 -1.1441
 4741TIP3   OH238417   1.116   0.343   6.888 -0.2307 -0.4582  0.2144
 4741TIP3    H138418   1.066   0.422   6.864 -1.1099 -1.5473 -1.7280
 4741TIP3    H238419   1.197   0.351   6.839  1.0978  0.6840  2.4086
 4742TIP3   OH238420   1.125   1.280   9.289 -0.0089 -0.5598 -0.5731
 4742TIP3    H138421   1.050   1.248   9.239 -0.0765 -0.4694 -0.5291
 4742TIP3    H238422   1.181   1.321   9.223 -0.4567  0.2354 -0.4683
 4743TIP3   OH238423   6.255   3.228   8.038  0.6611 -0.0371 -0.1993
 4743TIP3    H138424   6.272   3.322   8.046  0.1992  0.1611 -1.2896
 4743TIP3    H238425   6.224   3.218   7.948 -2.5001 -0.7156  0.8293
 4744TIP3   OH238426   5.668   1.628   0.826 -0.6229 -0.0283  0.0016
 4744TIP3    H138427   5.701   1.686   0.757 -1.2842  0.1090 -0.2065
 4744TIP3    H238428   5.573   1.630   0.815 -0.6235 -1.7959 -0.5301
 4745TIP3   OH238429   2.202   7.326   8.046  0.0136 -0.3653 -0.4404
 4745TIP3    H138430   2.275   7.294   8.099 -0.0086  0.6298  0.2055
 4745TIP3    H238431   2.158   7.246   8.016  0.8638 -0.9629 -0.1509
 4746TIP3   OH238432   2.655   1.343   1.238  0.2042  0.2481 -0.1122
 4746TIP3    H138433   2.616   1.395   1.168 -0.6777  1.1390  0.9768
 4746TIP3    H238434   2.596   1.358   1.313  1.9574  0.6315  1.2489
 4747TIP3   OH238435   5.412   5.857   9.996  0.3818  0.4153 -0.3567
 4747TIP3    H138436   5.423   5.936   9.943 -2.2212  0.7214 -0.5939
 4747TIP3    H238437   5.329   5.820   9.966  0.2012 -0.9313  1.6237
 4748TIP3   OH238438   2.158   4.769   0.809 -0.5708  0.8461  0.0526
 4748TIP3    H138439   2.225   4.712   0.847 -3.0041 -1.4249  1.2713
 4748TIP3    H238440   2.124   4.818   0.883 -0.6467  1.6102 -0.4736
 4749TIP3   OH238441   0.981   1.408   9.968  0.3482  0.2436  0.1225
 4749TIP3    H138442   1.045   1.474   9.940  0.4228  0.8814  1.7198
 4749TIP3    H238443   0.990   1.338   9.904  0.6718  1.5184 -1.2945
 4750TIP3   OH238444   7.293   3.906   2.365 -0.0359 -0.3030  0.3595
 4750TIP3    H138445   7.218   3.961   2.385 -0.8812 -1.1716 -0.3198
 4750TIP3    H238446   7.342   3.901   2.447  0.0428  1.3839  0.4632
 4751TIP3   OH238447   6.914   3.144   8.774  0.2660 -0.2748  0.1126
 4751TIP3    H138448   6.888   3.106   8.859  0.3993 -0.7615 -0.0574
 4751TIP3    H238449   7.006   3.118   8.765  0.3905  0.1948  0.0425
 4752TIP3   OH238450   5.809   6.006   8.663  0.2404  0.3915  0.4593
 4752TIP3    H138451   5.848   5.953   8.732 -1.0735 -0.6891  0.4163
 4752TIP3    H238452   5.778   5.943   8.598 -0.7606  1.2386  0.0837
 4753TIP3   OH238453   6.016   0.917   8.853 -0.3454  0.0423 -0.6797
 4753TIP3    H138454   6.018   0.897   8.946 -0.9264 -0.3412 -0.7465
 4753TIP3    H238455   6.089   0.978   8.840  0.7689 -1.1529 -0.2666
 4754TIP3   OH238456   3.466   6.874   2.749  0.1417  0.2918  0.2089
 4754TIP3    H138457   3.428   6.947   2.798 -1.4194 -0.7031  0.5809
 4754TIP3    H238458   3.512   6.823   2.816  0.1598  0.2819  0.1885
 4755TIP3   OH238459   1.266   6.699   1.107  0.1776 -0.2410  0.0894
 4755TIP3    H138460   1.213   6.754   1.049  0.2356 -0.4465 -0.1599
 4755TIP3    H238461   1.231   6.611   1.094  0.6949 -0.4094 -0.2155
 4756TIP3   OH238462   1.797   4.845   1.869  0.4586  0.2293  0.5739
 4756TIP3    H138463   1.779   4.897   1.947 -1.0650  1.0879 -0.2905
 4756TIP3    H238464   1.752   4.892   1.799 -0.4967 -1.9285 -0.3447
 4757TIP3   OH238465   1.214   6.429   8.645 -0.2284 -0.5817 -0.3626
 4757TIP3    H138466   1.124   6.437   8.678  0.1087  1.7472  0.1931
 4757TIP3    H238467   1.216   6.487   8.568  0.4462 -1.7699 -1.2849
 4758TIP3   OH238468   3.583   3.859   0.847  0.1036  0.2620 -0.1840
 4758TIP3    H138469   3.622   3.851   0.934 -0.4945 -0.7327  0.0072
 4758TIP3    H238470   3.519   3.930   0.856  0.6813  0.7783 -0.0643
 4759TIP3   OH238471   0.116   3.979   1.022  0.0223  0.4684 -0.4041
 4759TIP3    H138472   0.180   4.004   0.955 -0.6011  1.4966 -0.6264
 4759TIP3    H238473   0.034   4.017   0.993 -0.1953  1.2237  1.1144
 4760TIP3   OH238474   6.706   1.493   8.419  0.8973  0.1131  0.1870
 4760TIP3    H138475   6.687   1.548   8.342 -1.2156 -0.4315  0.2428
 4760TIP3    H238476   6.794   1.519   8.446  1.1855  1.2419 -1.6418
 4761TIP3   OH238477   5.766   6.766   1.030 -0.3774  0.4019  0.0077
 4761TIP3    H138478   5.828   6.704   0.990 -0.4369  0.5152 -0.2638
 4761TIP3    H238479   5.680   6.737   0.997 -0.4331  0.4537  0.1100
 4762TIP3   OH238480   0.125   1.478   9.710  0.1623 -0.2486 -0.3528
 4762TIP3    H138481   0.127   1.386   9.738 -1.6754  0.0479  0.9741
 4762TIP3    H238482   0.214   1.509   9.724  0.4794 -1.4653  0.5485
 4763TIP3   OH238483   3.648   7.064   0.297  0.1012 -0.3123 -0.0819
 4763TIP3    H138484   3.729   7.078   0.345 -0.4832  0.7643  0.6442
 4763TIP3    H238485   3.607   7.150   0.294 -0.7204 -0.7168 -0.9772
 4764TIP3   OH238486   2.466   5.459   7.764  0.0616 -0.5091 -0.1553
 4764TIP3    H138487   2.424   5.402   7.829 -0.3448  0.2642  0.2680
 4764TIP3    H238488   2.494   5.536   7.814 -1.0478  0.5064 -1.0460
 4765TIP3   OH238489   2.072   2.698   9.871 -0.0341  0.3353  0.0455
 4765TIP3    H138490   2.113   2.629   9.923  1.0636  1.5715  0.8719
 4765TIP3    H238491   1.997   2.727   9.924  2.9500  3.9236  2.8386
 4766TIP3   OH238492   1.822   2.639   9.259 -0.2271  0.2367  0.0024
 4766TIP3    H138493   1.875   2.603   9.331 -1.5328  1.6380  1.7765
 4766TIP3    H238494   1.877   2.707   9.220  0.2067  0.0119  0.2171
 4767TIP3   OH238495   1.113   0.287   9.724  0.1848 -0.0845  0.2353
 4767TIP3    H138496   1.163   0.361   9.690  1.3099 -0.6934  0.5209
 4767TIP3    H238497   1.072   0.248   9.647  1.5578 -0.6020 -0.2701
 4768TIP3   OH238498   3.063   7.200   2.022  0.5032  0.5403 -0.0075
 4768TIP3    H138499   2.976   7.170   2.050  0.0549  1.2968 -0.5491
 4768TIP3    H238500   3.093   7.255   2.094  1.0255 -0.6254  0.6772
 4769TIP3   OH238501   3.834   6.039   9.325 -0.4670  0.0431 -0.1671
 4769TIP3    H138502   3.899   6.104   9.352  0.9391 -1.0174 -0.8988
 4769TIP3    H238503   3.825   5.982   9.402 -0.3291  0.0234 -0.1660
 4770TIP3   OH238504   2.828   1.340   2.459  0.0018 -0.2106 -0.2802
 4770TIP3    H138505   2.778   1.413   2.496  0.9511  0.2577  0.1108
 4770TIP3    H238506   2.825   1.273   2.527  2.8052  1.1025  1.3384
 4771TIP3   OH238507   0.804   6.396   0.716  0.2183  0.7084  0.7486
 4771TIP3    H138508   0.717   6.416   0.749 -0.1625  0.7362 -0.2494
 4771TIP3    H238509   0.859   6.392   0.795 -0.3558  2.2776  1.2567
 4772TIP3   OH238510   0.058   4.461   8.627 -0.8979  0.2015  0.0525
 4772TIP3    H138511   0.132   4.518   8.608 -1.1839  0.5607  0.0142
 4772TIP3    H238512   0.098   4.376   8.647 -0.2394  1.2112  3.5719
 4773TIP3   OH238513   2.709   4.630   7.841  0.7606 -0.1512  0.1635
 4773TIP3    H138514   2.633   4.609   7.787  0.6822 -0.5061  0.4083
 4773TIP3    H238515   2.776   4.566   7.817  1.7353  1.4389 -1.5634
 4774TIP3   OH238516   2.605   6.455   1.987  0.1169  0.2098  0.1927
 4774TIP3    H138517   2.695   6.460   2.018  0.2155 -2.1919  0.5525
 4774TIP3    H238518   2.598   6.522   1.920  2.2079  0.3832  0.0964
 4775TIP3   OH238519   5.634   3.795   1.195  0.0746  0.3775 -0.2482
 4775TIP3    H138520   5.680   3.798   1.279  0.4573 -0.5148 -0.4101
 4775TIP3    H238521   5.542   3.802   1.218 -0.0033 -2.1584  0.4757
 4776TIP3   OH238522   1.765   6.088   1.229 -0.3742 -0.6067 -0.2949
 4776TIP3    H138523   1.743   6.025   1.160 -2.5522  0.1590 -0.3731
 4776TIP3    H238524   1.776   6.171   1.183 -0.8000 -0.3001  0.1507
 4777TIP3   OH238525   2.008   0.011   9.334 -0.3173  0.5401  0.0919
 4777TIP3    H138526   2.077   0.013   9.269  0.5817 -1.4904  0.8858
 4777TIP3    H238527   1.989  -0.082   9.346 -2.1205  0.9790  1.0099
 4778TIP3   OH238528   5.729   6.286   0.464  0.7718 -0.0884  0.4355
 4778TIP3    H138529   5.653   6.323   0.419  0.4396  0.0948  1.1311
 4778TIP3    H238530   5.701   6.277   0.555  1.7288  0.3679  0.7888
 4779TIP3   OH238531   0.487   1.237   1.399  0.6847 -0.2414 -0.0796
 4779TIP3    H138532   0.564   1.229   1.343  0.7176 -0.7265  0.0323
 4779TIP3    H238533   0.417   1.197   1.349  0.4322  0.4726 -0.3106
 4780TIP3   OH238534   0.541   2.982   9.575  0.3292 -0.1302  0.1955
 4780TIP3    H138535   0.595   2.904   9.592 -0.8951 -1.1240 -0.2951
 4780TIP3    H238536   0.480   2.986   9.649 -0.3913 -0.3504 -0.3744
 4781TIP3   OH238537   0.625   4.914   0.778  0.0852 -0.5877  0.2382
 4781TIP3    H138538   0.703   4.931   0.831  0.6910  0.7089 -1.0266
 4781TIP3    H238539   0.585   5.000   0.765  0.6583 -0.6474 -2.4282
 4782TIP3   OH238540   5.391   1.241   8.904  0.1191 -0.1274 -0.3229
 4782TIP3    H138541   5.368   1.208   8.817  0.6752  0.4662 -0.7021
 4782TIP3    H238542   5.474   1.287   8.891 -0.2423  0.7399  0.3442
 4783TIP3   OH238543   0.818   2.616   1.907  0.8282 -0.8443  0.4389
 4783TIP3    H138544   0.914   2.613   1.913  0.9367 -0.6135 -0.8599
 4783TIP3    H238545   0.797   2.556   1.835  0.3006  1.6848 -1.6517
 4784TIP3   OH238546   1.514   5.112   2.446  0.1670  0.0831  0.2652
 4784TIP3    H138547   1.469   5.135   2.527  0.2786  1.4609 -0.0375
 4784TIP3    H238548   1.530   5.196   2.403  3.8374 -0.1672  0.7784
 4785TIP3   OH238549   0.507   0.429   1.885 -0.2461 -0.4437  0.2464
 4785TIP3    H138550   0.446   0.401   1.817  1.6611 -0.6180 -1.4812
 4785TIP3    H238551   0.525   0.521   1.865  0.9790 -0.7260 -0.0395
 4786TIP3   OH238552   5.550   5.726   7.820  0.4496  0.8099 -0.1134
 4786TIP3    H138553   5.582   5.773   7.743  3.4299 -0.7415  0.0319
 4786TIP3    H238554   5.503   5.650   7.785  0.5969  0.8471 -0.3936
 4787TIP3   OH238555   0.326   6.848   6.894 -0.2275  0.1825 -0.1353
 4787TIP3    H138556   0.249   6.844   6.837 -0.3371  0.8633 -0.0509
 4787TIP3    H238557   0.314   6.776   6.956 -0.4905 -0.0919 -0.4997
 4788TIP3   OH238558   2.386   4.132   0.754  0.1647  0.1422  0.4534
 4788TIP3    H138559   2.349   4.083   0.681 -1.3711  0.8678  0.7068
 4788TIP3    H238560   2.350   4.220   0.746  1.7536  0.8707  0.8161
 4789TIP3   OH238561   1.174   5.069   8.173 -0.1781  0.7078  0.0205
 4789TIP3    H138562   1.209   5.153   8.144 -0.7147  0.6698 -0.7586
 4789TIP3    H238563   1.147   5.025   8.093  2.8201 -1.5111  0.0330
 4790TIP3   OH238564   6.337   4.801   1.410  0.4244 -0.0255  0.2998
 4790TIP3    H138565   6.261   4.858   1.411  1.0362  0.8343 -0.4542
 4790TIP3    H238566   6.343   4.767   1.500 -1.3502 -0.8385  0.1569
 4791TIP3   OH238567   7.415   1.139   9.539 -0.0857  0.4579  0.4940
 4791TIP3    H138568   7.481   1.071   9.554  0.3795  0.6262 -0.7228
 4791TIP3    H238569   7.419   1.194   9.617 -0.2578 -0.7221  1.3618
 4792TIP3   OH238570   2.555   2.174   8.403  0.2228  0.5775  0.0038
 4792TIP3    H138571   2.585   2.241   8.464  2.9750 -0.1076 -0.4727
 4792TIP3    H238572   2.634   2.123   8.382 -1.0855 -0.6580 -2.3073
 4793TIP3   OH238573   5.483   0.071   9.048  0.1713 -0.0802  0.0423
 4793TIP3    H138574   5.551   0.011   9.015  0.0541  0.6779 -1.6636
 4793TIP3    H238575   5.418   0.073   8.978  0.4320  2.4465 -0.2233
 4794TIP3   OH238576   6.855   5.324   9.857  0.1150  0.3915 -0.3940
 4794TIP3    H138577   6.879   5.400   9.804  1.7766 -0.4973 -0.9904
 4794TIP3    H238578   6.781   5.354   9.910 -0.5524  1.8091 -2.0250
 4795TIP3   OH238579   4.741   2.553   0.235  0.2359  0.2028 -0.2297
 4795TIP3    H138580   4.732   2.564   0.329  0.3726 -0.5398 -0.1224
 4795TIP3    H238581   4.651   2.549   0.202  0.1515 -1.6476  0.1422
 4796TIP3   OH238582   6.442   5.259   1.904  0.1123 -0.2478  0.4105
 4796TIP3    H138583   6.504   5.311   1.853  0.9140 -0.1316  1.4900
 4796TIP3    H238584   6.358   5.305   1.894  0.6874  0.9282  0.8688
 4797TIP3   OH238585   4.719   5.848   0.590 -0.5388 -0.3554 -0.0734
 4797TIP3    H138586   4.744   5.826   0.680  1.8628 -1.3218 -0.9024
 4797TIP3    H238587   4.713   5.943   0.590  2.5180 -0.0556  0.4700
 4798TIP3   OH238588   5.001   6.026   2.256  0.3072 -0.2556  0.2848
 4798TIP3    H138589   5.069   6.086   2.287  0.1851  0.0593 -0.0477
 4798TIP3    H238590   4.921   6.054   2.301 -0.0574  0.7510 -0.9163
 4799TIP3   OH238591   5.180   3.210   0.272 -0.7552 -0.4086  0.2238
 4799TIP3    H138592   5.255   3.200   0.331 -1.8622 -1.5152  1.5385
 4799TIP3    H238593   5.130   3.282   0.311 -0.1033  0.7410 -0.9984
 4800TIP3   OH238594   3.744   4.846   9.325  0.3844 -0.4296  0.2661
 4800TIP3    H138595   3.745   4.859   9.420 -2.2319 -0.4079  0.3664
 4800TIP3    H238596   3.739   4.935   9.289  0.2718 -0.4766  0.1647
 4801TIP3   OH238597   4.391   3.005   7.365 -0.4332 -0.0519 -0.0759
 4801TIP3    H138598   4.312   2.950   7.363 -0.0654 -0.5615 -1.2054
 4801TIP3    H238599   4.395   3.044   7.278  0.5393 -0.0010 -0.0171
 4802TIP3   OH238600   0.609   1.615   9.489 -0.0361  0.6119 -0.1532
 4802TIP3    H138601   0.625   1.529   9.529  0.7789  1.6339  1.8549
 4802TIP3    H238602   0.666   1.617   9.412 -0.3002 -0.7384 -0.4159
 4803TIP3   OH238603   5.294   0.026   0.791 -0.2847  0.3160  0.1509
 4803TIP3    H138604   5.302  -0.034   0.865 -0.3538  0.5135  0.3206
 4803TIP3    H238605   5.384   0.052   0.773 -0.2684  0.2777  0.1751
 4804TIP3   OH238606   2.971   4.052   0.682 -0.3770  0.1367  0.1455
 4804TIP3    H138607   2.971   3.956   0.681  0.2321  0.1387 -0.4863
 4804TIP3    H238608   3.062   4.076   0.696  0.4617  0.6245 -4.5015
 4805TIP3   OH238609   0.888   5.018   1.898 -0.4431  0.1217 -0.4125
 4805TIP3    H138610   0.977   4.998   1.871 -0.1510  1.1982 -0.2991
 4805TIP3    H238611   0.879   4.979   1.985 -0.4597 -0.9228 -0.8640
 4806TIP3   OH238612   2.263   2.703   7.560  0.0963 -0.4288 -0.2584
 4806TIP3    H138613   2.203   2.720   7.633  0.3904  1.3216 -0.3809
 4806TIP3    H238614   2.333   2.651   7.598  1.5666  2.5286  1.4375
 4807TIP3   OH238615   0.272   4.270   1.082 -0.6103  0.3463  0.0395
 4807TIP3    H138616   0.186   4.294   1.118 -1.2636 -0.3588 -0.9863
 4807TIP3    H238617   0.251   4.209   1.011  0.8374 -1.3721  1.0183
 4808TIP3   OH238618   4.174   0.436   8.892  0.0886 -0.5088 -0.5735
 4808TIP3    H138619   4.182   0.341   8.887 -1.3021 -0.7932  1.3668
 4808TIP3    H238620   4.080   0.453   8.884 -0.0828  0.3607  2.0316
 4809TIP3   OH238621   4.328   7.360   1.203 -0.1468 -0.1849  0.1507
 4809TIP3    H138622   4.245   7.325   1.234 -0.6443  0.6829 -0.1854
 4809TIP3    H238623   4.333   7.334   1.111 -0.9649  1.4036 -0.3667
 4810TIP3   OH238624   1.435   1.752   1.379 -0.0054 -0.0614 -0.3835
 4810TIP3    H138625   1.425   1.847   1.392  1.6464  0.1049 -0.1025
 4810TIP3    H238626   1.520   1.743   1.337  1.1428 -1.5857  2.0782
 4811TIP3   OH238627   6.918   1.889   8.520 -0.0864  0.4721 -0.1934
 4811TIP3    H138628   6.920   1.794   8.504 -1.6761  0.5964 -1.2721
 4811TIP3    H238629   6.827   1.908   8.542  0.7127  1.3673  2.8211
 4812TIP3   OH238630   0.278   6.326   8.874 -0.5334 -0.3211  0.2311
 4812TIP3    H138631   0.322   6.248   8.909 -1.6023 -1.2589 -0.4395
 4812TIP3    H238632   0.318   6.338   8.788 -1.1479 -0.8192 -0.1321
 4813TIP3   OH238633   1.695   1.602   8.690  0.0728  0.0220  0.2242
 4813TIP3    H138634   1.745   1.653   8.754 -0.6337 -1.8960  2.4430
 4813TIP3    H238635   1.684   1.516   8.731 -3.1791 -0.3286 -1.0966
 4814TIP3   OH238636   2.295   4.627   8.443 -0.6048  0.9475  0.1371
 4814TIP3    H138637   2.240   4.699   8.474 -1.6386 -0.2398  1.1419
 4814TIP3    H238638   2.259   4.604   8.358 -1.3074  0.5607  0.5346
 4815TIP3   OH238639   2.979   4.318   8.544 -0.4060 -0.4731  0.2795
 4815TIP3    H138640   3.039   4.244   8.541 -0.7061 -0.7772  1.1861
 4815TIP3    H238641   2.990   4.362   8.460 -0.1522 -1.4925 -0.2398
 4816TIP3   OH238642   5.186   3.458   1.624 -0.4271  0.3084  0.3197
 4816TIP3    H138643   5.280   3.450   1.638 -0.5273 -1.5611  0.2066
 4816TIP3    H238644   5.150   3.377   1.660 -2.0740  1.2777  0.9457
 4817TIP3   OH238645   5.182   0.491   0.232  0.0220  0.0762 -0.1684
 4817TIP3    H138646   5.277   0.501   0.238 -0.2070  1.6046  2.5943
 4817TIP3    H238647   5.158   0.445   0.313 -1.6428  0.3220 -0.4938
 4818TIP3   OH238648   3.809   2.549   8.708 -0.2719 -0.1356 -0.0943
 4818TIP3    H138649   3.873   2.611   8.742 -1.4814  0.6944  0.7621
 4818TIP3    H238650   3.843   2.524   8.623  1.0994  0.4011  0.2670
 4819TIP3   OH238651   1.671   1.492   9.975  0.4135  0.7711 -0.3722
 4819TIP3    H138652   1.703   1.440   9.901 -0.3316  0.6154 -0.5944
 4819TIP3    H238653   1.577   1.476   9.976  0.4657  0.4810  0.8468
 4820TIP3   OH238654   5.799   7.386   0.519 -0.5397 -0.5338 -0.3745
 4820TIP3    H138655   5.881   7.430   0.498  0.6865 -3.1809 -1.4682
 4820TIP3    H238656   5.737   7.417   0.453  0.9265 -2.1177 -2.6022
 4821TIP3   OH238657   6.014   6.037   7.146  0.3624  0.0954  0.0859
 4821TIP3    H138658   6.100   6.049   7.107  0.7787 -0.0497  0.9404
 4821TIP3    H238659   6.017   5.949   7.183 -0.6592 -0.4845 -1.1105
 4822TIP3   OH238660   6.912   4.410   2.121  0.2934  0.5667  0.3300
 4822TIP3    H138661   6.840   4.403   2.183 -1.1397 -1.7926 -1.4295
 4822TIP3    H238662   6.874   4.453   2.044  1.0279  0.2267 -0.2456
 4823TIP3   OH238663   2.467   4.062   2.677  0.2221  0.7221  0.5291
 4823TIP3    H138664   2.499   4.121   2.609 -0.1764  0.6705  0.2906
 4823TIP3    H238665   2.438   4.121   2.747 -2.8254  1.0308 -0.8283
 4824TIP3   OH238666   1.965   1.926   0.250 -0.3125  1.1518  0.7620
 4824TIP3    H138667   1.959   2.021   0.245 -0.4692  1.0741 -1.5635
 4824TIP3    H238668   1.889   1.894   0.202  2.0836 -0.0484 -2.5654
 4825TIP3   OH238669   5.224   6.404   9.447  0.1980  0.7235 -0.6757
 4825TIP3    H138670   5.194   6.357   9.369 -1.0014 -0.6056  0.5335
 4825TIP3    H238671   5.241   6.493   9.416  0.8305 -0.0209 -2.6671
 4826TIP3   OH238672   1.372   3.043   0.555 -0.1406 -0.6341 -0.3362
 4826TIP3    H138673   1.366   3.115   0.492 -0.6684  0.3276  0.7770
 4826TIP3    H238674   1.457   3.003   0.538  0.5044  0.7395 -0.4886
 4827TIP3   OH238675   7.031   0.959   0.754  0.0600 -0.1312  0.4145
 4827TIP3    H138676   6.959   0.912   0.796 -1.0576 -0.1497 -1.3885
 4827TIP3    H238677   7.055   0.904   0.679 -0.2056  1.3463 -0.8186
 4828TIP3   OH238678   6.707   5.887   1.403 -0.5133 -0.1388  0.0293
 4828TIP3    H138679   6.666   5.802   1.388  0.2341 -0.7698  1.4068
 4828TIP3    H238680   6.644   5.951   1.367 -0.5094 -1.2936 -2.2010
 4829TIP3   OH238681   4.549   0.729   9.390  0.4891 -0.2538  0.0609
 4829TIP3    H138682   4.480   0.662   9.400 -0.6054  0.6746 -0.9376
 4829TIP3    H238683   4.623   0.694   9.440 -0.3656 -1.7582  0.3621
 4830TIP3   OH238684   1.989   6.217   7.132 -0.3124 -0.2142  0.4163
 4830TIP3    H138685   1.964   6.287   7.072  0.5200  0.1800  0.5081
 4830TIP3    H238686   2.083   6.204   7.116 -0.3456 -0.9562  0.7626
 4831TIP3   OH238687   0.486   1.129   2.658 -0.5188 -0.2520 -0.1769
 4831TIP3    H138688   0.556   1.088   2.709  0.1114 -0.6738 -1.3253
 4831TIP3    H238689   0.462   1.207   2.708  1.0596  0.1199  0.0745
 4832TIP3   OH238690   3.257   0.275   1.556  0.4778 -0.4473 -0.5329
 4832TIP3    H138691   3.298   0.215   1.618  0.8623  0.2224 -0.1179
 4832TIP3    H238692   3.207   0.336   1.611  0.3980 -0.1623 -0.9115
 4833TIP3   OH238693   0.326   2.430   0.274  0.1491  0.0278  0.3675
 4833TIP3    H138694   0.240   2.438   0.233  1.1902  0.2681 -1.8558
 4833TIP3    H238695   0.355   2.520   0.288  0.1586 -0.0539  0.9257
 4834TIP3   OH238696   5.270   0.801   7.653  0.3843  0.3842 -0.4147
 4834TIP3    H138697   5.339   0.866   7.662  0.7794 -0.2307  1.1962
 4834TIP3    H238698   5.261   0.762   7.740 -0.2253 -1.3229 -1.1900
 4835TIP3   OH238699   3.760   4.164   8.558  0.6699 -0.3763  0.5723
 4835TIP3    H138700   3.736   4.129   8.644  1.1758 -0.6399  0.6108
 4835TIP3    H238701   3.810   4.243   8.579 -0.3611  0.3148  0.4879
 4836TIP3   OH238702   5.473   4.854   9.076 -0.0220 -0.3411 -0.0983
 4836TIP3    H138703   5.471   4.948   9.058 -2.0577 -0.4733 -0.7670
 4836TIP3    H238704   5.444   4.847   9.167  1.9234 -0.2443  0.5740
 4837TIP3   OH238705   7.295   6.763   9.985 -0.2633  0.4497 -0.1134
 4837TIP3    H138706   7.283   6.684  10.039  1.6300  0.0299 -0.2435
 4837TIP3    H238707   7.267   6.835  10.041  0.6845 -0.0771  1.0840
 4838TIP3   OH238708   2.431   1.847   8.062 -0.1370 -0.5797 -0.2734
 4838TIP3    H138709   2.510   1.831   8.011 -0.2007 -0.0419 -0.5507
 4838TIP3    H238710   2.458   1.839   8.153  0.3203 -0.0701 -0.3571
 4839TIP3   OH238711   4.360   1.700   9.766 -0.7065 -0.7348 -0.0917
 4839TIP3    H138712   4.313   1.760   9.824  1.2978  2.7660 -1.7643
 4839TIP3    H238713   4.414   1.648   9.826  0.3063  1.8154  1.4170
 4840TIP3   OH238714   1.388   4.156   8.228 -0.5780  0.3824 -0.0695
 4840TIP3    H138715   1.404   4.079   8.173  2.4689  0.3253  0.7251
 4840TIP3    H238716   1.406   4.230   8.171  3.0645  0.3199  0.7788
 4841TIP3   OH238717   0.702   6.391   7.312 -0.0832  0.1536  0.4385
 4841TIP3    H138718   0.668   6.312   7.354  0.9008 -0.7163 -0.3654
 4841TIP3    H238719   0.671   6.385   7.222 -1.1003  1.3645  0.6766
 4842TIP3   OH238720   6.715   3.146   9.792 -0.0027  0.0280 -0.0281
 4842TIP3    H138721   6.627   3.147   9.756 -0.3542  0.4594  0.8304
 4842TIP3    H238722   6.718   3.067   9.846  0.4738 -0.5307 -0.8321
 4843TIP3   OH238723   0.935   0.189   1.459 -0.0540  0.1027  0.0230
 4843TIP3    H138724   0.923   0.094   1.461 -0.2846  0.0987 -1.1836
 4843TIP3    H238725   0.848   0.224   1.479  0.4126  0.0883  2.3134
 4844TIP3   OH238726   7.003   0.532   7.347  0.4866  0.4931 -0.1264
 4844TIP3    H138727   6.958   0.466   7.400  1.2010  0.3238  0.2829
 4844TIP3    H238728   6.997   0.612   7.399 -0.5531  0.8238 -0.7117
 4845TIP3   OH238729   3.941   0.907   1.332 -0.8155 -0.4634  0.2989
 4845TIP3    H138730   3.989   0.843   1.279  0.9945  0.0508  1.2412
 4845TIP3    H238731   3.943   0.871   1.421 -3.3113 -1.0283  0.1865
 4846TIP3   OH238732   4.496   7.342   1.759 -0.7474  0.0921  0.0324
 4846TIP3    H138733   4.569   7.352   1.820 -0.5226  0.7747 -0.3312
 4846TIP3    H238734   4.501   7.420   1.704 -3.3240  1.5982  1.6758
 4847TIP3   OH238735   2.827   2.552   0.355  0.1942  0.2656  1.0288
 4847TIP3    H138736   2.875   2.535   0.274 -0.0287 -1.4582  1.2360
 4847TIP3    H238737   2.769   2.477   0.366 -1.7545  1.7161  1.4065
 4848TIP3   OH238738   1.430   0.287   7.717  0.2776  0.1134  0.0238
 4848TIP3    H138739   1.419   0.360   7.656  1.3287 -0.4335 -0.8601
 4848TIP3    H238740   1.423   0.327   7.804  1.4180  1.3905 -0.4334
 4849TIP3   OH238741   3.002   3.025   9.419 -0.5778 -0.1346 -0.6565
 4849TIP3    H138742   3.085   2.980   9.429 -0.0070  0.5637 -1.9989
 4849TIP3    H238743   2.999   3.087   9.492  0.8729  0.9790 -1.4841
 4850TIP3   OH238744   5.230   5.648   1.910  0.4154 -0.7302  0.3218
 4850TIP3    H138745   5.290   5.656   1.836  0.2750 -0.4400  0.2351
 4850TIP3    H238746   5.279   5.599   1.976  0.6825 -0.6502  0.1846
 4851TIP3   OH238747   0.653   2.748   1.594  0.4310  0.0456  0.1516
 4851TIP3    H138748   0.617   2.808   1.528  0.1773  0.6887  0.8466
 4851TIP3    H238749   0.729   2.795   1.629  0.4432 -0.1999  0.4511
 4852TIP3   OH238750   4.902   6.355   9.431 -0.0060  0.7643 -0.1857
 4852TIP3    H138751   4.920   6.261   9.425  0.2816  0.6126  2.1481
 4852TIP3    H238752   4.894   6.384   9.340  2.9753 -0.9142 -1.0940
 4853TIP3   OH238753   5.273   7.390   8.376  0.2158  0.2482 -0.1234
 4853TIP3    H138754   5.252   7.329   8.448  0.2244 -0.7487 -0.9371
 4853TIP3    H238755   5.365   7.412   8.390  0.2018  0.1167  0.2029
 4854TIP3   OH238756   6.020   5.982   0.677  0.8199  0.7267 -0.1002
 4854TIP3    H138757   6.068   5.980   0.760  1.4588  0.5741 -0.4685
 4854TIP3    H238758   6.036   5.896   0.639 -0.1590  0.4924 -0.0016
 4855TIP3   OH238759   6.430   7.414   7.856 -0.0387 -0.3357 -0.4450
 4855TIP3    H138760   6.342   7.449   7.871  1.3115  4.1593 -1.3620
 4855TIP3    H238761   6.450   7.436   7.765  2.7106  0.8302  0.3161
 4856TIP3   OH238762   3.919   6.576   7.491 -0.6388 -0.2998 -0.2878
 4856TIP3    H138763   3.865   6.620   7.425  0.5464 -1.2223 -1.9365
 4856TIP3    H238764   3.895   6.484   7.484 -0.9440 -0.3427  1.0464
 4857TIP3   OH238765   3.317   1.388   0.516 -0.2163 -0.3152 -0.0616
 4857TIP3    H138766   3.267   1.459   0.555 -1.6886 -1.0624 -0.5180
 4857TIP3    H238767   3.331   1.326   0.587  1.2529  0.4978  0.3884
 4858TIP3   OH238768   3.351   1.363   2.567 -0.3007 -0.3015 -0.0275
 4858TIP3    H138769   3.416   1.293   2.582 -0.0141  0.1354  0.8396
 4858TIP3    H238770   3.284   1.321   2.513  1.0924 -0.5385 -1.6754
 4859TIP3   OH238771   1.398   5.769   0.855 -0.0485 -0.1270 -0.3651
 4859TIP3    H138772   1.470   5.742   0.911  0.0328 -1.3769 -1.0353
 4859TIP3    H238773   1.325   5.783   0.915  0.1421 -1.0814  0.1202
 4860TIP3   OH238774   4.333   6.648   8.985 -0.1875 -0.0471  0.1575
 4860TIP3    H138775   4.289   6.571   8.949 -0.1661  0.4229 -0.9300
 4860TIP3    H238776   4.426   6.631   8.970 -0.2526  0.8178 -1.4762
 4861TIP3   OH238777   1.881   4.970   1.410  0.4926  0.3020  0.0648
 4861TIP3    H138778   1.874   4.999   1.319  0.9142  0.5360  0.1037
 4861TIP3    H238779   1.927   4.886   1.404 -2.7453 -1.6092 -0.2572
 4862TIP3   OH238780   3.779   5.845   9.133 -0.0451 -0.4872  0.0533
 4862TIP3    H138781   3.722   5.798   9.194  0.9040 -0.7936  0.7356
 4862TIP3    H238782   3.800   5.927   9.178 -2.6310  1.2155 -1.6171
 4863TIP3   OH238783   1.226   1.500   9.605 -0.5288 -0.1610  0.6826
 4863TIP3    H138784   1.285   1.575   9.596 -1.2681  0.6259  1.9973
 4863TIP3    H238785   1.164   1.510   9.533  0.0514 -0.1740  0.1689
 4864TIP3   OH238786   4.256   5.002   8.890 -0.1634 -0.4827 -0.0565
 4864TIP3    H138787   4.198   5.026   8.817  0.1673  1.4074  0.2523
 4864TIP3    H238788   4.342   5.035   8.865  0.6083 -2.3327 -0.0324
 4865TIP3   OH238789   4.349   1.033   9.046 -0.0711 -0.0311  0.1475
 4865TIP3    H138790   4.303   1.071   8.971  2.7192  2.2070 -0.5892
 4865TIP3    H238791   4.301   1.064   9.123 -0.9696  0.4884 -0.6037
 4866TIP3   OH238792   2.662   2.463   1.618 -0.3589 -0.0829  0.2389
 4866TIP3    H138793   2.643   2.468   1.525  4.7913  0.6312 -1.0599
 4866TIP3    H238794   2.657   2.370   1.639 -0.7286 -0.3427 -0.9353
 4867TIP3   OH238795   2.211   3.971   7.401 -0.7785 -0.0121 -0.7037
 4867TIP3    H138796   2.150   4.025   7.450 -0.4577 -0.3624  0.1004
 4867TIP3    H238797   2.234   4.024   7.324  0.1552  1.3712  0.4625
 4868TIP3   OH238798   5.585   4.143   7.968 -0.2994  0.3971  0.1914
 4868TIP3    H138799   5.617   4.082   8.034 -0.8632 -0.0325  0.0717
 4868TIP3    H238800   5.616   4.229   7.997  0.2431  0.0946  0.5188
 4869TIP3   OH238801   0.868   3.839   1.722 -0.3670  0.4054  0.4213
 4869TIP3    H138802   0.912   3.916   1.755 -1.8011  0.6815  1.7768
 4869TIP3    H238803   0.822   3.802   1.797 -1.5868 -0.4499 -0.6785
 4870TIP3   OH238804   5.898   2.737   8.202  0.0232  0.3394  1.1213
 4870TIP3    H138805   5.899   2.832   8.214  1.5857  0.3915  0.7535
 4870TIP3    H238806   5.841   2.722   8.127  0.7000  1.0898  0.4513
 4871TIP3   OH238807   2.171   2.029   7.511 -0.4018  0.2602 -0.2950
 4871TIP3    H138808   2.089   2.079   7.516  0.0171  0.9270  0.0276
 4871TIP3    H238809   2.153   1.949   7.561 -1.0720  0.0857 -0.8002
 4872TIP3   OH238810   3.304   3.343   9.126 -0.0096  0.3059 -0.7593
 4872TIP3    H138811   3.237   3.303   9.180  0.4373  0.9144  0.2741
 4872TIP3    H238812   3.274   3.330   9.036 -0.2993 -1.5497 -0.4298
 4873TIP3   OH238813   7.456   0.973   1.347  0.4548 -0.2061 -0.0803
 4873TIP3    H138814   7.475   1.053   1.396 -0.3438  0.4869 -0.8709
 4873TIP3    H238815   7.500   0.904   1.396 -0.1698  0.4859  1.4893
 4874TIP3   OH238816   1.961   3.503   8.713 -0.4688 -0.1610  0.6177
 4874TIP3    H138817   1.928   3.557   8.785 -1.0760 -0.1410  0.3272
 4874TIP3    H238818   1.901   3.428   8.709 -0.4307 -0.1708  0.1427
 4875TIP3   OH238819   7.388   4.882   9.650 -0.1481  0.1708 -0.2072
 4875TIP3    H138820   7.306   4.930   9.662  0.3982  0.9320  0.5971
 4875TIP3    H238821   7.425   4.918   9.570  0.2002  1.0349  0.3264
 4876TIP3   OH238822   6.631   0.623   8.374  0.1674 -0.1996  0.0190
 4876TIP3    H138823   6.665   0.702   8.416  0.4361 -0.7858  0.9309
 4876TIP3    H238824   6.615   0.650   8.283 -0.8710  1.2337  0.5843
 4877TIP3   OH238825   5.928   3.666   9.639  0.3586  0.1307  0.3395
 4877TIP3    H138826   5.836   3.691   9.649 -0.1291 -1.6776  0.7557
 4877TIP3    H238827   5.930   3.606   9.564  0.9923 -0.6894  0.9808
 4878TIP3   OH238828   7.183   6.606   6.959  0.7036  0.4213  0.1068
 4878TIP3    H138829   7.163   6.513   6.953 -0.9063  0.7844 -1.0563
 4878TIP3    H238830   7.277   6.612   6.944  0.8647 -1.0257  0.4066
 4879TIP3   OH238831   2.802   1.867   9.849  0.0860 -0.1515  0.2972
 4879TIP3    H138832   2.737   1.887   9.782  1.9419  0.7267 -1.3463
 4879TIP3    H238833   2.828   1.952   9.883  1.9393 -0.2714 -0.6867
 4880TIP3   OH238834   2.257   2.894   9.840 -0.2042 -0.3177 -0.3559
 4880TIP3    H138835   2.338   2.874   9.793  1.0316  0.5512  1.2986
 4880TIP3    H238836   2.218   2.809   9.858  0.0556 -0.7231 -1.6370
 4881TIP3   OH238837   0.049   0.439   6.879  0.2585  0.1696 -0.3786
 4881TIP3    H138838   0.050   0.441   6.783 -0.5687 -1.6723 -0.4782
 4881TIP3    H238839   0.102   0.363   6.902 -0.5976 -0.1739  0.5499
 4882TIP3   OH238840   2.313   7.000   1.508 -0.2843 -0.1963  0.2396
 4882TIP3    H138841   2.264   7.080   1.489  0.9443  0.6383  0.5003
 4882TIP3    H238842   2.372   7.024   1.579  0.4263 -1.2127  0.0142
 4883TIP3   OH238843   0.038   6.273   6.829 -0.2408 -0.3425  0.1205
 4883TIP3    H138844  -0.007   6.189   6.818 -0.3543 -0.3152  0.3714
 4883TIP3    H238845   0.111   6.253   6.887  1.5704 -0.9296 -2.1882
 4884TIP3   OH238846   6.878   7.093   9.092 -0.4932  0.0609 -0.2580
 4884TIP3    H138847   6.919   7.166   9.138 -0.6521 -1.0933  1.8270
 4884TIP3    H238848   6.785   7.098   9.115 -0.7326 -0.1055 -1.1183
 4885TIP3   OH238849   3.008   4.261   7.520  0.2407 -0.0316  0.3930
 4885TIP3    H138850   3.080   4.317   7.493 -0.2941 -0.1704 -1.4549
 4885TIP3    H238851   2.930   4.316   7.514  0.1355  0.0741  2.2186
 4886TIP3   OH238852   1.654   4.469   8.842 -0.1814 -0.2424  0.4411
 4886TIP3    H138853   1.710   4.400   8.808  0.8518  1.0895 -0.6790
 4886TIP3    H238854   1.590   4.423   8.897  0.9712 -1.9687  0.4119
 4887TIP3   OH238855   0.907   1.926   7.217  0.4991 -0.1524 -0.4313
 4887TIP3    H138856   0.892   1.998   7.279 -1.0090 -0.1143 -0.8166
 4887TIP3    H238857   1.002   1.927   7.203  0.6671  0.9011  0.5947
 4888TIP3   OH238858   6.000   0.680   8.282  0.5984  0.1377  0.7598
 4888TIP3    H138859   6.039   0.761   8.250  0.1145 -0.1489 -0.6336
 4888TIP3    H238860   5.937   0.708   8.348  1.9220  0.7225  1.8181
 4889TIP3   OH238861   0.820   6.952   1.513 -0.1466  0.0955  0.4866
 4889TIP3    H138862   0.860   7.029   1.473  0.4943 -0.1532  0.6469
 4889TIP3    H238863   0.726   6.967   1.503 -0.0081  0.0150 -1.1644
 4890TIP3   OH238864   7.171   4.315   0.093  0.6176  0.2326  0.0064
 4890TIP3    H138865   7.176   4.340   0.186  0.0166  1.1792 -0.1970
 4890TIP3    H238866   7.250   4.354   0.055  1.7694 -1.5968  0.4054
 4891TIP3   OH238867   5.228   1.147   8.672  0.3622  0.6463  0.5500
 4891TIP3    H138868   5.256   1.058   8.650  0.5112  1.4776 -3.4874
 4891TIP3    H238869   5.134   1.139   8.685  0.1194  0.0140 -1.2405
 4892TIP3   OH238870   5.995   3.700   8.392  0.2777  0.3798  0.5027
 4892TIP3    H138871   5.930   3.630   8.395  0.1018  0.4878 -0.4141
 4892TIP3    H238872   6.005   3.719   8.299  1.5840  0.4018  0.6305
 4893TIP3   OH238873   2.245   3.071   8.263 -0.2843  0.1144 -0.3460
 4893TIP3    H138874   2.290   3.010   8.204  0.7519 -1.8337  2.2438
 4893TIP3    H238875   2.250   3.029   8.349 -2.7265  2.2403  0.9756
 4894TIP3   OH238876   2.646   6.057   2.751  0.3210 -0.0152 -0.3736
 4894TIP3    H138877   2.630   6.017   2.666  2.0336 -0.0179 -0.7338
 4894TIP3    H238878   2.681   5.986   2.805 -0.9287 -0.0636  0.4237
 4895TIP3   OH238879   6.693   5.433   8.851  0.6985  0.0022  0.1370
 4895TIP3    H138880   6.630   5.471   8.912  0.7900  0.3468  0.0184
 4895TIP3    H238881   6.671   5.340   8.849  1.1443 -0.1452  1.2515
 4896TIP3   OH238882   3.622   3.282   9.516  0.3629 -0.1287 -0.6878
 4896TIP3    H138883   3.692   3.323   9.464  1.5668 -0.8615  0.3112
 4896TIP3    H238884   3.666   3.213   9.566 -0.6904  0.6491  1.4463
 4897TIP3   OH238885   1.202   6.067   2.380 -0.1881  0.1353 -0.0159
 4897TIP3    H138886   1.242   6.059   2.467 -0.2613  0.3511  0.0372
 4897TIP3    H238887   1.206   5.978   2.344 -0.2686  0.0197  0.2554
 4898TIP3   OH238888   0.454   2.325   9.231  0.4989 -0.1204  0.2890
 4898TIP3    H138889   0.419   2.297   9.147 -1.6344  0.1269  1.0301
 4898TIP3    H238890   0.424   2.259   9.293  0.3059  0.7505  1.1541
 4899TIP3   OH238891   0.868   6.062   7.613  0.2035  0.4643  0.1861
 4899TIP3    H138892   0.781   6.036   7.641  0.9087 -1.0575  1.0990
 4899TIP3    H238893   0.883   6.147   7.657 -0.4325  0.2503  0.8348
 4900TIP3   OH238894   3.573   6.845   0.483  0.1268  0.2083  0.1420
 4900TIP3    H138895   3.566   6.863   0.389  0.5361 -1.1666 -0.1728
 4900TIP3    H238896   3.483   6.830   0.511  0.1092 -0.5834 -0.3024
 4901TIP3   OH238897   2.016   3.038   8.739 -0.3735 -0.0658 -0.1257
 4901TIP3    H138898   1.993   3.040   8.832 -1.0009  0.7131 -0.2917
 4901TIP3    H238899   2.053   3.124   8.721 -1.0625  0.0966 -0.7993
 4902TIP3   OH238900   4.214   5.507   9.226  0.2123 -0.2836 -0.3734
 4902TIP3    H138901   4.156   5.482   9.154 -0.9333  0.7768  0.1421
 4902TIP3    H238902   4.181   5.593   9.255  1.4820 -0.0729  0.5366
 4903TIP3   OH238903   2.461   6.368   7.309  0.5978  0.0973  0.0787
 4903TIP3    H138904   2.418   6.297   7.358  0.6279 -0.9490 -1.3355
 4903TIP3    H238905   2.393   6.402   7.251  0.5752  1.2940  0.7706
 4904TIP3   OH238906   1.979   5.130   8.446  0.3989  0.2242 -0.0286
 4904TIP3    H138907   1.925   5.169   8.514  0.7881  0.8456 -0.0697
 4904TIP3    H238908   1.968   5.187   8.370  1.2761  0.4968  0.0321
 4905TIP3   OH238909   5.098   3.584   9.029 -0.1922 -0.3337  0.1272
 4905TIP3    H138910   5.115   3.635   9.108  0.3696 -0.7225  0.2671
 4905TIP3    H238911   5.009   3.549   9.042 -0.4985  0.4331  0.1179
 4906TIP3   OH238912   4.027   7.095   7.453 -0.1080  0.2990  0.1536
 4906TIP3    H138913   4.104   7.095   7.396 -0.7617 -1.1969 -0.7977
 4906TIP3    H238914   4.015   7.187   7.477  2.3048  0.4954  0.8313
 4907TIP3   OH238915   3.305   4.449   1.764  0.0249  0.0881  0.3009
 4907TIP3    H138916   3.318   4.543   1.780 -0.9241  0.3996 -0.6066
 4907TIP3    H238917   3.215   4.432   1.792 -0.2306 -0.2655 -0.7023
 4908TIP3   OH238918   0.406   1.097   8.055 -0.1940 -0.3752  0.1532
 4908TIP3    H138919   0.335   1.065   7.998 -1.1234  2.4186 -0.3929
 4908TIP3    H238920   0.379   1.071   8.143 -1.4040 -0.2087 -0.1542
 4909TIP3   OH238921   0.404   5.922   0.022  0.4289  0.4732  0.7007
 4909TIP3    H138922   0.339   5.889   0.083  0.6043 -0.5228  0.3616
 4909TIP3    H238923   0.369   5.902  -0.065  0.4499  1.3652  0.4724
 4910TIP3   OH238924   1.465   1.330   2.432 -0.3018  0.1268 -0.0356
 4910TIP3    H138925   1.377   1.329   2.470 -0.0407 -0.5619  0.5696
 4910TIP3    H238926   1.452   1.362   2.342 -1.2237 -0.3985 -0.0983
 4911TIP3   OH238927   3.417   7.152   8.995  0.2628  0.0329 -1.0082
 4911TIP3    H138928   3.489   7.138   9.057  1.0090  1.0635 -1.6110
 4911TIP3    H238929   3.343   7.108   9.035  0.8369  0.2947  0.4198
 4912TIP3   OH238930   4.325   7.083   0.779 -0.3569  0.6005  0.0013
 4912TIP3    H138931   4.412   7.048   0.757 -0.8868 -1.2035  0.6391
 4912TIP3    H238932   4.298   7.034   0.857 -2.0234  1.0194 -0.2754
 4913TIP3   OH238933   1.884   4.664   8.560  0.4704  0.3104  0.5233
 4913TIP3    H138934   1.795   4.654   8.525  0.6013  0.7662  0.0572
 4913TIP3    H238935   1.919   4.741   8.516  0.6937  0.8184  1.5642
 4914TIP3   OH238936   2.273   0.706   1.282 -0.1156  0.3421  0.2571
 4914TIP3    H138937   2.286   0.686   1.190  1.2271  0.9573  0.2962
 4914TIP3    H238938   2.352   0.675   1.326  0.0783  1.6848  0.9267
 4915TIP3   OH238939   4.651   1.960   1.615 -0.1992 -0.3314 -0.1220
 4915TIP3    H138940   4.729   2.015   1.624 -0.3834  0.0772 -0.9702
 4915TIP3    H238941   4.662   1.892   1.682  0.7728 -0.1458 -0.0794
 4916TIP3   OH238942   2.385   2.100   7.121  0.4979  0.3810  0.0269
 4916TIP3    H138943   2.351   2.172   7.069 -2.5024 -1.1427 -0.3635
 4916TIP3    H238944   2.383   2.132   7.211 -0.9869  0.7725 -0.1171
 4917TIP3   OH238945   2.026   2.532   0.530 -0.4583  0.0636 -0.3976
 4917TIP3    H138946   2.037   2.592   0.604 -1.0331  1.4515 -1.4035
 4917TIP3    H238947   1.932   2.529   0.515 -0.3820 -0.6054 -0.7762
 4918TIP3   OH238948   4.032   0.464   8.603 -0.0382  0.6873 -0.1338
 4918TIP3    H138949   4.098   0.497   8.542 -0.2657 -0.0553 -0.7914
 4918TIP3    H238950   4.038   0.369   8.596 -0.5585  0.6014  0.4832
 4919TIP3   OH238951   4.266   5.728   8.836  0.1337 -0.4049 -0.2474
 4919TIP3    H138952   4.257   5.647   8.886  0.7075 -1.3256 -1.5634
 4919TIP3    H238953   4.348   5.716   8.786  0.0428  0.8347 -0.7284
 4920TIP3   OH238954   3.435   4.387   8.715  0.4755 -0.0486 -0.3028
 4920TIP3    H138955   3.423   4.299   8.750 -2.3711 -0.4899 -2.0571
 4920TIP3    H238956   3.475   4.373   8.629 -2.1836  0.0229 -1.6657
 4921TIP3   OH238957   2.505   0.098   1.729  0.0973 -0.4501 -0.0712
 4921TIP3    H138958   2.504   0.076   1.636  2.3261 -2.1621  0.2148
 4921TIP3    H238959   2.442   0.170   1.738 -1.2237 -1.1881 -2.6186
 4922TIP3   OH238960   5.074   5.185   0.158 -0.0810  0.0026  0.2373
 4922TIP3    H138961   5.006   5.217   0.218 -1.4408  1.5962 -1.9920
 4922TIP3    H238962   5.133   5.259   0.146  0.4061 -0.4269 -0.0563
 4923TIP3   OH238963   2.313   0.259   1.852 -0.2164 -0.1395  0.1762
 4923TIP3    H138964   2.344   0.322   1.917 -0.3576 -0.2994  0.4005
 4923TIP3    H238965   2.317   0.174   1.897  0.6095 -0.3874 -0.3352
 4924TIP3   OH238966   0.968   2.491   8.458 -0.1580  0.1267  0.0630
 4924TIP3    H138967   0.988   2.450   8.543  2.0246  1.9052  0.5018
 4924TIP3    H238968   0.881   2.459   8.437 -0.2627 -1.4010  2.3526
 4925TIP3   OH238969   4.892   4.786   7.029 -0.1459 -0.3825 -0.3506
 4925TIP3    H138970   4.855   4.709   7.071 -2.4807  0.5993 -0.4751
 4925TIP3    H238971   4.817   4.842   7.010  1.3517  1.4227 -1.3151
 4926TIP3   OH238972   4.480   6.374   9.069  0.2972  0.5844  0.8140
 4926TIP3    H138973   4.558   6.334   9.108 -0.2395 -1.1154  0.2315
 4926TIP3    H238974   4.459   6.318   8.995 -0.2464  2.2569 -0.3637
 4927TIP3   OH238975   7.011   2.958   9.804  0.9069  0.1529 -0.2974
 4927TIP3    H138976   7.015   2.996   9.892  0.4904  2.3018 -1.1532
 4927TIP3    H238977   7.020   2.864   9.819  0.0721  0.3764  2.1140
 4928TIP3   OH238978   5.808   1.129   1.896 -0.0644 -0.2814 -0.2567
 4928TIP3    H138979   5.879   1.147   1.835 -1.2891  0.9081 -1.3699
 4928TIP3    H238980   5.788   1.214   1.936 -2.3696 -0.1061 -1.6548
 4929TIP3   OH238981   6.065   0.984   7.441  0.0414 -0.0972 -0.0446
 4929TIP3    H138982   6.096   1.070   7.469 -1.2212  0.2053  0.4969
 4929TIP3    H238983   5.998   1.004   7.375  1.0844 -0.7337 -1.3438
 4930TIP3   OH238984   4.037   4.865   9.789  1.0363  0.4983  0.0924
 4930TIP3    H138985   4.042   4.769   9.792  0.9760  0.4815 -0.2954
 4930TIP3    H238986   4.089   4.890   9.712  0.0191  0.6835 -0.5617
 4931TIP3   OH238987   3.091   1.259   0.975 -0.0041  0.1122  0.1554
 4931TIP3    H138988   3.022   1.306   1.022  2.1450  1.6401  1.9750
 4931TIP3    H238989   3.143   1.218   1.044  0.5260 -1.6253 -1.2093
 4932TIP3   OH238990   5.399   1.964   2.313 -0.0277 -0.4123 -0.1119
 4932TIP3    H138991   5.331   1.975   2.379  0.9813  0.0866  0.8812
 4932TIP3    H238992   5.426   2.054   2.291  1.1248 -0.6151  0.4004
 4933TIP3   OH238993   6.208   5.066   9.334 -0.1248 -0.0590  0.1049
 4933TIP3    H138994   6.210   5.102   9.246  0.1742  2.0957  0.9383
 4933TIP3    H238995   6.129   5.103   9.374 -1.1118 -2.2219  0.3029
 4934TIP3   OH238996   5.237   0.188   1.738  0.2209  0.0128 -0.6318
 4934TIP3    H138997   5.275   0.132   1.806  0.1884 -1.2851 -1.6594
 4934TIP3    H238998   5.257   0.144   1.656  0.1835  1.5147 -1.4850
 4935TIP3   OH238999   6.252   1.821   1.765 -0.5246  1.1815  0.4031
 4935TIP3    H139000   6.168   1.846   1.726 -1.5578  0.9927  2.3457
 4935TIP3    H239001   6.229   1.756   1.831  1.5769 -1.5457 -1.3478
 4936TIP3   OH239002   6.352   4.952   7.797  0.0472  0.6038  0.1967
 4936TIP3    H139003   6.389   4.901   7.725 -0.4995 -1.1624  1.1127
 4936TIP3    H239004   6.357   5.043   7.767  1.2003  0.0442 -1.4307
 4937TIP3   OH239005   6.142   2.916   9.680 -0.2044 -0.2214  0.2145
 4937TIP3    H139006   6.188   2.959   9.752  1.2419 -2.4797  0.7467
 4937TIP3    H239007   6.050   2.937   9.694  0.3328  1.9181  0.9008
 4938TIP3   OH239008   3.455   4.403   0.218  0.2794  0.1316  0.2573
 4938TIP3    H139009   3.487   4.465   0.283  0.1608 -0.7163  1.1532
 4938TIP3    H239010   3.365   4.432   0.199  1.0088  1.6413 -1.1621
 4939TIP3   OH239011   1.333   1.314   7.773 -0.1122 -0.8587  0.0580
 4939TIP3    H139012   1.421   1.303   7.809 -0.1392 -0.8515  0.1275
 4939TIP3    H239013   1.279   1.338   7.849  0.0007  0.0300 -0.1309
 4940TIP3   OH239014   7.407   2.972   2.160  0.5084 -0.0466 -0.3863
 4940TIP3    H139015   7.346   2.980   2.233 -0.8880  1.2627 -1.6219
 4940TIP3    H239016   7.489   3.011   2.192  0.2261 -0.3476  0.7602
 4941TIP3   OH239017   6.058   5.439   0.699 -0.5315  0.1952  0.7663
 4941TIP3    H139018   6.004   5.414   0.773 -0.7557  0.0349  0.5495
 4941TIP3    H239019   6.148   5.436   0.732 -0.6148 -0.1088  0.9635
 4942TIP3   OH239020   2.037   0.032   8.358 -0.0193  0.4109 -0.2498
 4942TIP3    H139021   2.096   0.059   8.287  0.8398  0.4481  0.4542
 4942TIP3    H239022   2.085   0.054   8.438 -2.3441  3.6624  0.4753
 4943TIP3   OH239023   2.749   5.460   1.926  0.0060  0.9573 -0.1500
 4943TIP3    H139024   2.726   5.486   1.837 -0.7694 -0.4221 -0.3763
 4943TIP3    H239025   2.836   5.498   1.940  1.2318 -0.7519 -2.3906
 4944TIP3   OH239026   3.026   0.986   9.347 -0.1768 -0.0247 -0.2833
 4944TIP3    H139027   2.991   1.066   9.307  0.5249 -0.3978 -1.6825
 4944TIP3    H239028   3.057   0.934   9.273 -1.7923 -2.1852  0.4628
 4945TIP3   OH239029   3.838   1.416   9.657 -0.2089 -0.1486  0.4624
 4945TIP3    H139030   3.755   1.378   9.686  0.3660 -2.7091 -0.9610
 4945TIP3    H239031   3.905   1.366   9.702  0.6126  0.7541  0.2867
 4946TIP3   OH239032   0.499   5.922   8.242  0.4379  0.2840  0.6594
 4946TIP3    H139033   0.509   5.863   8.317 -0.2837  1.9942  2.1922
 4946TIP3    H239034   0.562   5.993   8.258  0.8417  0.2951 -0.7938
 4947TIP3   OH239035   2.888   7.058   9.933  0.6724  0.1046  0.4036
 4947TIP3    H139036   2.851   6.990   9.876 -0.1965  1.0483 -0.1799
 4947TIP3    H239037   2.843   7.045  10.017  1.2198 -0.6450  0.5938
 4948TIP3   OH239038   1.291   3.094   7.333 -0.0229  0.1199 -0.1799
 4948TIP3    H139039   1.269   3.017   7.280  1.3011 -0.4507  0.0517
 4948TIP3    H239040   1.215   3.152   7.323 -1.9767 -2.0018  1.2166
 4949TIP3   OH239041   2.503   7.061   6.731 -0.1347 -0.6398 -0.3812
 4949TIP3    H139042   2.555   7.100   6.802 -0.3123 -1.1319  0.0247
 4949TIP3    H239043   2.487   7.134   6.671 -0.4097 -0.0940  0.3361
 4950TIP3   OH239044   1.132   0.820   7.186  0.3660 -0.0565  0.1878
 4950TIP3    H139045   1.204   0.866   7.228 -0.5424  0.9218  0.7087
 4950TIP3    H239046   1.123   0.862   7.100  0.9773 -0.7802 -0.2475
 4951TIP3   OH239047   0.093   0.181   1.041  0.6030  0.1116  0.0943
 4951TIP3    H139048   0.059   0.110   0.987  1.6337  0.1012 -0.5806
 4951TIP3    H239049   0.089   0.258   0.984 -2.7417  1.2068  1.5710
 4952TIP3   OH239050   0.681   2.456   9.990  0.1238 -0.3652 -0.1226
 4952TIP3    H139051   0.636   2.374   9.967 -0.7619  0.0702  0.0321
 4952TIP3    H239052   0.725   2.483   9.910 -0.0205 -0.7070 -0.3198
 4953TIP3   OH239053   2.244   1.073   1.141  0.2274 -0.7613 -0.1797
 4953TIP3    H139054   2.214   1.018   1.213  0.8031 -0.3957  0.3515
 4953TIP3    H239055   2.165   1.095   1.092  0.0101 -2.2710 -0.5546
 4954TIP3   OH239056   3.262   4.124   0.703  0.1756  0.1594 -0.2780
 4954TIP3    H139057   3.271   4.060   0.632 -0.4060 -2.5584  1.9245
 4954TIP3    H239058   3.339   4.109   0.758 -0.3980  0.7864  0.7217
 4955TIP3   OH239059   2.315   4.387   0.609 -0.2986 -0.0052  0.4372
 4955TIP3    H139060   2.331   4.481   0.608  3.9636 -0.5524  1.3641
 4955TIP3    H239061   2.331   4.359   0.518  1.7520 -0.1667  0.8001
 4956TIP3   OH239062   6.878   5.629   8.082 -0.3252 -0.3702  0.0652
 4956TIP3    H139063   6.948   5.655   8.022 -2.4697  0.9233 -2.0807
 4956TIP3    H239064   6.903   5.542   8.112  1.5853 -0.4680 -1.6041
 4957TIP3   OH239065   0.972   3.486   7.931  0.2141 -0.0545 -0.1887
 4957TIP3    H139066   0.980   3.413   7.992  0.0485 -1.4737 -1.7748
 4957TIP3    H239067   1.037   3.549   7.960 -0.4077 -0.3007  1.9000
 4958TIP3   OH239068   3.077   4.395   1.920 -0.2189  0.1918 -0.3283
 4958TIP3    H139069   3.107   4.446   1.995  0.8281  0.0839 -0.6638
 4958TIP3    H239070   3.038   4.316   1.958  1.8457 -0.6928  0.0786
 4959TIP3   OH239071   5.047   5.247   9.275  0.2183 -0.2018 -0.5156
 4959TIP3    H139072   4.989   5.318   9.301  0.5821  0.4077 -1.3412
 4959TIP3    H239073   5.134   5.285   9.275  0.4131 -0.6384 -0.9870
 4960TIP3   OH239074   5.692   6.558   7.641  0.4356  0.2353  0.1489
 4960TIP3    H139075   5.726   6.638   7.682  1.1145  0.3297 -0.5646
 4960TIP3    H239076   5.599   6.575   7.629  0.2866  0.3511  1.2972
 4961TIP3   OH239077   7.152   0.840   0.074  0.6163  0.3101  0.1634
 4961TIP3    H139078   7.226   0.808   0.126 -0.0589 -0.4811  0.6570
 4961TIP3    H239079   7.160   0.795  -0.010 -0.2507 -1.1197  0.8067
 4962TIP3   OH239080   2.947   1.237   1.722 -0.1046  0.0528  0.3136
 4962TIP3    H139081   3.010   1.248   1.793 -1.5029  2.1741  1.3499
 4962TIP3    H239082   2.981   1.164   1.670  2.5983  0.4390  1.3968
 4963TIP3   OH239083   5.826   6.017   0.065 -0.7396  0.4762 -0.2649
 4963TIP3    H139084   5.867   5.969   0.136  0.5142 -0.5675 -1.6249
 4963TIP3    H239085   5.762   6.074   0.108 -0.2896 -0.3731  1.6328
 4964TIP3   OH239086   3.287   1.812   1.967  0.0515  0.1671 -0.4219
 4964TIP3    H139087   3.210   1.759   1.986  0.6671 -1.2121 -1.5775
 4964TIP3    H239088   3.252   1.898   1.941 -0.9600  0.3513  1.4234
 4965TIP3   OH239089   0.575   4.413   0.339  0.3799  0.1928  0.3335
 4965TIP3    H139090   0.629   4.456   0.272  2.0436 -0.7571  1.0147
 4965TIP3    H239091   0.513   4.481   0.365  0.4877  0.9761 -1.2670
 4966TIP3   OH239092   7.246   2.273   9.601  0.1302  0.1280  0.2186
 4966TIP3    H139093   7.177   2.256   9.665 -1.7896 -0.7151 -1.9178
 4966TIP3    H239094   7.268   2.187   9.566 -0.3880  0.6930 -1.6519
 4967TIP3   OH239095   5.892   5.547   7.750  0.3454  0.9988 -0.4979
 4967TIP3    H139096   5.986   5.547   7.767  0.5023  2.3349 -1.2377
 4967TIP3    H239097   5.882   5.497   7.669  0.2109 -0.5503  0.4350
 4968TIP3   OH239098   5.726   3.567   1.372  0.0420  0.1769 -0.1999
 4968TIP3    H139099   5.705   3.594   1.462 -1.2831  0.8697 -0.6924
 4968TIP3    H239100   5.788   3.633   1.341 -1.7172  1.6646 -0.7410
 4969TIP3   OH239101   2.518   5.605   7.989  0.2940  0.1740 -0.0177
 4969TIP3    H139102   2.555   5.681   7.944  1.2798 -0.1333  0.2498
 4969TIP3    H239103   2.547   5.614   8.079 -0.4435  0.0064  0.2478
 4970TIP3   OH239104   7.447   5.399   0.684  0.3465  0.3231  0.2733
 4970TIP3    H139105   7.449   5.390   0.779 -0.7975 -2.2139  0.1355
 4970TIP3    H239106   7.476   5.314   0.651 -1.9680  0.1618 -1.5849
 4971TIP3   OH239107   6.102   2.802   7.854  0.3594 -0.1054  0.0116
 4971TIP3    H139108   6.007   2.794   7.846  0.4853  0.3203 -5.7555
 4971TIP3    H239109   6.115   2.836   7.943 -4.5788 -2.0257  1.8622
 4972TIP3   OH239110   2.994   6.662   0.332  0.3680 -0.1270  0.1178
 4972TIP3    H139111   2.999   6.757   0.323  1.7936  0.0487  2.0444
 4972TIP3    H239112   2.975   6.648   0.425  1.0633 -1.7235  0.0518
 4973TIP3   OH239113   5.678   4.587   0.460 -0.4024 -0.0678  0.1952
 4973TIP3    H139114   5.748   4.523   0.471 -1.7437 -1.3974  1.3098
 4973TIP3    H239115   5.626   4.581   0.540 -0.6201  2.4011  0.3269
 4974TIP3   OH239116   6.512   3.872   8.532 -0.9053 -0.3376 -0.7788
 4974TIP3    H139117   6.512   3.903   8.623  0.8032 -0.2179 -0.7961
 4974TIP3    H239118   6.427   3.900   8.498 -1.5493 -0.3169  0.7458
 4975TIP3   OH239119   1.588   5.980   2.843 -0.0492  0.1789  0.8201
 4975TIP3    H139120   1.499   5.961   2.812  0.3434 -0.0340 -0.2056
 4975TIP3    H239121   1.602   5.918   2.914 -0.3396 -0.5014  0.2970
 4976TIP3   OH239122   2.641   3.112   8.100  0.1277 -0.3327 -0.0793
 4976TIP3    H139123   2.584   3.123   8.024 -0.1543 -0.8331  0.0541
 4976TIP3    H239124   2.599   3.161   8.170  1.1241  1.3274 -0.5996
 4977TIP3   OH239125   2.057   6.004   9.391  0.0767 -0.0148 -0.6705
 4977TIP3    H139126   2.088   6.093   9.377 -1.0920  0.4525 -0.3850
 4977TIP3    H239127   2.010   6.008   9.474  0.7347 -1.1008 -0.2220
 4978TIP3   OH239128   7.229   1.070   0.466  0.0257  0.6003  0.2536
 4978TIP3    H139129   7.288   1.100   0.535  2.3338 -1.2350 -0.7889
 4978TIP3    H239130   7.157   1.027   0.513  2.5419 -2.4428  1.6983
 4979TIP3   OH239131   3.246   6.268   3.205 -0.5261  0.3652 -0.0547
 4979TIP3    H139132   3.183   6.249   3.136 -2.0820 -1.8773  1.7959
 4979TIP3    H239133   3.244   6.190   3.261  0.7915  1.9558  2.4019
 4980TIP3   OH239134   0.918   0.711   7.773  0.3596 -0.0007 -0.4334
 4980TIP3    H139135   0.833   0.667   7.772 -0.0761  0.6747  1.6745
 4980TIP3    H239136   0.920   0.758   7.856  2.2239  1.1703 -1.0678
 4981TIP3   OH239137   5.916   2.666   0.809 -0.0716  0.1183  0.0880
 4981TIP3    H139138   5.940   2.600   0.874 -1.5029 -0.4714  0.0495
 4981TIP3    H239139   5.948   2.748   0.845  2.0779 -0.5839 -0.0278
 4982TIP3   OH239140   3.877   2.784   1.400 -0.2638 -0.1781 -0.8810
 4982TIP3    H139141   3.833   2.750   1.478 -0.1270 -0.0545 -0.7511
 4982TIP3    H239142   3.806   2.820   1.347 -0.0689  3.0860  0.8188
 4983TIP3   OH239143   2.802   0.939   8.983 -0.5492 -0.0953 -0.2395
 4983TIP3    H139144   2.729   0.882   9.008 -1.5329  1.0902 -0.3435
 4983TIP3    H239145   2.783   1.022   9.025  0.8429  0.1964 -0.1385
 4984TIP3   OH239146   0.510   6.403   8.730  0.4337 -0.3426 -0.0372
 4984TIP3    H139147   0.482   6.494   8.718 -1.1654 -0.6941  0.7452
 4984TIP3    H239148   0.519   6.369   8.642 -2.0896 -0.2979 -0.3844
 4985TIP3   OH239149   5.283   2.435   0.183 -0.2860  0.2614  0.5070
 4985TIP3    H139150   5.243   2.350   0.165 -1.3541  0.7922  0.2882
 4985TIP3    H239151   5.222   2.478   0.243  0.0512  1.0165  0.3221
 4986TIP3   OH239152   6.986   7.122   7.819 -0.0372 -0.0989  0.2908
 4986TIP3    H139153   6.912   7.142   7.763  1.7171  1.4526 -1.6308
 4986TIP3    H239154   6.958   7.151   7.906 -1.9530 -0.3625 -0.1878
 4987TIP3   OH239155   4.979   6.081   9.101 -0.2104 -0.2072  0.6499
 4987TIP3    H139156   4.888   6.069   9.076 -0.3343  0.7083  0.6346
 4987TIP3    H239157   5.006   5.995   9.135 -0.7578 -0.7681 -0.3031
 4988TIP3   OH239158   5.654   6.676   9.666  0.8056  0.1322 -0.1003
 4988TIP3    H139159   5.693   6.695   9.580  0.0283  1.5968 -0.1594
 4988TIP3    H239160   5.676   6.753   9.719  0.7069 -0.4654  0.8196
 4989TIP3   OH239161   3.365   5.890   8.244  0.3193  0.4417  0.1488
 4989TIP3    H139162   3.342   5.811   8.294  1.5579  0.4211  0.7227
 4989TIP3    H239163   3.441   5.863   8.192 -0.3713  0.7441 -1.0586
 4990TIP3   OH239164   1.042   7.185   8.691  0.8705 -0.3602  0.0651
 4990TIP3    H139165   1.037   7.199   8.786 -1.0441  0.7669 -0.1428
 4990TIP3    H239166   1.129   7.218   8.667  0.3263  2.0668  1.0785
 4991TIP3   OH239167   6.314   0.966   9.457  0.2140  0.0389  0.2595
 4991TIP3    H139168   6.296   0.876   9.429 -0.2901  0.0297  0.5941
 4991TIP3    H239169   6.363   0.957   9.538  1.7189  0.0658 -0.6034
 4992TIP3   OH239170   4.654   2.387   2.278 -0.1407 -0.2521  0.5947
 4992TIP3    H139171   4.669   2.476   2.309 -0.1130 -0.0252 -0.0587
 4992TIP3    H239172   4.742   2.351   2.264 -0.1083 -0.8808  2.2091
 4993TIP3   OH239173   5.900   3.248   9.280  0.0236 -0.1886  0.6295
 4993TIP3    H139174   5.821   3.293   9.310 -0.0899  0.4708 -0.5915
 4993TIP3    H239175   5.966   3.317   9.271 -0.2940 -0.0901 -1.7619
 4994TIP3   OH239176   0.212   3.223   9.793 -0.3036 -0.1219 -0.4786
 4994TIP3    H139177   0.241   3.142   9.750 -1.1915  0.2295 -1.7833
 4994TIP3    H239178   0.199   3.198   9.885  1.8729 -0.8292 -0.3020
 4995TIP3   OH239179   2.691   5.131   1.996  0.7010 -0.1797  0.5173
 4995TIP3    H139180   2.663   5.215   2.031 -0.7278 -0.6963  0.7079
 4995TIP3    H239181   2.755   5.098   2.059  0.5242  0.3097  0.9611
 4996TIP3   OH239182   0.610   4.113   8.696  0.0871 -0.0893  0.2965
 4996TIP3    H139183   0.573   4.038   8.651  1.9732 -1.5286  1.0155
 4996TIP3    H239184   0.561   4.118   8.779 -0.5644  0.0017 -0.0820
 4997TIP3   OH239185   4.272   6.314   0.519 -0.0934 -0.1974 -0.6678
 4997TIP3    H139186   4.281   6.263   0.439  2.6621  1.3578 -1.4830
 4997TIP3    H239187   4.357   6.356   0.530 -1.4174  2.2281  1.2988
 4998TIP3   OH239188   5.129   0.001   0.587  0.2583 -0.7225  0.3079
 4998TIP3    H139189   5.045  -0.003   0.634 -0.9211  1.9033 -1.3766
 4998TIP3    H239190   5.195   0.006   0.656 -1.2616  0.8378  1.7394
 4999TIP3   OH239191   7.246   0.857   9.562  0.1293 -0.5343  0.4512
 4999TIP3    H139192   7.305   0.866   9.487  1.5457  2.6310  1.7767
 4999TIP3    H239193   7.174   0.918   9.543  0.1767 -0.1824  1.3896
 5000TIP3   OH239194   0.664   6.606   1.344  0.8073 -0.0765 -0.0203
 5000TIP3    H139195   0.621   6.527   1.377  0.0676 -0.0745 -0.9544
 5000TIP3    H239196   0.649   6.604   1.250  1.2865  0.8884 -0.1264
 5001TIP3   OH239197   1.811   2.118   9.079  0.1961  0.1188  0.1651
 5001TIP3    H139198   1.865   2.059   9.131 -0.4908 -0.0033  0.7585
 5001TIP3    H239199   1.724   2.076   9.078  0.1718  0.1655 -1.0013
 5002TIP3   OH239200   4.576   0.759   7.546 -0.4216  0.0627  0.6664
 5002TIP3    H139201   4.599   0.699   7.475 -0.2346 -0.6918  1.3502
 5002TIP3    H239202   4.513   0.819   7.507  0.8514  0.6575 -0.5919
 5003TIP3   OH239203   2.972   5.131   0.633 -0.2787 -0.3538  0.1904
 5003TIP3    H139204   2.898   5.146   0.691 -0.3292  0.6354 -0.1160
 5003TIP3    H239205   2.947   5.171   0.550  0.3708 -0.5081 -0.0913
 5004TIP3   OH239206   7.250   4.089   1.914  0.2368 -0.0404 -0.2423
 5004TIP3    H139207   7.203   4.148   1.973  1.1694  1.3855 -0.8792
 5004TIP3    H239208   7.320   4.052   1.967 -1.1051 -1.6468  0.5201
 5005TIP3   OH239209   4.375   3.410   0.245 -0.4295  0.1914  0.1928
 5005TIP3    H139210   4.469   3.428   0.249 -0.0574 -0.9346 -1.8616
 5005TIP3    H239211   4.370   3.316   0.224 -2.0399  0.1123  0.8273
 5006TIP3   OH239212   1.019   7.205   7.289 -0.0939  0.0752 -0.0468
 5006TIP3    H139213   0.926   7.196   7.265 -0.5545 -0.5733  1.8666
 5006TIP3    H239214   1.024   7.289   7.335  0.8600  1.4969 -2.5453
 5007TIP3   OH239215   2.314   0.368   7.252  0.4714  0.3352  0.0208
 5007TIP3    H139216   2.328   0.379   7.157 -0.5029  1.5858 -0.0101
 5007TIP3    H239217   2.385   0.311   7.280  1.7975  1.3182 -1.1813
 5008TIP3   OH239218   1.140   3.610   8.432  0.1574  0.6490 -0.5483
 5008TIP3    H139219   1.224   3.630   8.392  0.8946 -0.7856  0.1789
 5008TIP3    H239220   1.106   3.537   8.381 -0.9976  1.6683 -1.2696
 5009TIP3   OH239221   5.428   5.078   8.920 -0.5336 -0.3311 -0.1785
 5009TIP3    H139222   5.354   5.101   8.864  0.3268  0.5872 -0.9806
 5009TIP3    H239223   5.479   5.014   8.870  0.7488  1.1957 -0.9186
 5010TIP3   OH239224   4.036   2.708   0.322  0.3832 -0.3399  0.3419
 5010TIP3    H139225   4.037   2.799   0.350  0.7243 -0.8844  2.2595
 5010TIP3    H239226   4.039   2.712   0.227 -0.0779  1.6449  0.3720
 5011TIP3   OH239227   5.476   1.820   1.427 -0.3817 -0.6855  0.4818
 5011TIP3    H139228   5.403   1.769   1.461 -1.0220  0.8881  1.5682
 5011TIP3    H239229   5.554   1.776   1.461 -0.9761  0.5059  3.7331
 5012TIP3   OH239230   2.266   1.137   8.594 -0.5884 -0.3729 -0.0444
 5012TIP3    H139231   2.336   1.194   8.624  1.0949 -2.2763 -0.1538
 5012TIP3    H239232   2.297   1.103   8.510 -1.1838 -1.9847  0.3524
 5013TIP3   OH239233   3.473   6.932   9.719 -0.2157 -0.2005  0.2440
 5013TIP3    H139234   3.417   6.976   9.655 -0.4655 -0.1807  0.4735
 5013TIP3    H239235   3.503   6.853   9.675  0.6396  0.4452 -0.3577
 5014TIP3   OH239236   1.464   5.446   6.558  0.6010  0.0120  0.1949
 5014TIP3    H139237   1.372   5.418   6.564  0.2231  0.7344 -1.5383
 5014TIP3    H239238   1.464   5.535   6.592  0.5014  0.2976 -0.5481
 5015TIP3   OH239239   2.117   3.564   8.205  0.4636 -0.1947 -0.3919
 5015TIP3    H139240   2.104   3.499   8.275 -0.2601  0.0267 -0.3129
 5015TIP3    H239241   2.092   3.518   8.125  2.1252 -0.7311 -0.6434
 5016TIP3   OH239242   7.327   4.899   7.971  0.0044 -0.0595 -0.1190
 5016TIP3    H139243   7.307   4.884   8.063 -1.3806 -1.4294 -0.6061
 5016TIP3    H239244   7.316   4.814   7.929 -0.6750  0.7823 -1.7641
 5017TIP3   OH239245   5.198   5.123   1.308  0.4128  0.3125  0.3786
 5017TIP3    H139246   5.160   5.036   1.294  0.1927  0.5594 -0.6203
 5017TIP3    H239247   5.277   5.105   1.359  1.2397 -0.6862 -1.1402
 5018TIP3   OH239248   2.698   2.678   8.841  0.1829 -1.0159  0.0708
 5018TIP3    H139249   2.616   2.629   8.835 -0.6225  0.1059  1.4708
 5018TIP3    H239250   2.682   2.758   8.791  0.5284 -0.9077  0.1299
 5019TIP3   OH239251   4.206   3.103   0.763  0.6888 -0.0444 -0.0725
 5019TIP3    H139252   4.272   3.073   0.825  0.5669 -1.2727 -0.5038
 5019TIP3    H239253   4.255   3.138   0.689  0.8678 -0.7958 -0.3164
 5020TIP3   OH239254   6.372   7.317   8.509  0.0227 -0.2810 -0.1127
 5020TIP3    H139255   6.466   7.300   8.501 -0.0176 -1.8877  1.9946
 5020TIP3    H239256   6.367   7.406   8.545  0.8096 -0.5563  0.7271
 5021TIP3   OH239257   1.807   6.480   7.748  0.3948  0.2479 -0.1218
 5021TIP3    H139258   1.756   6.486   7.829  0.0919  0.8598 -0.3511
 5021TIP3    H239259   1.741   6.472   7.679  0.6728 -1.9445 -0.2010
 5022TIP3   OH239260   0.575   5.825   7.425  0.7652 -0.2133  0.2863
 5022TIP3    H139261   0.582   5.854   7.516 -0.2771  0.4437  0.1686
 5022TIP3    H239262   0.635   5.751   7.420  1.1867  0.0236  1.3889
 5023TIP3   OH239263   1.104   0.303   8.647  0.1627 -0.4244 -0.4987
 5023TIP3    H139264   1.064   0.240   8.707  0.2144 -0.3558 -0.3926
 5023TIP3    H239265   1.073   0.388   8.677  1.9844 -0.1795  0.8477
 5024TIP3   OH239266   1.642   1.328   1.187  0.1214  0.5341 -0.2322
 5024TIP3    H139267   1.575   1.345   1.121 -0.6370  2.2195  0.9228
 5024TIP3    H239268   1.594   1.295   1.262  1.2186 -4.2082 -1.2864
 5025TIP3   OH239269   1.176   3.057   8.044  0.4388  0.0558  0.0135
 5025TIP3    H139270   1.095   3.034   7.999  1.2586  0.0073 -1.4961
 5025TIP3    H239271   1.155   3.050   8.137 -1.5819  1.0555 -0.3202
 5026TIP3   OH239272   6.400   4.165   7.630  0.2863 -0.4112 -0.3951
 5026TIP3    H139273   6.370   4.186   7.718  1.1819  0.8156 -0.3519
 5026TIP3    H239274   6.473   4.104   7.643  0.0611 -0.6674 -0.3247
 5027TIP3   OH239275   0.471   1.781   0.741 -0.7602  0.0406  0.1926
 5027TIP3    H139276   0.561   1.767   0.712 -0.7520  0.1951  0.1426
 5027TIP3    H239277   0.470   1.752   0.832 -0.5244  0.5719  0.3668
 5028TIP3   OH239278   6.776   2.634   8.849 -0.2706 -0.2646  0.2745
 5028TIP3    H139279   6.721   2.678   8.785 -0.7196  1.6071  1.8288
 5028TIP3    H239280   6.738   2.658   8.934  1.8991 -0.3022  1.3486
 5029TIP3   OH239281   6.184   6.011   8.859 -0.1387 -0.3201 -0.2517
 5029TIP3    H139282   6.100   5.966   8.862  0.3177 -1.2109 -0.2628
 5029TIP3    H239283   6.171   6.083   8.797 -1.1426  0.1129  0.4483
 5030TIP3   OH239284   5.017   1.524   7.855  0.1111 -0.0164  0.2908
 5030TIP3    H139285   5.063   1.442   7.872  0.7041  0.1797 -0.2993
 5030TIP3    H239286   4.993   1.520   7.762 -1.7779 -0.4514  0.7550
 5031TIP3   OH239287   1.919   2.649   0.196 -0.2589  0.5561 -0.7458
 5031TIP3    H139288   1.952   2.735   0.220  0.8660  0.2841 -1.2565
 5031TIP3    H239289   1.967   2.588   0.252 -0.0051  0.1685 -1.3648
 5032TIP3   OH239290   1.243   5.788   0.164 -0.0818  0.4242  0.1514
 5032TIP3    H139291   1.286   5.791   0.078 -0.5611  0.1357 -0.1089
 5032TIP3    H239292   1.155   5.754   0.144  0.0402 -0.3149  0.8561
 5033TIP3   OH239293   0.026   4.839   0.877 -0.0113  0.1426 -0.2610
 5033TIP3    H139294  -0.020   4.901   0.820  0.6530 -0.7631 -1.8335
 5033TIP3    H239295   0.079   4.786   0.817  0.2358 -1.2648  1.1521
 5034TIP3   OH239296   6.651   5.352   1.738 -0.1714  0.6340 -0.2706
 5034TIP3    H139297   6.685   5.263   1.742  1.5616  1.2269 -1.0229
 5034TIP3    H239298   6.701   5.394   1.669 -2.9499  1.4040 -1.9738
 5035TIP3   OH239299   0.202   0.512   8.877 -0.3495  0.2843 -0.5146
 5035TIP3    H139300   0.116   0.539   8.843 -0.4461 -2.8359 -3.3106
 5035TIP3    H239301   0.190   0.420   8.900  2.0212  0.0736  0.0841
 5036TIP3   OH239302   2.048   4.431   0.358 -1.1582  0.1659  0.3284
 5036TIP3    H139303   2.032   4.400   0.447 -2.8599 -0.8842 -0.3027
 5036TIP3    H239304   2.142   4.416   0.343 -0.7925  0.6203  2.0060
 5037TIP3   OH239305   6.759   2.551   0.926 -0.1401 -0.2778  0.0725
 5037TIP3    H139306   6.720   2.614   0.866 -1.5370 -1.7692 -0.6594
 5037TIP3    H239307   6.755   2.468   0.880 -0.5727 -1.3502  1.9486
 5038TIP3   OH239308   0.252   0.477   8.360  0.1623 -0.1110 -0.0659
 5038TIP3    H139309   0.290   0.502   8.444  0.7833  0.0041 -0.3773
 5038TIP3    H239310   0.169   0.434   8.383  0.6390 -0.6730  0.6363
 5039TIP3   OH239311   4.120   2.673   1.369  0.3252 -0.2938  0.0475
 5039TIP3    H139312   4.088   2.586   1.395 -1.4322  0.4943  0.7027
 5039TIP3    H239313   4.042   2.729   1.372  1.2805  1.1753 -1.0301
 5040TIP3   OH239314   0.155   3.352   7.700 -0.3930 -0.2054 -0.0868
 5040TIP3    H139315   0.124   3.321   7.785  1.1682 -1.1304  0.2046
 5040TIP3    H239316   0.203   3.277   7.664 -1.4050  0.0109 -2.0166
 5041TIP3   OH239317   5.633   6.423   2.393  0.3984  0.5390 -0.0457
 5041TIP3    H139318   5.559   6.374   2.430  0.2796 -0.4502 -1.4899
 5041TIP3    H239319   5.670   6.470   2.467 -0.5015 -0.4631  1.0922
 5042TIP3   OH239320   1.135   1.336   8.316  0.1365 -0.4609  0.4636
 5042TIP3    H139321   1.101   1.424   8.300 -0.6224 -0.9304 -0.6239
 5042TIP3    H239322   1.168   1.339   8.406 -0.2162  0.8203  0.5732
 5043TIP3   OH239323   3.102   5.895   9.790  0.1650  0.2574 -0.1758
 5043TIP3    H139324   3.154   5.843   9.851  1.5890  1.4076 -0.3620
 5043TIP3    H239325   3.026   5.840   9.771  1.1679 -1.3742  0.3079
 5044TIP3   OH239326   0.708   1.030   7.488  0.1518 -0.1013  0.4483
 5044TIP3    H139327   0.676   0.940   7.498 -0.4524 -0.3650 -2.8591
 5044TIP3    H239328   0.641   1.074   7.437  1.5789  1.5154 -0.1182
 5045TIP3   OH239329   2.532   3.791   2.676  0.0425  0.4582 -0.5930
 5045TIP3    H139330   2.465   3.748   2.729 -0.5411  3.4548  1.3171
 5045TIP3    H239331   2.503   3.882   2.669  2.5075  1.2316 -2.1324
 5046TIP3   OH239332   0.926   2.340   7.931 -0.1841  0.4079 -0.4178
 5046TIP3    H139333   0.950   2.256   7.969 -1.8339  0.6118  1.2109
 5046TIP3    H239334   0.999   2.399   7.953  0.0742 -0.1186  0.1624
 5047TIP3   OH239335   0.916   1.146   0.583 -0.3706  0.0902  0.0487
 5047TIP3    H139336   0.946   1.058   0.561 -1.5079 -0.2619 -0.2015
 5047TIP3    H239337   0.894   1.185   0.498 -1.0452  0.1535  0.2414
 5048TIP3   OH239338   5.871   0.088   9.143  0.3385 -0.6829 -0.0979
 5048TIP3    H139339   5.957   0.068   9.180  0.4204 -0.9939 -0.4563
 5048TIP3    H239340   5.814   0.019   9.176 -0.1196  0.3337  1.3530
 5049TIP3   OH239341   2.590   1.127   6.935 -0.1249  0.5095  0.6502
 5049TIP3    H139342   2.645   1.058   6.971  0.7385 -0.2395 -1.8952
 5049TIP3    H239343   2.507   1.119   6.983 -1.2910 -4.5513 -1.5943
 5050TIP3   OH239344   1.667   4.391   8.481 -0.2447  0.1918  0.3866
 5050TIP3    H139345   1.700   4.328   8.417 -0.2890  0.9781 -0.4260
 5050TIP3    H239346   1.684   4.350   8.566 -1.1092 -1.3259 -0.1346
 5051TIP3   OH239347   6.271   0.624   7.722  0.1697 -0.2578 -0.0805
 5051TIP3    H139348   6.305   0.555   7.779  0.3542 -1.9474 -2.1251
 5051TIP3    H239349   6.177   0.607   7.718 -0.5465  2.2630  2.7384
 5052TIP3   OH239350   2.052   6.467   3.036  0.7925 -0.5890  0.8782
 5052TIP3    H139351   2.082   6.546   3.081  0.3073  0.1137 -0.0086
 5052TIP3    H239352   1.960   6.459   3.060 -0.1059  1.0211 -1.5888
 5053TIP3   OH239353   2.590   5.325   2.813 -0.3094  0.3821  0.0423
 5053TIP3    H139354   2.500   5.321   2.846 -0.4273 -2.2168 -0.3923
 5053TIP3    H239355   2.597   5.251   2.753  1.4942  1.8298 -1.6819
 5054TIP3   OH239356   0.253   0.771   1.117  0.2775 -0.0198  0.0919
 5054TIP3    H139357   0.206   0.690   1.099 -0.1662  0.0164  0.9992
 5054TIP3    H239358   0.310   0.785   1.041 -0.0463 -0.8873 -0.3103
 5055TIP3   OH239359   3.955   6.645   9.204  0.4732 -0.3756 -0.2728
 5055TIP3    H139360   3.972   6.551   9.197  0.3223 -0.4285  0.0284
 5055TIP3    H239361   4.040   6.686   9.195  0.2933 -0.3937 -2.7075
 5056TIP3   OH239362   4.834   6.397   8.609 -0.7815 -0.5872  0.2766
 5056TIP3    H139363   4.904   6.439   8.558 -2.1382 -1.3443 -2.4174
 5056TIP3    H239364   4.877   6.324   8.653  0.4598  0.0673  0.2001
 5057TIP3   OH239365   5.058   1.380   1.934  0.3431 -0.3055 -0.1745
 5057TIP3    H139366   5.068   1.298   1.886  0.0490 -1.4450  1.6369
 5057TIP3    H239367   5.088   1.448   1.872  1.6671 -1.8569 -1.3138
 5058TIP3   OH239368   0.789   3.223   8.108 -0.2525  0.0220  0.4004
 5058TIP3    H139369   0.787   3.276   8.188 -0.2957  1.8688 -0.7735
 5058TIP3    H239370   0.701   3.232   8.071  0.2037  0.4513 -0.6184
 5059TIP3   OH239371   1.569   0.163   8.964 -1.0803  0.2102 -0.5287
 5059TIP3    H139372   1.549   0.192   9.053  1.6353 -0.9840  0.5915
 5059TIP3    H239373   1.543   0.237   8.908 -2.2506  1.2488  1.2782
 5060TIP3   OH239374   4.389   5.594   1.769  0.0600 -0.0598  0.1551
 5060TIP3    H139375   4.333   5.650   1.716 -0.5755 -0.1245  0.7358
 5060TIP3    H239376   4.400   5.643   1.851 -0.3200 -0.6777  0.5824
 5061TIP3   OH239377   3.881   7.077   1.707  0.6441 -0.1004  0.3824
 5061TIP3    H139378   3.928   7.048   1.629 -0.0044  0.4039 -0.2196
 5061TIP3    H239379   3.795   7.103   1.674 -1.1083 -3.5015  1.7788
 5062TIP3   OH239380   0.001   6.765   1.653  0.2241 -0.1983  0.0462
 5062TIP3    H139381   0.067   6.771   1.722  0.9030 -1.6037 -0.4384
 5062TIP3    H239382   0.046   6.723   1.580 -1.3501 -1.8867 -0.0579
 5063TIP3   OH239383   6.894   3.248   9.609 -0.3921 -0.6298  0.0822
 5063TIP3    H139384   6.830   3.207   9.667 -0.3767 -3.2358 -1.6046
 5063TIP3    H239385   6.842   3.304   9.552 -0.7143 -0.0907  0.8818
 5064TIP3   OH239386   6.174   0.182   0.879 -0.6249 -0.4249 -0.4980
 5064TIP3    H139387   6.222   0.160   0.959  1.6168  1.3727 -1.2539
 5064TIP3    H239388   6.086   0.204   0.910 -1.6825 -5.2046  0.7921
 5065TIP3   OH239389   7.121   5.089   0.612 -0.1043  0.4741 -0.1476
 5065TIP3    H139390   7.051   5.104   0.548 -0.9714 -0.8698  0.4332
 5065TIP3    H239391   7.171   5.015   0.576  1.5513  1.9172 -0.9513
 5066TIP3   OH239392   2.117   2.468   9.335  0.5781  0.6132  0.0617
 5066TIP3    H139393   2.126   2.378   9.368 -1.6369 -0.0134 -0.8806
 5066TIP3    H239394   2.166   2.521   9.398 -0.0184 -0.9911  1.9928
 5067TIP3   OH239395   0.354   4.845   1.458 -0.2091  0.4774  0.1669
 5067TIP3    H139396   0.295   4.773   1.478  0.8616 -0.0466  1.6149
 5067TIP3    H239397   0.422   4.805   1.404  0.0539  0.5384  0.4510
 5068TIP3   OH239398   2.661   4.839   9.696  0.2524  0.0935  0.4061
 5068TIP3    H139399   2.641   4.920   9.649  1.9210  1.3895  1.7936
 5068TIP3    H239400   2.582   4.820   9.747 -0.3572  0.5158 -0.3701
 5069TIP3   OH239401   4.523   1.323   1.274  0.2759 -0.1809  0.5957
 5069TIP3    H139402   4.549   1.395   1.332  2.4411  0.8794 -1.4909
 5069TIP3    H239403   4.474   1.365   1.204  1.1752 -0.7618 -0.4153
 5070TIP3   OH239404   4.760   1.898   9.468 -0.3107 -0.0336  0.2950
 5070TIP3    H139405   4.841   1.937   9.436  0.0306 -0.5712  0.5084
 5070TIP3    H239406   4.770   1.893   9.563 -0.4859 -0.3321  0.3006
 5071TIP3   OH239407   1.591   6.085   1.867 -0.6523  0.1972  0.8848
 5071TIP3    H139408   1.630   6.171   1.875  0.4161 -0.1420 -0.3997
 5071TIP3    H239409   1.643   6.041   1.800 -0.9338 -1.5766  1.7679
 5072TIP3   OH239410   5.348   1.449   9.635 -0.1536  0.3126 -0.0294
 5072TIP3    H139411   5.431   1.418   9.599 -0.8296 -2.8645  0.8426
 5072TIP3    H239412   5.315   1.511   9.570  1.7007 -0.3139 -1.6463
 5073TIP3   OH239413   2.213   2.127   9.894  0.2502  0.3111 -0.1246
 5073TIP3    H139414   2.195   2.137   9.801 -0.1590 -1.2725 -0.2431
 5073TIP3    H239415   2.283   2.062   9.899 -0.4522 -0.4261  0.6886
 5074TIP3   OH239416   3.596   6.504   2.033  0.5851 -0.4463 -0.3361
 5074TIP3    H139417   3.555   6.421   2.005 -1.0266 -0.4975  1.8490
 5074TIP3    H239418   3.687   6.481   2.050  0.2493 -1.7146 -0.1228
 5075TIP3   OH239419   5.458   1.992   1.785 -0.2488  0.6188  0.0262
 5075TIP3    H139420   5.480   2.038   1.866 -0.1620 -1.4973  1.2543
 5075TIP3    H239421   5.518   2.030   1.720 -0.2557  2.2856  0.9319
 5076TIP3   OH239422   2.704   6.417   2.473  0.2297 -0.5583 -0.0013
 5076TIP3    H139423   2.661   6.488   2.521  0.4593 -0.1244 -0.4292
 5076TIP3    H239424   2.638   6.387   2.411  0.6275  0.3285 -0.8855
 5077TIP3   OH239425   0.516   1.537   1.397 -0.3023  0.0122  0.2948
 5077TIP3    H139426   0.461   1.465   1.367 -0.4665 -0.1217  0.9073
 5077TIP3    H239427   0.582   1.496   1.452 -1.3770  0.4743  2.0231
 5078TIP3   OH239428   6.906   1.060   1.139 -0.3390 -0.3043 -0.8125
 5078TIP3    H139429   6.910   0.970   1.170  1.1171 -0.9716 -2.7939
 5078TIP3    H239430   6.813   1.075   1.122 -0.7977 -0.8881  0.9048
 5079TIP3   OH239431   5.592   6.191   1.726  0.3319 -0.3272  0.2806
 5079TIP3    H139432   5.617   6.124   1.662  0.4227  1.6204 -1.8731
 5079TIP3    H239433   5.553   6.261   1.673 -0.5306  0.9626  2.5048
 5080TIP3   OH239434   6.493   4.769   2.590  0.1252  0.1145 -0.0671
 5080TIP3    H139435   6.448   4.758   2.674  1.1326  0.7589  0.5744
 5080TIP3    H239436   6.585   4.778   2.613  0.3864  0.5662 -1.2346
 5081TIP3   OH239437   4.432   1.145   0.494  0.1004  0.0064  0.2085
 5081TIP3    H139438   4.504   1.114   0.438  0.8025  1.4974  0.2202
 5081TIP3    H239439   4.386   1.065   0.521  0.9885 -0.8935 -0.8239
 5082TIP3   OH239440   2.430   2.595   0.919  0.3159  0.3067  0.1392
 5082TIP3    H139441   2.382   2.678   0.916 -0.2725 -0.0560 -1.5234
 5082TIP3    H239442   2.378   2.539   0.976 -0.8112  0.2109 -0.9356
 5083TIP3   OH239443   2.603   5.213   1.746  0.1701  0.1388  0.3477
 5083TIP3    H139444   2.628   5.178   1.831 -1.1410  0.7321  1.0127
 5083TIP3    H239445   2.516   5.177   1.729  0.0535  0.7057 -0.3315
 5084TIP3   OH239446   5.708   3.373   0.508 -0.1070 -0.1540 -0.2665
 5084TIP3    H139447   5.764   3.439   0.549 -0.6318  0.3195 -0.2986
 5084TIP3    H239448   5.657   3.338   0.580 -0.4252  0.0754 -0.3774
 5085TIP3   OH239449   4.137   6.427   2.630  0.0999 -0.8300  0.1576
 5085TIP3    H139450   4.109   6.366   2.698 -0.7937  0.4836  1.0311
 5085TIP3    H239451   4.163   6.506   2.678  0.5774 -0.2782 -0.9643
 5086TIP3   OH239452   3.095   4.023   8.035 -1.1298 -0.0988  0.2356
 5086TIP3    H139453   3.148   4.091   7.993  0.7608 -0.7717  1.3936
 5086TIP3    H239454   3.153   3.947   8.040 -2.7731 -1.3892  0.1297
 5087TIP3   OH239455   1.298   0.821   7.669  0.1330  0.1102  0.4569
 5087TIP3    H139456   1.375   0.875   7.688  0.7213  0.2010 -1.9222
 5087TIP3    H239457   1.226   0.867   7.712  1.3286  0.1295  2.5828
 5088TIP3   OH239458   3.959   5.352   9.976  0.0960 -0.5524  0.2312
 5088TIP3    H139459   4.020   5.289  10.014  1.2844  0.4020 -0.0158
 5088TIP3    H239460   3.913   5.389  10.052  2.0024  0.8851  0.7623
 5089TIP3   OH239461   5.325   1.527   9.187  0.0512 -0.0765 -0.6674
 5089TIP3    H139462   5.384   1.596   9.158 -1.7151  2.1079  0.6246
 5089TIP3    H239463   5.237   1.561   9.168 -0.9453 -1.0873  1.7314
 5090TIP3   OH239464   5.619   6.777   1.764  0.0313 -0.1604  0.6172
 5090TIP3    H139465   5.559   6.801   1.835  0.2764  2.5225  0.0329
 5090TIP3    H239466   5.702   6.759   1.809 -0.3265 -0.4864  1.1572
 5091TIP3   OH239467   2.521   0.109   8.698 -0.1816 -0.6745 -0.2537
 5091TIP3    H139468   2.513   0.034   8.639 -0.3432 -0.7294 -0.1639
 5091TIP3    H239469   2.433   0.120   8.734 -0.1911 -0.3532 -0.3752
 5092TIP3   OH239470   2.025   1.350   9.506 -0.2348 -0.2780  0.2478
 5092TIP3    H139471   1.929   1.349   9.510 -0.2470 -0.2809 -0.0488
 5092TIP3    H239472   2.045   1.324   9.416  0.0122  1.5480 -0.2528
 5093TIP3   OH239473   3.332   7.391   1.500 -0.3238 -0.2539 -0.4020
 5093TIP3    H139474   3.353   7.479   1.470 -0.5602 -0.4164 -1.0491
 5093TIP3    H239475   3.381   7.382   1.582  0.0784  0.3011 -0.5735
 5094TIP3   OH239476   1.349   3.745   8.296 -0.4162 -0.3345  0.1884
 5094TIP3    H139477   1.365   3.821   8.352 -2.3294  0.5030 -0.3180
 5094TIP3    H239478   1.434   3.726   8.256  0.4360  0.5742  1.4862
 5095TIP3   OH239479   5.204   6.460   1.739 -0.4009  0.6697  0.0150
 5095TIP3    H139480   5.248   6.527   1.790 -0.1035  0.6676 -0.2365
 5095TIP3    H239481   5.158   6.407   1.804 -0.8701  1.2823  0.1926
 5096TIP3   OH239482   3.947   1.708   0.719 -0.2906  0.3280  0.1886
 5096TIP3    H139483   3.852   1.715   0.709 -0.3037  1.7301  1.0553
 5096TIP3    H239484   3.981   1.722   0.631 -0.8758  0.3085 -0.0442
 5097TIP3   OH239485   5.910   2.052   1.945  0.4610 -0.0857 -0.1395
 5097TIP3    H139486   5.904   2.147   1.935 -0.2244  0.0213  1.0719
 5097TIP3    H239487   5.984   2.038   2.004 -1.0985 -0.0928  1.9193
 5098TIP3   OH239488   7.460   1.875   0.948  0.2741 -0.0483  0.1770
 5098TIP3    H139489   7.415   1.805   0.996  1.1687 -0.4685  0.4068
 5098TIP3    H239490   7.546   1.881   0.989  0.5925  0.4572 -0.5539
 5099TIP3   OH239491   1.860   5.840   8.783 -0.3530  0.1671  0.1415
 5099TIP3    H139492   1.931   5.781   8.758 -0.1375 -0.5088  2.1928
 5099TIP3    H239493   1.834   5.882   8.701  0.5300 -1.6180 -1.1179
 5100TIP3   OH239494   3.569   5.545   1.503 -0.3944 -0.1645 -0.1701
 5100TIP3    H139495   3.644   5.537   1.562  1.5462 -1.3569 -2.6336
 5100TIP3    H239496   3.539   5.635   1.515  0.9754  0.1414  1.3761
 5101TIP3   OH239497   5.793   3.315   8.163  0.4133 -0.0102  0.2566
 5101TIP3    H139498   5.857   3.311   8.092 -0.4564 -1.4508 -0.4935
 5101TIP3    H239499   5.717   3.269   8.129 -0.4599  0.3063  1.7076
 5102TIP3   OH239500   2.136   2.740   7.244 -0.3517 -0.1674  0.1274
 5102TIP3    H139501   2.200   2.699   7.186 -1.9022 -0.3788 -1.5361
 5102TIP3    H239502   2.189   2.787   7.308  1.4537 -1.6530 -0.1856
 5103TIP3   OH239503   4.925   2.645   9.702 -0.4094  0.4972  0.9546
 5103TIP3    H139504   4.881   2.577   9.753 -0.6418  0.4826  0.7341
 5103TIP3    H239505   4.856   2.708   9.682 -0.6678 -0.2863 -0.7162
 5104TIP3   OH239506   2.648   5.623   7.167  0.1059  0.0448  0.2405
 5104TIP3    H139507   2.613   5.624   7.256 -1.3750  0.8634 -0.3237
 5104TIP3    H239508   2.633   5.711   7.134  0.3051 -0.3539 -0.9584
 5105TIP3   OH239509   0.656   7.372   1.622  0.6046 -0.4321 -0.3531
 5105TIP3    H139510   0.732   7.353   1.677  0.4982  0.8754  0.2706
 5105TIP3    H239511   0.666   7.464   1.598 -1.4426  0.1313  0.8139
 5106TIP3   OH239512   0.738   0.403   8.429  0.1105  0.6004  0.3747
 5106TIP3    H139513   0.781   0.336   8.377  0.4031 -1.0652  2.6563
 5106TIP3    H239514   0.809   0.450   8.473 -0.2205 -0.0214  1.6146
 5107TIP3   OH239515   3.089   6.873   2.115  0.2300  0.2273 -0.6640
 5107TIP3    H139516   3.019   6.936   2.098  0.2705  0.1345 -1.1875
 5107TIP3    H239517   3.052   6.814   2.181 -0.6147 -0.5085 -1.7534
 5108TIP3   OH239518   5.335   6.603   1.929 -0.7581  0.5329 -0.2746
 5108TIP3    H139519   5.361   6.695   1.922  1.8870 -0.2533 -3.0161
 5108TIP3    H239520   5.388   6.568   2.001  0.8715  0.4868 -1.4332
 5109TIP3   OH239521   2.891   0.845   7.770 -0.9482 -0.1552  0.2126
 5109TIP3    H139522   2.833   0.775   7.800  0.0180 -1.1244 -0.1087
 5109TIP3    H239523   2.891   0.836   7.675  1.4616 -1.6763  0.2733
 5110TIP3   OH239524   3.175   5.266   9.327 -0.6318  0.3546 -0.2014
 5110TIP3    H139525   3.213   5.315   9.255  1.0479 -1.1234 -0.3940
 5110TIP3    H239526   3.133   5.332   9.382  0.6464  1.8529 -0.9490
 5111TIP3   OH239527   5.548   1.937   9.931  0.2330  0.3253  0.4408
 5111TIP3    H139528   5.474   1.888   9.895 -0.3973  2.4116 -1.3283
 5111TIP3    H239529   5.514   1.974  10.013  0.3168 -1.0764  1.1390
 5112TIP3   OH239530   5.963   1.778   7.943 -0.7332 -0.1648 -0.2059
 5112TIP3    H139531   5.935   1.761   7.853 -0.8021 -1.3708  0.0335
 5112TIP3    H239532   6.059   1.772   7.940 -0.7713 -0.9280 -0.0661
 5113TIP3   OH239533   4.962   3.485   9.427  0.1383 -0.8242 -0.7585
 5113TIP3    H139534   4.867   3.482   9.415  0.1981  0.0201 -1.5655
 5113TIP3    H239535   4.995   3.414   9.372  0.0078 -0.7659 -0.9135
 5114TIP3   OH239536   2.131   3.587   9.025  0.2031 -0.4600 -0.4102
 5114TIP3    H139537   2.179   3.611   8.945  0.8456 -0.9519 -0.1794
 5114TIP3    H239538   2.040   3.610   9.006  0.2517 -1.1269 -1.5144
 5115TIP3   OH239539   5.944   5.151   9.003 -0.0240 -0.0952 -0.5359
 5115TIP3    H139540   5.852   5.174   8.992 -0.1577 -0.4967 -0.2815
 5115TIP3    H239541   5.943   5.076   9.061  0.5574  1.0014  0.9635
 5116TIP3   OH239542   1.349   6.718   2.181 -0.1877  0.1355  0.2689
 5116TIP3    H139543   1.257   6.694   2.192 -0.3344  0.7756  0.4398
 5116TIP3    H239544   1.347   6.809   2.150  0.3623 -0.0954 -0.4878
 5117TIP3   OH239545   2.528   3.458   7.099  0.3274 -0.1378  0.8871
 5117TIP3    H139546   2.488   3.506   7.172 -2.5841 -0.3663 -0.4278
 5117TIP3    H239547   2.551   3.373   7.137  1.3612  0.6572  2.1398
 5118TIP3   OH239548   4.141   4.411   8.372  0.3479  0.1389  0.8287
 5118TIP3    H139549   4.120   4.416   8.465 -0.6013  2.4060  0.5570
 5118TIP3    H239550   4.213   4.473   8.360 -0.8495  1.3922 -0.2263
 5119TIP3   OH239551   5.090   5.529   9.625 -0.2147 -0.4469 -0.1066
 5119TIP3    H139552   5.134   5.447   9.603 -0.8792 -0.4735 -1.4632
 5119TIP3    H239553   5.048   5.556   9.543 -0.7700  0.7741  0.5561
 5120TIP3   OH239554   6.164   5.393   0.445  0.6781 -0.3243  0.2454
 5120TIP3    H139555   6.152   5.359   0.534  0.6669 -1.3052 -0.1129
 5120TIP3    H239556   6.204   5.479   0.457 -1.5844  0.6738  1.2757
 5121TIP3   OH239557   2.339   4.593   9.191 -0.5286  0.5284  0.5964
 5121TIP3    H139558   2.287   4.527   9.145 -0.0544  0.5086  0.0719
 5121TIP3    H239559   2.407   4.618   9.128  0.5056  0.0640  1.5052
 5122TIP3   OH239560   3.274   0.698   1.760  0.5652  0.4325  0.0629
 5122TIP3    H139561   3.189   0.677   1.799  0.4573  0.3722 -0.1978
 5122TIP3    H239562   3.262   0.784   1.721  0.4502  0.1808 -0.4665
 5123TIP3   OH239563   5.506   4.021   9.011 -0.1982  0.0716 -0.9658
 5123TIP3    H139564   5.546   4.094   9.060 -1.3928  1.1479 -1.5284
 5123TIP3    H239565   5.438   3.987   9.070  0.4588 -0.7122 -0.6439
 5124TIP3   OH239566   1.655   4.130   0.296 -0.0020  0.0752 -0.2354
 5124TIP3    H139567   1.645   4.186   0.219  0.1271  1.5767  0.7882
 5124TIP3    H239568   1.699   4.185   0.361 -1.1659 -0.7184  1.3224
 5125TIP3   OH239569   0.027   1.828   0.647 -0.5161 -0.0339 -0.4036
 5125TIP3    H139570  -0.060   1.863   0.667 -0.0909  0.1543  1.2846
 5125TIP3    H239571   0.079   1.848   0.725  1.1736  0.2525 -1.5623
 5126TIP3   OH239572   7.091   2.219   9.182 -0.1072  0.5154  0.4930
 5126TIP3    H139573   7.017   2.238   9.125 -1.2845 -0.4430  1.6489
 5126TIP3    H239574   7.062   2.146   9.236  1.4775  0.4918  1.3816
 5127TIP3   OH239575   4.368   5.147   1.645 -0.6885 -0.5553  0.0840
 5127TIP3    H139576   4.338   5.074   1.590 -0.3011 -0.9140  0.3471
 5127TIP3    H239577   4.291   5.173   1.694 -0.8288 -0.7957 -0.0053
 5128TIP3   OH239578   4.952   4.372   1.359 -0.3752  0.1836 -0.4744
 5128TIP3    H139579   4.925   4.296   1.308  0.3687 -0.9390  0.7479
 5128TIP3    H239580   4.878   4.390   1.416 -0.4294  0.1753 -0.5422
 5129TIP3   OH239581   1.743   0.607   2.130 -0.0048 -0.0934 -0.4939
 5129TIP3    H139582   1.685   0.680   2.108  0.6416  0.4123 -0.5519
 5129TIP3    H239583   1.778   0.578   2.046 -0.0075 -0.2610 -0.4385
 5130TIP3   OH239584   6.025   1.963   8.861 -0.2853  0.1732  0.5912
 5130TIP3    H139585   6.080   2.041   8.865 -0.6385  0.4151  0.8537
 5130TIP3    H239586   5.939   1.996   8.836 -0.0522 -0.3405 -0.9821
 5131TIP3   OH239587   1.832   0.046   7.097 -0.5201  0.1390  0.1558
 5131TIP3    H139588   1.757   0.095   7.066  0.4961  0.4773 -1.9648
 5131TIP3    H239589   1.820  -0.043   7.062 -0.9721 -0.4076  1.6288
 5132TIP3   OH239590   6.842   0.579   1.221 -0.1564 -0.3574  0.2402
 5132TIP3    H139591   6.782   0.542   1.157 -0.1806 -0.8622  0.5480
 5132TIP3    H239592   6.929   0.568   1.182 -0.3839  2.9004 -1.4928
 5133TIP3   OH239593   1.033   0.693   9.288 -0.4843  0.1752  0.0656
 5133TIP3    H139594   1.073   0.773   9.321 -0.9706  0.1813  0.6562
 5133TIP3    H239595   1.079   0.622   9.332 -0.4906  0.1535  0.0378
 5134TIP3   OH239596   2.704   7.093   8.149  0.3381 -0.1615  0.3141
 5134TIP3    H139597   2.663   7.175   8.176 -1.2631 -1.1838  1.1095
 5134TIP3    H239598   2.760   7.069   8.223  0.2838 -0.1313  0.3653
 5135TIP3   OH239599   4.365   0.414   1.487 -0.5811  0.0559 -0.1339
 5135TIP3    H139600   4.323   0.398   1.572 -1.0112 -2.2736 -0.6911
 5135TIP3    H239601   4.302   0.380   1.424 -1.0378  3.2666 -1.5956
 5136TIP3   OH239602   3.067   2.454   8.343 -0.2093 -0.0313 -0.0915
 5136TIP3    H139603   2.993   2.506   8.374  0.8373 -0.0734  2.7515
 5136TIP3    H239604   3.124   2.517   8.299 -0.6723  0.5071  0.0694
 5137TIP3   OH239605   2.548   3.562   9.656 -0.3821  0.0383  0.1917
 5137TIP3    H139606   2.598   3.599   9.728 -0.9790  2.8958 -0.6961
 5137TIP3    H239607   2.463   3.606   9.662 -0.2051  0.9574 -2.6046
 5138TIP3   OH239608   3.515   1.307   8.391 -0.3425 -0.4050 -0.3707
 5138TIP3    H139609   3.589   1.271   8.343 -0.7389 -2.4531  0.4366
 5138TIP3    H239610   3.458   1.232   8.408 -3.1571  1.2120 -1.8215
 5139TIP3   OH239611   0.338   2.300   8.558  0.7524 -0.5285  0.1491
 5139TIP3    H139612   0.410   2.330   8.613 -0.3538  0.4499  1.1279
 5139TIP3    H239613   0.320   2.374   8.500 -0.3103 -0.2306  0.8248
 5140TIP3   OH239614   7.405   4.326   8.402 -0.2814 -0.1576 -0.2795
 5140TIP3    H139615   7.410   4.361   8.491 -0.3775 -1.2521  0.1737
 5140TIP3    H239616   7.496   4.326   8.371 -0.1091 -0.6603  0.1927
 5141TIP3   OH239617   2.278   6.169   2.803  0.3191  0.9824 -0.1933
 5141TIP3    H139618   2.346   6.125   2.854 -1.4495  0.3053  1.7142
 5141TIP3    H239619   2.302   6.261   2.805  0.1216  1.0311  2.2468
 5142TIP3   OH239620   7.417   5.579   1.969  0.0339 -0.1942 -0.1870
 5142TIP3    H139621   7.447   5.488   1.969  1.1881  0.1623  0.6332
 5142TIP3    H239622   7.328   5.574   2.005  0.6627 -0.8653  1.4126
 5143TIP3   OH239623   4.918   2.136   1.317 -0.1413 -0.0179  0.3743
 5143TIP3    H139624   4.887   2.195   1.249  0.0062  0.5705  0.8073
 5143TIP3    H239625   4.876   2.052   1.298 -0.5222  0.2856 -0.1233
 5144TIP3   OH239626   7.007   0.091   7.988 -0.1265  0.8607  0.1148
 5144TIP3    H139627   6.999   0.068   8.081  0.9660 -0.2557 -0.0432
 5144TIP3    H239628   6.918   0.084   7.954 -0.3584  0.1723  0.8368
 5145TIP3   OH239629   4.022   0.376   9.283 -0.2570  0.5329  0.1705
 5145TIP3    H139630   4.001   0.440   9.351  0.5120 -0.2712  1.1873
 5145TIP3    H239631   4.078   0.312   9.326  2.3401  1.2939 -1.8036
 5146TIP3   OH239632   3.971   6.721   8.573  0.4629 -0.2107  0.2447
 5146TIP3    H139633   3.948   6.630   8.589 -0.1093  0.1753  1.7968
 5146TIP3    H239634   3.918   6.747   8.498  1.3934 -1.4175 -0.8809
 5147TIP3   OH239635   5.568   4.450   0.685  0.1400 -0.2337  0.0964
 5147TIP3    H139636   5.550   4.356   0.685 -0.6914 -0.0813  0.3210
 5147TIP3    H239637   5.553   4.478   0.775 -0.1627  0.2158 -0.0909
 5148TIP3   OH239638   0.033   6.819   0.435 -0.1935 -0.3146  0.5487
 5148TIP3    H139639   0.008   6.742   0.486 -1.0033 -0.4168  0.0108
 5148TIP3    H239640  -0.018   6.891   0.472 -0.7604 -0.3820 -0.0855
 5149TIP3   OH239641   6.504   5.102   9.157 -0.0056  0.3041 -0.1325
 5149TIP3    H139642   6.478   5.177   9.103 -1.2779 -2.6056 -3.9825
 5149TIP3    H239643   6.440   5.034   9.136  4.2074 -3.7484 -1.4417
 5150TIP3   OH239644   5.477   5.676   0.354 -0.1423 -0.3146 -0.0342
 5150TIP3    H139645   5.460   5.583   0.367 -2.6897  0.0141 -0.5160
 5150TIP3    H239646   5.392   5.718   0.367  1.3775  2.2869  2.5999
 5151TIP3   OH239647   2.548   3.529   0.049  0.2554  0.0608  0.0528
 5151TIP3    H139648   2.510   3.445   0.073 -0.3999  0.6883  1.2374
 5151TIP3    H239649   2.487   3.566  -0.014  0.2711 -0.1026 -0.0596
 5152TIP3   OH239650   2.148   5.804   0.802 -0.5201 -0.3237  0.1287
 5152TIP3    H139651   2.224   5.842   0.759 -0.9979  1.6956  0.9841
 5152TIP3    H239652   2.155   5.831   0.893 -1.2178 -1.8178  0.6576
 5153TIP3   OH239653   2.049   0.919   2.272  0.0867 -0.0403  0.1505
 5153TIP3    H139654   2.038   0.993   2.212 -2.4928  0.0583  0.6620
 5153TIP3    H239655   1.993   0.850   2.237  0.5265 -0.8868  1.0462
 5154TIP3   OH239656   3.133   1.713   7.828  0.3989  1.1187 -0.0068
 5154TIP3    H139657   3.117   1.790   7.883  0.9828  0.9221  0.4448
 5154TIP3    H239658   3.105   1.740   7.740 -0.1161  1.5880  0.2947
 5155TIP3   OH239659   5.902   5.174   8.675 -0.0123  0.6048  0.3776
 5155TIP3    H139660   5.916   5.209   8.587 -0.8835  1.1769  0.4476
 5155TIP3    H239661   5.988   5.176   8.716  0.3334  0.6795 -0.3400
 5156TIP3   OH239662   6.027   6.747   9.280 -0.0339  0.8219  0.3985
 5156TIP3    H139663   5.970   6.799   9.336 -1.4576 -1.0680  0.8119
 5156TIP3    H239664   5.973   6.724   9.204  0.2065 -0.7734  0.6624
 5157TIP3   OH239665   4.114   6.973   8.341  0.3063 -0.3225 -0.9116
 5157TIP3    H139666   4.172   7.001   8.270 -0.0074  2.1393 -0.2903
 5157TIP3    H239667   4.137   6.882   8.357  4.7015  0.7047 -0.0859
 5158TIP3   OH239668   6.390   4.501   9.140 -0.6593  0.2231  0.1379
 5158TIP3    H139669   6.317   4.547   9.099 -0.7592 -0.4408 -0.4407
 5158TIP3    H239670   6.359   4.411   9.152  0.0313 -0.0529 -0.0693
 5159TIP3   OH239671   2.942   3.449   8.548  0.4034 -0.0233  0.0239
 5159TIP3    H139672   2.937   3.474   8.641  1.9345 -0.7587  0.3386
 5159TIP3    H239673   2.885   3.511   8.504 -0.5981  0.1521  1.4988
 5160TIP3   OH239674   4.616   6.770   0.597 -0.0842  0.0281  0.1649
 5160TIP3    H139675   4.524   6.779   0.570 -0.1532 -1.6606 -0.3051
 5160TIP3    H239676   4.664   6.764   0.515  0.5601  1.5450  0.4017
 5161TIP3   OH239677   2.154   1.975   1.988 -0.2392  0.7229  0.1958
 5161TIP3    H139678   2.168   1.901   2.047 -0.4581  1.6533  1.4743
 5161TIP3    H239679   2.214   2.042   2.021  0.0753  1.0692 -1.0361
 5162TIP3   OH239680   7.197   3.180   2.082 -0.0697 -0.3863  0.8460
 5162TIP3    H139681   7.251   3.179   2.162 -1.1157  0.5244  1.5959
 5162TIP3    H239682   7.128   3.243   2.101 -0.6995 -0.6203 -0.5653
 5163TIP3   OH239683   0.549   2.098   2.114  0.5742 -0.1618  0.2340
 5163TIP3    H139684   0.514   2.164   2.055  1.3737 -0.0339 -0.1197
 5163TIP3    H239685   0.489   2.024   2.108  0.0816  0.2530  0.0623
 5164TIP3   OH239686   4.316   2.888   1.468 -0.1914  0.2005 -0.4421
 5164TIP3    H139687   4.260   2.915   1.541 -1.0410  1.0866 -1.3856
 5164TIP3    H239688   4.254   2.864   1.399  0.5801 -1.4638 -0.6051
 5165TIP3   OH239689   2.027   2.189   0.309 -0.4573  0.1656  0.4443
 5165TIP3    H139690   2.076   2.204   0.229 -0.4885 -2.2882 -0.0945
 5165TIP3    H239691   2.089   2.146   0.368 -0.2694  2.4124  2.0124
 5166TIP3   OH239692   0.344   4.317   8.644  0.6171  0.1658  0.0797
 5166TIP3    H139693   0.353   4.297   8.737 -0.1387 -0.8117 -0.0352
 5166TIP3    H239694   0.350   4.232   8.601  1.7785  0.6874 -0.8492
 5167TIP3   OH239695   1.269   0.470   9.136  0.0075 -0.2997 -0.3239
 5167TIP3    H139696   1.244   0.486   9.227 -1.8767 -0.3703 -0.7954
 5167TIP3    H239697   1.332   0.540   9.116  0.1562 -0.0669  0.9065
 5168TIP3   OH239698   4.144   6.546   0.641 -0.0533 -0.1786  0.2014
 5168TIP3    H139699   4.159   6.460   0.602  0.6647  0.4218 -0.8910
 5168TIP3    H239700   4.193   6.607   0.586 -0.0512  0.8679  1.3074
 5169TIP3   OH239701   1.874   2.045   1.312  0.2326  0.2745  0.1663
 5169TIP3    H139702   1.810   2.077   1.248 -0.2925 -0.9031  0.0645
 5169TIP3    H239703   1.927   2.121   1.335 -0.1481  0.9052 -1.0072
 5170TIP3   OH239704   6.568   1.032   7.635 -0.2535  0.5784 -0.7665
 5170TIP3    H139705   6.555   0.940   7.613  2.4278  0.1760 -0.9494
 5170TIP3    H239706   6.602   1.072   7.555  0.0746  1.3894 -0.2353
 5171TIP3   OH239707   1.586   5.336   9.690 -0.3046  0.0254  0.0262
 5171TIP3    H139708   1.573   5.427   9.663  0.2044 -0.0314 -0.4449
 5171TIP3    H239709   1.641   5.341   9.768  0.1803  0.1131 -0.3111
 5172TIP3   OH239710   0.599   5.587   6.833 -0.3137  0.1413 -0.0131
 5172TIP3    H139711   0.576   5.566   6.743 -0.5097  3.1023 -0.7587
 5172TIP3    H239712   0.694   5.593   6.833 -0.1554 -1.7407  0.5078
 5173TIP3   OH239713   2.657   2.655   0.101 -0.1586  0.0900 -0.1313
 5173TIP3    H139714   2.563   2.654   0.119  0.2453  0.5294  2.2885
 5173TIP3    H239715   2.682   2.563   0.093 -0.5566 -0.1008  0.7233
 5174TIP3   OH239716   0.450   2.791   7.644 -0.2645  0.4302 -0.2491
 5174TIP3    H139717   0.435   2.697   7.639 -1.4162  0.6114 -4.4658
 5174TIP3    H239718   0.545   2.801   7.633 -0.0598 -0.2012  0.8281
 5175TIP3   OH239719   3.519   5.704   2.242 -0.0328 -0.1992  0.4265
 5175TIP3    H139720   3.578   5.765   2.197 -1.1176 -0.0792 -0.9111
 5175TIP3    H239721   3.478   5.758   2.311 -0.8241  0.5627 -0.6069
 5176TIP3   OH239722   6.119   6.918   8.413  0.0019 -0.3744 -0.2629
 5176TIP3    H139723   6.099   6.902   8.320  0.9178 -0.1996 -0.5070
 5176TIP3    H239724   6.133   7.012   8.418  0.7809 -0.4858 -0.1326
 5177TIP3   OH239725   6.074   0.356   8.700  0.3387  0.4865  0.0101
 5177TIP3    H139726   6.047   0.375   8.610  1.8452  0.3832 -0.5029
 5177TIP3    H239727   6.110   0.267   8.696  2.6758  1.3592  0.1372
 5178TIP3   OH239728   5.411   0.249   8.455 -0.0499  0.0339 -0.4418
 5178TIP3    H139729   5.322   0.235   8.488 -0.6714  1.0226 -1.6086
 5178TIP3    H239730   5.466   0.244   8.533 -1.3311  1.1624  0.5842
 5179TIP3   OH239731   1.647   0.387   1.716  0.8310 -0.3989 -0.0541
 5179TIP3    H139732   1.693   0.397   1.632 -0.5793 -0.6355 -0.8965
 5179TIP3    H239733   1.576   0.451   1.711 -0.0916 -1.3644  0.3619
 5180TIP3   OH239734   6.736   3.475   8.972 -0.3678  0.2401  0.3620
 5180TIP3    H139735   6.708   3.468   8.881  2.5432 -0.2503 -0.5763
 5180TIP3    H239736   6.764   3.566   8.981  0.2108  0.0465  0.5091
 5181TIP3   OH239737   1.646   3.226   1.781 -0.7000 -0.0250  0.2327
 5181TIP3    H139738   1.561   3.237   1.825 -0.3737 -0.1969  0.9195
 5181TIP3    H239739   1.665   3.132   1.789 -0.0414  0.1529  0.8528
 5182TIP3   OH239740   1.212   4.219   7.925  0.0779 -0.4778  0.2313
 5182TIP3    H139741   1.227   4.225   7.830 -0.4325 -0.0026  0.1770
 5182TIP3    H239742   1.165   4.136   7.936 -0.5968 -0.1351 -0.0287
 5183TIP3   OH239743   5.262   3.593   9.878  0.5756 -0.2296 -0.4359
 5183TIP3    H139744   5.196   3.555   9.820 -0.2010  1.6712 -0.8888
 5183TIP3    H239745   5.219   3.594   9.964  1.1288 -1.5963 -0.1215
 5184TIP3   OH239746   3.597   4.691   9.146  0.1900 -0.4917 -0.0007
 5184TIP3    H139747   3.623   4.709   9.056  1.0148 -0.6047  0.2047
 5184TIP3    H239748   3.658   4.742   9.200  0.3622 -1.2118  0.5065
 5185TIP3   OH239749   0.036   7.428   0.882  0.3347  0.8829  0.7113
 5185TIP3    H139750  -0.002   7.345   0.910 -2.0671  1.3064 -0.9951
 5185TIP3    H239751   0.109   7.404   0.825 -1.9351 -0.2344 -1.9413
 5186TIP3   OH239752   4.628   4.172   2.008  0.0718 -0.0065  0.0219
 5186TIP3    H139753   4.569   4.245   2.025  0.0161  0.0577 -0.4427
 5186TIP3    H239754   4.594   4.132   1.928 -0.1890 -0.8321  0.5255
 5187TIP3   OH239755   7.362   0.594   8.861  0.4982  0.6636  0.0075
 5187TIP3    H139756   7.318   0.521   8.817  0.1245 -0.3487  1.9432
 5187TIP3    H239757   7.346   0.669   8.804 -3.8436  0.4118  0.4890
 5188TIP3   OH239758   0.579   1.152   8.913 -0.0733  0.3078  0.0801
 5188TIP3    H139759   0.587   1.131   8.820 -0.3456 -1.9092  0.4887
 5188TIP3    H239760   0.552   1.244   8.915  2.6006  1.2683 -1.9123
 5189TIP3   OH239761   1.158   5.081   0.861  0.1533  0.0071 -0.0072
 5189TIP3    H139762   1.186   4.989   0.859  1.0635  0.2737 -0.1612
 5189TIP3    H239763   1.238   5.129   0.884 -0.1793  0.8107 -0.5177
 5190TIP3   OH239764   7.406   0.957   8.418  0.2786 -0.1923 -1.0126
 5190TIP3    H139765   7.319   0.918   8.429  0.3481 -0.2573 -0.6857
 5190TIP3    H239766   7.413   1.019   8.491 -0.4999  1.6663 -2.4276
 5191TIP3   OH239767   5.145   7.160   9.855 -0.6121 -0.4364  0.4843
 5191TIP3    H139768   5.109   7.123   9.774  2.3064 -0.1038 -1.1089
 5191TIP3    H239769   5.091   7.237   9.872 -1.5195 -0.7113 -0.9540
 5192TIP3   OH239770   0.679   5.264   7.125 -0.5257  0.1959  0.0107
 5192TIP3    H139771   0.602   5.320   7.135  0.1371  1.6952 -2.5289
 5192TIP3    H239772   0.656   5.203   7.055  0.4022  0.3064 -0.4043
 5193TIP3   OH239773   1.524   0.410   8.401  0.9400 -0.5159  0.3436
 5193TIP3    H139774   1.495   0.385   8.314  0.3419 -0.7231  0.6028
 5193TIP3    H239775   1.463   0.367   8.461  1.5014 -0.5896  0.8754
 5194TIP3   OH239776   1.552   5.247   1.098  0.0817  0.3335 -0.2592
 5194TIP3    H139777   1.545   5.310   1.026  0.8050 -0.6546 -1.2253
 5194TIP3    H239778   1.550   5.161   1.055 -0.0650 -0.2876  0.9555
 5195TIP3   OH239779   2.393   1.828   3.264 -0.5707  0.1533 -0.3000
 5195TIP3    H139780   2.329   1.791   3.325  0.3203 -1.2960 -0.2038
 5195TIP3    H239781   2.352   1.819   3.178  0.1274 -2.3675 -0.4430
 5196TIP3   OH239782   5.715   5.195   8.221 -0.0634 -0.7588  0.5185
 5196TIP3    H139783   5.725   5.198   8.126  0.6698 -0.5521  0.5960
 5196TIP3    H239784   5.631   5.238   8.238  0.5039  0.5821  0.0727
 5197TIP3   OH239785   2.748   5.290   8.261 -0.1702  0.4268  0.2680
 5197TIP3    H139786   2.786   5.324   8.180  0.5060 -0.2577  0.2868
 5197TIP3    H239787   2.724   5.199   8.240 -0.6246  0.4582  0.6363
 5198TIP3   OH239788   4.901   3.513   1.402  0.1511 -0.2951  0.4477
 5198TIP3    H139789   4.934   3.426   1.426  1.7070 -0.0969 -0.8095
 5198TIP3    H239790   4.957   3.574   1.450 -2.2096  0.0875  2.9391
 5199TIP3   OH239791   4.474   4.240   9.254  0.0550 -0.0491  0.4722
 5199TIP3    H139792   4.529   4.291   9.195 -1.3566 -0.7438 -1.5582
 5199TIP3    H239793   4.535   4.193   9.311  1.4710  0.6351 -0.4391
 5200TIP3   OH239794   6.160   2.953   1.924  0.5360  0.1227 -0.1294
 5200TIP3    H139795   6.215   2.890   1.879  1.0645 -0.5470  1.3840
 5200TIP3    H239796   6.090   2.901   1.963 -0.2581  0.7620 -0.6710
 5201TIP3   OH239797   0.522   6.854   8.880 -0.5830 -0.0917  0.4332
 5201TIP3    H139798   0.523   6.857   8.976  1.0763  0.4113  0.4270
 5201TIP3    H239799   0.553   6.940   8.852 -0.3828 -0.4620 -0.5443
 5202TIP3   OH239800   6.302   6.242   0.685 -0.4114  0.1452 -0.1757
 5202TIP3    H139801   6.281   6.238   0.592 -0.8323 -0.2233 -0.0673
 5202TIP3    H239802   6.245   6.312   0.720 -1.5123 -0.8721  0.1231
 5203TIP3   OH239803   1.566   7.346   8.933 -0.1195 -0.1544 -0.5894
 5203TIP3    H139804   1.538   7.323   8.845  0.2002 -1.1296 -0.4489
 5203TIP3    H239805   1.586   7.440   8.929 -0.8313 -0.0357 -1.3531
 5204TIP3   OH239806   3.693   0.252   8.343 -0.8397 -0.0912  0.2543
 5204TIP3    H139807   3.599   0.266   8.330 -0.5644  1.8824  0.1108
 5204TIP3    H239808   3.728   0.242   8.254 -0.8234 -0.2580  0.2782
 5205TIP3   OH239809   6.951   3.984   1.029  0.0165  0.4614 -0.5119
 5205TIP3    H139810   6.868   3.955   1.067 -0.8977  2.4638 -0.8470
 5205TIP3    H239811   7.001   3.903   1.016 -0.9831 -0.6172  1.7164
 5206TIP3   OH239812   6.978   4.619   7.473  0.1096 -0.0520  0.6750
 5206TIP3    H139813   7.056   4.673   7.477  0.4917 -0.6658  2.4492
 5206TIP3    H239814   7.008   4.538   7.430 -0.0990  0.4956 -0.5676
 5207TIP3   OH239815   1.207   1.108   3.086 -0.3107 -0.0293 -0.1752
 5207TIP3    H139816   1.167   1.039   3.032 -0.8965 -0.0221  0.2391
 5207TIP3    H239817   1.148   1.183   3.076  0.1533  0.3123 -0.3685
 5208TIP3   OH239818   5.637   0.243   8.649 -0.8382 -0.2310 -0.9610
 5208TIP3    H139819   5.687   0.284   8.720 -0.5930 -1.2355 -0.5432
 5208TIP3    H239820   5.704   0.216   8.586 -0.9639 -0.3671 -1.0336
 5209TIP3   OH239821   0.982   0.571   9.790  0.2040 -0.3373 -0.2110
 5209TIP3    H139822   1.070   0.574   9.754  0.2364  2.4767 -0.1297
 5209TIP3    H239823   0.952   0.662   9.786 -2.4951 -1.1355  0.2668
 5210TIP3   OH239824   2.610   4.606   0.562 -0.0472  0.0388  0.2518
 5210TIP3    H139825   2.673   4.668   0.597  0.6579 -0.2839 -0.4297
 5210TIP3    H239826   2.532   4.619   0.616  0.0590  1.5424  0.0813
 5211TIP3   OH239827   1.830   6.922   8.019  0.2581 -0.1003 -0.0618
 5211TIP3    H139828   1.804   6.837   7.984  0.7769  0.9989 -3.4308
 5211TIP3    H239829   1.763   6.982   7.989  1.0222  1.0411  0.4396
 5212TIP3   OH239830   6.279   0.407   9.405  0.3592 -0.1754  0.0283
 5212TIP3    H139831   6.260   0.331   9.460 -2.1008  0.3687  0.0798
 5212TIP3    H239832   6.358   0.445   9.442 -0.2520 -0.8133  2.1125
 5213TIP3   OH239833   2.289   4.777   0.335  0.2814 -0.1336  0.1705
 5213TIP3    H139834   2.368   4.773   0.281  0.1579 -0.4017  0.0079
 5213TIP3    H239835   2.220   4.744   0.278  0.3129 -1.3354  0.7989
 5214TIP3   OH239836   0.495   3.545   0.489 -0.8921  0.1566  0.2308
 5214TIP3    H139837   0.528   3.571   0.403  0.1595 -1.1355  0.2020
 5214TIP3    H239838   0.477   3.451   0.480  2.1864 -0.7710  2.2078
 5215TIP3   OH239839   6.338   0.594   9.723 -0.6341  0.2194 -0.5889
 5215TIP3    H139840   6.392   0.576   9.800 -1.0187 -1.2695 -0.6478
 5215TIP3    H239841   6.300   0.680   9.740  0.7610  0.7446  0.0169
 5216TIP3   OH239842   2.500   6.190   2.000  0.4445  0.1153  0.8278
 5216TIP3    H139843   2.514   6.158   1.911 -2.5743  2.1938 -0.6111
 5216TIP3    H239844   2.533   6.280   1.998  1.3816 -0.1774  2.1924
 5217TIP3   OH239845   2.949   6.408   1.313 -0.6282 -0.1028 -0.1113
 5217TIP3    H139846   2.954   6.467   1.238 -0.3344 -1.1607 -0.9564
 5217TIP3    H239847   2.977   6.323   1.278 -1.7726 -0.9197  0.8661
 5218TIP3   OH239848   5.454   5.493   9.167  0.1881  0.5955  0.1128
 5218TIP3    H139849   5.383   5.476   9.105 -0.2608  0.7543  0.5808
 5218TIP3    H239850   5.476   5.585   9.152 -1.6874  1.4311  1.9511
 5219TIP3   OH239851   0.893   1.109   9.871  0.5836  0.0206 -0.5404
 5219TIP3    H139852   0.933   1.171   9.810  0.2954  2.2979  1.4231
 5219TIP3    H239853   0.965   1.083   9.928  0.7459 -1.6979 -1.4829
 5220TIP3   OH239854   3.387   4.567   2.782 -0.4807 -0.0942 -0.2065
 5220TIP3    H139855   3.302   4.526   2.766  0.2436 -1.2328 -1.3174
 5220TIP3    H239856   3.451   4.501   2.754  0.7732  0.7539  0.5600
 5221TIP3   OH239857   5.621   5.268   9.644 -0.0825  0.4529 -0.5256
 5221TIP3    H139858   5.647   5.197   9.703 -0.8940 -0.4356 -1.2070
 5221TIP3    H239859   5.704   5.299   9.606  0.1465 -1.4400 -1.6819
 5222TIP3   OH239860   7.257   5.109   1.822  0.0579 -0.1488 -0.0782
 5222TIP3    H139861   7.291   5.168   1.890 -1.0903  0.1820  0.2221
 5222TIP3    H239862   7.165   5.132   1.814  0.1879 -0.0911 -1.8551
 5223TIP3   OH239863   2.581   0.857   9.286 -0.2710  0.3513  0.3718
 5223TIP3    H139864   2.524   0.844   9.362  0.1072 -0.4232  0.5347
 5223TIP3    H239865   2.618   0.944   9.299  0.4523 -0.0972  1.5476
 5224TIP3   OH239866   0.565   6.883   7.988  0.9075  0.6715  0.4859
 5224TIP3    H139867   0.658   6.897   7.971  0.7658  0.5528 -0.4485
 5224TIP3    H239868   0.524   6.887   7.901  0.2513 -0.8515  0.7018
 5225TIP3   OH239869   4.492   5.555   7.506 -0.0337  0.2745 -0.0116
 5225TIP3    H139870   4.582   5.530   7.487 -0.2024  0.1205 -0.6502
 5225TIP3    H239871   4.441   5.519   7.433 -0.7476 -0.4568  0.8241
 5226TIP3   OH239872   1.123   1.976   2.467  0.4755  0.3547 -0.3990
 5226TIP3    H139873   1.066   1.948   2.539  0.6736 -0.2942 -0.4881
 5226TIP3    H239874   1.212   1.967   2.503  0.5349  3.0516  0.3751
 5227TIP3   OH239875   1.203   6.221   8.446  0.2606  0.1814 -0.3450
 5227TIP3    H139876   1.200   6.287   8.516  1.3891  1.7675 -1.7035
 5227TIP3    H239877   1.261   6.154   8.480  0.2851  0.6050  0.4946
 5228TIP3   OH239878   3.544   3.440   8.365  0.4769 -0.3295  0.2416
 5228TIP3    H139879   3.575   3.516   8.414 -1.1567  2.4736 -2.6879
 5228TIP3    H239880   3.604   3.433   8.291 -0.8724 -0.2351 -0.8907
 5229TIP3   OH239881   1.642   3.339   8.983 -0.3274  0.3432  0.2359
 5229TIP3    H139882   1.579   3.398   8.941 -3.1715 -2.6004  0.0124
 5229TIP3    H239883   1.637   3.360   9.076 -0.9841  0.7057  0.1193
 5230TIP3   OH239884   2.804   2.736   9.143 -0.2262 -0.2766 -0.1610
 5230TIP3    H139885   2.801   2.831   9.130 -1.8594 -0.3460 -0.4840
 5230TIP3    H239886   2.872   2.705   9.083  0.1232  0.6566 -0.2576
 5231TIP3   OH239887   1.821   3.107   2.692  0.4615  0.1436 -0.9538
 5231TIP3    H139888   1.901   3.158   2.678  1.5502 -0.8948  0.9954
 5231TIP3    H239889   1.849   3.034   2.748 -1.6308 -0.9346 -1.2117
 5232TIP3   OH239890   6.420   1.622   2.136 -0.4038  0.2340  0.4676
 5232TIP3    H139891   6.508   1.614   2.174 -1.1146 -0.7246  2.0244
 5232TIP3    H239892   6.405   1.537   2.095 -0.2803  0.7083 -0.5930
 5233TIP3   OH239893   2.663   2.677   2.239  1.0689  1.4558 -0.2135
 5233TIP3    H139894   2.666   2.721   2.324  0.5841  1.8415 -0.3878
 5233TIP3    H239895   2.642   2.586   2.260  0.1686  1.7063  0.0464
 5234TIP3   OH239896   0.725   3.421   0.981 -0.3867 -0.3321  0.0283
 5234TIP3    H139897   0.728   3.394   0.889 -0.1900  0.0996 -0.0959
 5234TIP3    H239898   0.652   3.483   0.985 -0.5726 -0.5613  0.2234
 5235TIP3   OH239899   3.531   2.618   8.838 -0.5481 -0.1576  0.9185
 5235TIP3    H139900   3.451   2.593   8.792 -1.4121  1.8869  1.2430
 5235TIP3    H239901   3.601   2.584   8.783 -1.5788  0.9060 -1.1313
 5236TIP3   OH239902   0.473   6.478   9.024  0.2215 -0.4873  0.4337
 5236TIP3    H139903   0.418   6.437   8.957 -0.0651 -2.4901  1.8034
 5236TIP3    H239904   0.531   6.536   8.975 -0.8742 -0.8344 -1.3899
 5237TIP3   OH239905   3.562   6.476   2.476  0.2865 -0.4508  0.3077
 5237TIP3    H139906   3.482   6.527   2.463 -0.1427 -1.0972  0.3823
 5237TIP3    H239907   3.633   6.535   2.448 -0.1378  0.4361  1.0446
 5238TIP3   OH239908   2.490   3.116   6.847 -0.1272  0.3083  0.0484
 5238TIP3    H139909   2.584   3.134   6.842  0.2804 -0.2425  3.1737
 5238TIP3    H239910   2.484   3.025   6.877 -1.5638  0.7172  1.1510
 5239TIP3   OH239911   5.112   1.699   9.096  0.0229  0.3504 -0.6345
 5239TIP3    H139912   5.105   1.760   9.022  0.7215  1.3730  0.1055
 5239TIP3    H239913   5.075   1.748   9.170  1.2931  0.1908  0.1386
 5240TIP3   OH239914   2.059   4.145   1.495 -0.2780  0.0272  0.0008
 5240TIP3    H139915   2.079   4.103   1.578 -2.8385  1.1928  1.3172
 5240TIP3    H239916   2.103   4.230   1.500 -0.4525  0.1072  0.1821
 5241TIP3   OH239917   1.215   5.869   1.672  0.6146 -0.3626  0.0964
 5241TIP3    H139918   1.243   5.959   1.656  0.4740 -0.1473  0.9711
 5241TIP3    H239919   1.226   5.858   1.767 -0.3931 -0.8991  0.1663
 5242TIP3   OH239920   1.153   1.018   2.297  0.1093  0.2706 -0.0183
 5242TIP3    H139921   1.163   1.015   2.392  0.7761 -0.1282 -0.0931
 5242TIP3    H239922   1.112   0.934   2.275  1.3186 -0.2823 -0.2243
 5243TIP3   OH239923   6.443   3.958   1.669 -0.5758  0.1747 -0.4974
 5243TIP3    H139924   6.528   3.935   1.632 -0.2349  0.7801 -0.1104
 5243TIP3    H239925   6.380   3.906   1.619  0.0223 -0.3150 -0.7575
 5244TIP3   OH239926   0.094   2.450   1.145 -0.2373  0.1311  0.3058
 5244TIP3    H139927   0.141   2.528   1.113  0.1334  0.4549  1.6029
 5244TIP3    H239928   0.002   2.476   1.143 -0.1440  0.4712  0.3919
 5245TIP3   OH239929   5.920   3.100   8.752 -1.1472 -0.2036  0.3920
 5245TIP3    H139930   5.981   3.031   8.726  1.7362  2.5850 -0.9241
 5245TIP3    H239931   5.947   3.123   8.841 -2.9660 -1.5569  1.3418
 5246TIP3   OH239932   4.745   2.132   9.238  0.5420 -0.1966 -0.4493
 5246TIP3    H139933   4.656   2.103   9.215  0.1102 -0.8600  1.7699
 5246TIP3    H239934   4.772   2.071   9.307  0.9515  2.5592  2.0313
 5247TIP3   OH239935   5.086   0.733   0.140  0.0144  0.2726  0.6539
 5247TIP3    H139936   5.056   0.748   0.051  0.2534  0.0136  0.5286
 5247TIP3    H239937   5.078   0.638   0.153  2.9054 -0.1884 -0.1908
 5248TIP3   OH239938   1.339   5.053   0.320 -0.0001 -0.4873  0.1514
 5248TIP3    H139939   1.365   5.145   0.315 -0.2687 -0.4853 -1.7447
 5248TIP3    H239940   1.417   5.004   0.294  0.2365 -0.8368  1.4540
 5249TIP3   OH239941   7.210   2.905   0.150  0.3225  0.0561  0.0018
 5249TIP3    H139942   7.170   2.941   0.230 -1.1368  0.8132 -1.0118
 5249TIP3    H239943   7.172   2.817   0.143 -0.8510  0.5824 -0.6777
 5250TIP3   OH239944   5.927   0.879   8.476 -0.4187 -0.0171  0.2496
 5250TIP3    H139945   5.897   0.970   8.469  1.4086  0.6305  0.2189
 5250TIP3    H239946   6.010   0.885   8.524 -0.8094 -1.8134  1.2551
 5251TIP3   OH239947   5.296   3.036   1.690  0.0748 -0.0790  0.6865
 5251TIP3    H139948   5.283   3.113   1.635 -0.1193 -0.8031 -0.3087
 5251TIP3    H239949   5.368   3.060   1.749  0.5574  0.5697 -0.1487
 5252TIP3   OH239950   6.861   6.423   9.486 -0.4890  0.3201 -0.1663
 5252TIP3    H139951   6.796   6.353   9.488 -0.7781  0.5346 -1.2039
 5252TIP3    H239952   6.910   6.413   9.567 -1.0790 -0.5520  0.0980
 5253TIP3   OH239953   2.884   3.899   1.489 -0.5417  0.2783 -0.1924
 5253TIP3    H139954   2.846   3.840   1.555  0.0936  0.7273  0.5895
 5253TIP3    H239955   2.976   3.906   1.514  0.0503 -0.6610 -1.9697
 5254TIP3   OH239956   0.792   2.849   9.226  0.9653  0.1844 -0.1856
 5254TIP3    H139957   0.873   2.900   9.219  1.5073 -0.4280  1.2422
 5254TIP3    H239958   0.804   2.796   9.304  0.3489 -2.0286 -1.4915
 5255TIP3   OH239959   3.294   5.155   0.593 -0.7028 -0.0537 -0.1140
 5255TIP3    H139960   3.202   5.128   0.591 -1.4829  2.3913 -1.1551
 5255TIP3    H239961   3.320   5.157   0.501  0.0548  0.3979  0.1021
 5256TIP3   OH239962   2.715   7.072   2.275 -0.0843 -0.0808  0.1398
 5256TIP3    H139963   2.707   6.991   2.325 -0.2170 -0.4770 -0.5206
 5256TIP3    H239964   2.751   7.046   2.191 -1.8449  0.2628 -0.7709
 5257TIP3   OH239965   7.185   3.497   1.944  0.0185 -0.7366 -0.1818
 5257TIP3    H139966   7.233   3.562   1.893  0.4204 -1.7689 -1.1622
 5257TIP3    H239967   7.190   3.528   2.035 -1.6680  1.7426 -0.8285
 5258TIP3   OH239968   0.224   1.279   7.764  0.3128  0.3622 -0.2819
 5258TIP3    H139969   0.307   1.312   7.732 -0.1836  2.1951  0.1619
 5258TIP3    H239970   0.247   1.211   7.827  1.4664  0.6027 -0.4334
 5259TIP3   OH239971   6.027   0.274   8.409  0.4622  0.0318  0.1739
 5259TIP3    H139972   6.090   0.238   8.347  0.5374  1.3979 -0.5922
 5259TIP3    H239973   5.942   0.267   8.364  0.2747 -0.5094  0.6122
 5260TIP3   OH239974   1.014   2.763   0.979 -0.0532 -0.3446 -0.1588
 5260TIP3    H139975   1.000   2.777   0.885  0.6861 -1.0893 -0.4017
 5260TIP3    H239976   0.986   2.673   0.994 -0.2396 -0.2012  0.3520
 5261TIP3   OH239977   0.507   0.673   8.041  0.2807 -0.0891  0.2220
 5261TIP3    H139978   0.549   0.759   8.043  0.5513 -0.1451 -1.4727
 5261TIP3    H239979   0.550   0.623   8.110 -0.0377  1.1959  1.3698
 5262TIP3   OH239980   7.348   1.490   0.889  0.4996 -0.3549 -0.3086
 5262TIP3    H139981   7.350   1.529   0.976  1.4948 -1.0200 -0.0177
 5262TIP3    H239982   7.263   1.446   0.884  0.7775 -1.0183  0.6479
 5263TIP3   OH239983   2.749   5.496   0.514  0.1853  0.1826 -0.3300
 5263TIP3    H139984   2.783   5.532   0.596 -0.9403  0.0421  0.2204
 5263TIP3    H239985   2.824   5.494   0.455  1.1306 -0.1950  0.8602
 5264TIP3   OH239986   6.435   2.169   8.910  0.1808 -0.0042  0.2519
 5264TIP3    H139987   6.409   2.159   9.001  0.8839  0.1816  0.4753
 5264TIP3    H239988   6.523   2.132   8.905  0.3421  0.4337 -0.2440
 5265TIP3   OH239989   4.930   5.335   9.933 -0.1889  0.4722 -0.0218
 5265TIP3    H139990   4.915   5.279  10.009  0.4602  1.0832  0.5794
 5265TIP3    H239991   4.871   5.302   9.865 -2.1959  1.0925  1.3411
 5266TIP3   OH239992   1.070   5.780   8.589  0.1137  0.4758 -0.7092
 5266TIP3    H139993   1.100   5.869   8.604  1.2353  0.1109 -0.7287
 5266TIP3    H239994   1.081   5.736   8.674 -0.9755  0.4881 -0.5390
 5267TIP3   OH239995   7.432   1.893   2.750  0.2912 -0.8295 -0.7546
 5267TIP3    H139996   7.411   1.982   2.724  0.5703 -0.2017  1.0479
 5267TIP3    H239997   7.368   1.839   2.704 -0.2556  0.3368 -1.4126
 5268TIP3   OH239998   0.874   4.310   8.032 -0.3653 -0.3630  0.0533
 5268TIP3    H139999   0.916   4.396   8.032 -3.2455  1.1968  1.6051
 5268TIP3    H240000   0.812   4.313   8.104 -2.1018 -3.0045 -1.1480
 5269TIP3   OH240001   3.697   2.979   9.897 -0.4215  0.4034 -0.2164
 5269TIP3    H140002   3.727   3.037   9.827  0.5817 -1.1647 -1.1570
 5269TIP3    H240003   3.661   3.037   9.964  0.9489  2.1218 -0.9113
 5270TIP3   OH240004   1.236   5.412   7.039  0.1884  0.2307  0.1453
 5270TIP3    H140005   1.324   5.375   7.048  0.0225  0.3150  2.8810
 5270TIP3    H240006   1.180   5.353   7.088 -0.8578  1.5874  0.6422
 5271TIP3   OH240007   0.562   2.156   7.177  0.6871 -0.0119 -0.3875
 5271TIP3    H140008   0.646   2.192   7.149  0.5626 -0.0163 -0.7737
 5271TIP3    H240009   0.509   2.232   7.198  0.6571  0.0051 -0.5248
 5272TIP3   OH240010   6.801   2.446   0.089 -0.5953 -0.3711  0.3424
 5272TIP3    H140011   6.869   2.494   0.136 -0.3586  0.3626 -0.7185
 5272TIP3    H240012   6.846   2.369   0.055  0.4345  1.3210 -2.4868
 5273TIP3   OH240013   6.807   4.902   0.451  0.1793  0.0408 -0.6125
 5273TIP3    H140014   6.719   4.883   0.416 -0.5652 -0.3631  1.3528
 5273TIP3    H240015   6.831   4.823   0.499  2.0945 -0.2420 -1.9141
 5274TIP3   OH240016   5.577   1.451   8.925 -0.0408  0.0598  0.3018
 5274TIP3    H140017   5.521   1.528   8.914 -0.4342 -0.1858  0.5406
 5274TIP3    H240018   5.659   1.486   8.960  0.2383  0.5123 -0.7908
 5275TIP3   OH240019   0.065   6.317   9.386 -0.3064  0.4053 -0.2192
 5275TIP3    H140020   0.034   6.407   9.397 -1.0183  0.2359 -0.7479
 5275TIP3    H240021   0.148   6.314   9.434 -0.4791  1.2269  0.1495
 5276TIP3   OH240022   6.303   4.956   8.107  0.0892  0.3790 -0.0323
 5276TIP3    H140023   6.223   5.000   8.077  0.3231  1.0317  0.2846
 5276TIP3    H240024   6.373   5.015   8.080  0.3103  1.0043  1.8092
 5277TIP3   OH240025   5.134   5.648   0.306  0.3529 -0.3292  0.6493
 5277TIP3    H140026   5.075   5.600   0.365 -0.8176  1.8638  1.3707
 5277TIP3    H240027   5.075   5.692   0.245  1.1491  2.2936  1.6718
 5278TIP3   OH240028   3.332   3.451   2.155  0.0426 -0.0189 -0.1557
 5278TIP3    H140029   3.383   3.403   2.219 -0.1689  1.4558  1.1830
 5278TIP3    H240030   3.243   3.451   2.190 -0.1456  0.5200 -0.6139
 5279TIP3   OH240031   0.946   7.339   9.698 -0.2536 -0.0358  0.0575
 5279TIP3    H140032   0.997   7.304   9.625  0.4855 -0.6568  0.8425
 5279TIP3    H240033   0.871   7.382   9.657 -0.2903 -1.0858 -1.0190
 5280TIP3   OH240034   5.361   0.351   0.830  0.6248  0.2487 -0.0330
 5280TIP3    H140035   5.397   0.263   0.837 -0.7958 -0.5786 -2.1151
 5280TIP3    H240036   5.437   0.408   0.819  1.6743 -0.4431  2.8345
 5281TIP3   OH240037   0.374   4.867   9.592  0.4802 -0.1888  0.8573
 5281TIP3    H140038   0.324   4.940   9.629  0.2644 -0.8133  1.8472
 5281TIP3    H240039   0.311   4.795   9.589  0.8693 -0.5134  0.5216
 5282TIP3   OH240040   4.215   5.706   2.271 -0.0398 -0.2907 -0.0702
 5282TIP3    H140041   4.205   5.613   2.288  1.0671 -0.8816 -2.2491
 5282TIP3    H240042   4.142   5.747   2.318 -0.2867 -2.1849  1.3019
 5283TIP3   OH240043   5.624   3.951   8.164 -0.1052  0.0027 -0.6347
 5283TIP3    H140044   5.699   4.009   8.177  1.6644 -1.9309 -1.5027
 5283TIP3    H240045   5.660   3.863   8.175 -2.2665 -1.0124 -1.0852
 5284TIP3   OH240046   6.346   1.312   8.693 -0.5805  0.1186 -0.5142
 5284TIP3    H140047   6.439   1.303   8.670 -0.4504  1.8975 -0.8837
 5284TIP3    H240048   6.303   1.237   8.654  0.7715 -0.9878  0.0524
 5285TIP3   OH240049   1.138   3.293   2.729 -0.4949  0.3830 -0.1233
 5285TIP3    H140050   1.203   3.238   2.685  0.1753  1.4563 -0.5240
 5285TIP3    H240051   1.113   3.244   2.807  1.7353  0.4646  0.7131
 5286TIP3   OH240052   3.316   6.057   0.718 -0.3524 -0.0734  0.4215
 5286TIP3    H140053   3.399   6.090   0.752 -0.3669 -1.1714  1.5725
 5286TIP3    H240054   3.305   6.103   0.634 -0.0041  2.2504  1.5731
 5287TIP3   OH240055   4.215   3.601   9.693 -0.6127 -0.2342 -0.0509
 5287TIP3    H140056   4.195   3.692   9.718 -0.9223 -0.5202  0.8053
 5287TIP3    H240057   4.198   3.598   9.599 -2.3733  0.1571  0.2111
 5288TIP3   OH240058   1.088   6.690   2.247 -0.0001 -0.3572 -0.0917
 5288TIP3    H140059   1.068   6.627   2.178 -2.6017 -1.8369  1.8654
 5288TIP3    H240060   1.010   6.693   2.302  0.4082  3.7680  0.6358
 5289TIP3   OH240061   4.463   4.249   8.336  0.1320 -0.0268 -0.3478
 5289TIP3    H140062   4.519   4.199   8.277  0.2204  0.0235 -0.3065
 5289TIP3    H240063   4.400   4.292   8.278  0.4964  0.3817 -0.4491
 5290TIP3   OH240064   0.740   2.866   1.000  0.0491  0.1159 -0.7235
 5290TIP3    H140065   0.782   2.896   1.080 -0.8369 -1.1684  0.2639
 5290TIP3    H240066   0.810   2.866   0.935  1.0647  0.0966  0.3418
 5291TIP3   OH240067   1.723   2.412   9.146  0.6576  0.1394 -0.1878
 5291TIP3    H140068   1.805   2.364   9.133  0.8558  0.0514  1.1737
 5291TIP3    H240069   1.750   2.492   9.191  0.2235  1.1389 -1.6397
 5292TIP3   OH240070   3.965   4.311   9.036  0.3456  0.1385 -0.1107
 5292TIP3    H140071   4.017   4.242   9.077  0.3567  0.6454  0.7437
 5292TIP3    H240072   3.936   4.366   9.108 -0.2319  0.6470 -0.7147
 5293TIP3   OH240073   6.258   2.078   1.533  0.1193 -0.2536  0.3837
 5293TIP3    H140074   6.195   2.017   1.571  1.7772 -1.9586  0.5044
 5293TIP3    H240075   6.244   2.071   1.439 -0.7980  0.4372  0.4568
 5294TIP3   OH240076   4.080   4.595   0.168  0.3536 -0.2654  0.1354
 5294TIP3    H140077   4.050   4.504   0.175  0.9071 -0.3219  3.4596
 5294TIP3    H240078   4.001   4.647   0.181  0.2314 -0.2723 -0.5546
 5295TIP3   OH240079   1.779   6.727   0.662 -0.1869 -0.0143  0.0859
 5295TIP3    H140080   1.723   6.782   0.607  0.6880  1.0730  0.2640
 5295TIP3    H240081   1.762   6.638   0.631 -1.7078  0.3214 -0.1309
 5296TIP3   OH240082   1.312   0.613   2.178 -0.8425 -0.2313  0.3634
 5296TIP3    H140083   1.281   0.653   2.259 -0.6713 -1.3380  1.0072
 5296TIP3    H240084   1.371   0.543   2.207  0.7013  0.5386 -0.7617
 5297TIP3   OH240085   1.429   4.703   2.969 -0.3020  0.3040  0.9037
 5297TIP3    H140086   1.369   4.763   3.011 -0.8961  0.0461  0.4380
 5297TIP3    H240087   1.373   4.633   2.934  0.3350 -0.3269  1.1194
 5298TIP3   OH240088   1.329   3.213   8.570  0.0707 -0.5293  0.1722
 5298TIP3    H140089   1.397   3.166   8.522  1.5637 -0.2331  1.8695
 5298TIP3    H240090   1.250   3.160   8.558  0.4046 -0.5568 -2.3559
 5299TIP3   OH240091   4.465   2.527   1.078 -0.1609  0.1526 -0.1943
 5299TIP3    H140092   4.386   2.475   1.065  0.2267  0.0049 -2.2923
 5299TIP3    H240093   4.510   2.523   0.994  2.0950  0.2410  0.9518
 5300TIP3   OH240094   2.399   6.912   7.894 -0.2424 -0.6250 -0.3305
 5300TIP3    H140095   2.453   6.990   7.880 -2.0931  0.3751 -2.6625
 5300TIP3    H240096   2.455   6.839   7.868  1.1307 -0.0036  0.7644
 5301TIP3   OH240097   7.376   3.612   0.378 -0.4205 -1.0094  0.0570
 5301TIP3    H140098   7.332   3.556   0.441  0.1611 -0.0274  1.3780
 5301TIP3    H240099   7.308   3.674   0.349 -0.3821 -0.6661  0.6872
 5302TIP3   OH240100   5.850   6.254   7.097 -0.2907  0.6324 -0.1952
 5302TIP3    H140101   5.908   6.193   7.143  0.1191  1.7984  0.8799
 5302TIP3    H240102   5.774   6.200   7.072  0.5502 -0.5593 -0.2730
 5303TIP3   OH240103   6.208   4.752   7.564  0.0662  0.2896 -0.2437
 5303TIP3    H140104   6.274   4.795   7.510  0.1227  1.0676  0.4161
 5303TIP3    H240105   6.135   4.814   7.566 -0.3470 -0.1860 -0.2649
 5304TIP3   OH240106   0.203   4.895   9.173 -0.4072  0.5978 -0.2744
 5304TIP3    H140107   0.125   4.941   9.142 -0.1809  1.9979  1.1070
 5304TIP3    H240108   0.264   4.964   9.198  1.0134 -0.4685 -0.5945
 5305TIP3   OH240109   1.767   1.550   9.674  0.1290  0.0920 -0.0737
 5305TIP3    H140110   1.781   1.534   9.581  0.2376  0.8839 -0.2009
 5305TIP3    H240111   1.701   1.486   9.700 -0.4576  0.3615 -0.8669
 5306TIP3   OH240112   6.129   4.178   2.530  0.1249 -0.1215  0.6122
 5306TIP3    H140113   6.224   4.185   2.535  0.0642  0.3152  1.1915
 5306TIP3    H240114   6.114   4.117   2.457  0.7964  2.6173 -2.0346
 5307TIP3   OH240115   4.392   1.959   8.233  0.2665  0.6035 -0.3180
 5307TIP3    H140116   4.424   2.022   8.297  0.0360  1.1584 -0.7381
 5307TIP3    H240117   4.298   1.976   8.227  0.3053  0.6603 -0.8989
 5308TIP3   OH240118   1.668   5.338   2.281 -0.0261  0.4046  0.3512
 5308TIP3    H140119   1.678   5.371   2.370 -1.3196 -0.3142  0.7935
 5308TIP3    H240120   1.635   5.412   2.231  0.8910  0.8653  0.4156
 5309TIP3   OH240121   3.577   2.156   8.678 -0.6177 -0.4681  0.0804
 5309TIP3    H140122   3.568   2.166   8.583  1.2806 -0.4305 -0.1396
 5309TIP3    H240123   3.646   2.219   8.701 -1.3475 -0.1884  1.5528
 5310TIP3   OH240124   0.028   4.897   9.395 -1.0455 -0.2743 -0.2097
 5310TIP3    H140125  -0.003   4.808   9.378 -0.7970  0.0180 -2.5012
 5310TIP3    H240126   0.114   4.901   9.352  0.5836  0.0710  2.8138
 5311TIP3   OH240127   0.799   1.389   2.752 -0.1672  0.6651  0.5564
 5311TIP3    H140128   0.721   1.435   2.784 -1.2576 -0.6740 -0.0951
 5311TIP3    H240129   0.809   1.314   2.810 -0.5668 -0.2763 -0.5484
 5312TIP3   OH240130   6.305   5.215   0.970  0.2811 -0.0684  1.0831
 5312TIP3    H140131   6.325   5.163   1.047  0.5435  0.9392  1.7156
 5312TIP3    H240132   6.250   5.158   0.916  0.3321 -0.8900  1.8734
 5313TIP3   OH240133   3.284   3.579   6.909  0.8807 -0.0654 -0.6197
 5313TIP3    H140134   3.338   3.500   6.920  2.0901  0.8372  0.2883
 5313TIP3    H240135   3.346   3.652   6.920 -0.4032  1.0213 -0.2813
 5314TIP3   OH240136   4.735   5.578   1.037  0.1600 -0.3660 -0.4027
 5314TIP3    H140137   4.661   5.519   1.050  0.8923 -1.5268 -1.2912
 5314TIP3    H240138   4.811   5.520   1.032  1.3089  0.8450  1.5165
 5315TIP3   OH240139   1.533   2.721   8.399 -0.5059  0.3402 -0.1314
 5315TIP3    H140140   1.614   2.772   8.392 -0.2301 -0.1919 -0.9373
 5315TIP3    H240141   1.532   2.689   8.489  0.7264 -0.5340 -0.4091
 5316TIP3   OH240142   4.705   4.852   0.419  0.5957  0.2438 -0.1519
 5316TIP3    H140143   4.637   4.868   0.353  0.8632  2.4021  0.0246
 5316TIP3    H240144   4.787   4.853   0.369  0.5928 -1.7202 -0.2687
 5317TIP3   OH240145   4.189   6.940   1.675  0.5281  0.3483 -0.5276
 5317TIP3    H140146   4.165   7.022   1.718  0.8646  0.5765 -0.7666
 5317TIP3    H240147   4.280   6.953   1.650  0.4939  0.0106 -0.8255
 5318TIP3   OH240148   4.716   6.313   1.820  0.1054  0.4892 -0.7775
 5318TIP3    H140149   4.711   6.378   1.891  2.1100 -1.1003  0.9519
 5318TIP3    H240150   4.671   6.236   1.855  0.4804 -0.0895 -1.5413
 5319TIP3   OH240151   4.025   3.538   8.170  0.7780 -0.4533 -0.2922
 5319TIP3    H140152   4.097   3.478   8.147  0.4911 -0.7682 -0.3787
 5319TIP3    H240153   4.032   3.609   8.107  2.1437  0.4643  0.8295
 5320TIP3   OH240154   1.535   3.465   0.302  0.9797  0.1073 -0.6048
 5320TIP3    H140155   1.605   3.420   0.349 -1.1812 -0.9867  1.8123
 5320TIP3    H240156   1.498   3.526   0.365 -0.3096  0.5780 -1.7495
 5321TIP3   OH240157   5.908   4.771   0.604 -0.0198 -0.5691  0.1262
 5321TIP3    H140158   5.832   4.811   0.560 -0.6815 -1.0011  0.8435
 5321TIP3    H240159   5.982   4.792   0.548 -0.6130  0.2064 -0.3889
 5322TIP3   OH240160   6.874   7.163   8.381  0.5236  0.3573  0.0639
 5322TIP3    H140161   6.904   7.078   8.348  0.5287  0.5084 -0.3255
 5322TIP3    H240162   6.928   7.180   8.457  0.3521 -0.1102  0.2930
 5323TIP3   OH240163   5.885   3.782   0.098  0.1496 -0.2128  0.1614
 5323TIP3    H140164   5.881   3.872   0.067  2.0263  0.7564  2.4307
 5323TIP3    H240165   5.824   3.779   0.172 -0.3144 -0.9898 -0.2355
 5324TIP3   OH240166   1.563   5.499   3.169  0.0715  0.4712  0.2758
 5324TIP3    H140167   1.641   5.514   3.116 -0.2371  1.0825 -0.0094
 5324TIP3    H240168   1.508   5.576   3.155  1.1285  1.9891  3.5891
 5325TIP3   OH240169   2.996   4.298   9.675 -0.5023  0.2609 -0.3908
 5325TIP3    H140170   2.939   4.345   9.613  0.0715  0.1521 -1.0181
 5325TIP3    H240171   2.975   4.336   9.760 -1.2637  0.4647 -0.6613
 5326TIP3   OH240172   4.116   1.177   0.264 -0.1696  0.0917  0.1862
 5326TIP3    H140173   4.079   1.104   0.314  0.3041  0.2604  0.7812
 5326TIP3    H240174   4.058   1.251   0.284  0.0436  0.1692  0.5150
 5327TIP3   OH240175   2.259   3.773   7.954  0.4051 -0.0339 -0.1465
 5327TIP3    H140176   2.276   3.718   8.031  0.7118 -0.8741 -0.8112
 5327TIP3    H240177   2.269   3.715   7.879  0.4127  0.8501 -0.8529
 5328TIP3   OH240178   5.332   3.068   8.704 -0.0455 -0.1798 -0.1660
 5328TIP3    H140179   5.339   3.125   8.780  1.1502 -0.1844 -0.2554
 5328TIP3    H240180   5.351   3.125   8.630 -0.9356 -0.2376 -0.4469
 5329TIP3   OH240181   1.088   1.574   0.766 -0.7652 -0.2961  0.1925
 5329TIP3    H140182   1.026   1.527   0.822 -1.5903 -0.7577 -1.0620
 5329TIP3    H240183   1.140   1.506   0.724 -0.2358  0.0385  0.2973
 5330TIP3   OH240184   1.541   0.208   0.611  0.6389  0.0719  0.3664
 5330TIP3    H140185   1.536   0.268   0.537  0.3469 -0.2149  0.1572
 5330TIP3    H240186   1.536   0.265   0.688 -2.9402  0.1262  0.2400
 5331TIP3   OH240187   2.697   0.972   1.408  0.0514  0.1474 -0.0159
 5331TIP3    H140188   2.756   1.047   1.410  0.3832 -0.1135 -0.0580
 5331TIP3    H240189   2.743   0.906   1.356 -1.4173  0.9068 -2.4514
 5332TIP3   OH240190   5.081   7.357   9.194 -0.1657  0.1952 -0.1665
 5332TIP3    H140191   5.145   7.324   9.257  0.5461 -0.5762 -1.2640
 5332TIP3    H240192   5.090   7.300   9.118 -2.9673 -0.6697  0.0436
 5333TIP3   OH240193   2.237   1.194   0.431 -0.4775  0.2386  0.5075
 5333TIP3    H140194   2.164   1.174   0.490 -0.8839 -0.0650 -0.0921
 5333TIP3    H240195   2.283   1.266   0.474 -1.2096  0.5278  0.8290
 5334TIP3   OH240196   4.507   5.316   0.879  0.7362  0.6365  0.4305
 5334TIP3    H140197   4.470   5.358   0.956 -1.8385  2.6614 -1.6828
 5334TIP3    H240198   4.564   5.382   0.840 -0.5864  0.9769 -1.0600
 5335TIP3   OH240199   2.431   4.168   9.237  0.1706 -0.7482 -0.5696
 5335TIP3    H140200   2.384   4.181   9.320  2.4638  0.7999  0.5962
 5335TIP3    H240201   2.384   4.097   9.194 -0.9431 -1.8341  2.1910
 5336TIP3   OH240202   3.983   1.745   8.794  0.4431 -0.0944  0.6196
 5336TIP3    H140203   3.945   1.832   8.809 -0.1024 -0.0191 -0.9966
 5336TIP3    H240204   3.942   1.689   8.860  0.4871  0.7838  1.4111
 5337TIP3   OH240205   4.145   7.373   0.259 -0.1605  0.5638  0.7716
 5337TIP3    H140206   4.101   7.450   0.221  1.0876  1.6538  1.4442
 5337TIP3    H240207   4.180   7.326   0.184 -1.6756  0.1525  0.2894
 5338TIP3   OH240208   3.760   6.762   9.677 -0.0862  0.2283  0.3183
 5338TIP3    H140209   3.767   6.731   9.587  0.8198 -1.2477  0.8652
 5338TIP3    H240210   3.777   6.856   9.672  2.0093 -0.1656 -0.7962
 5339TIP3   OH240211   1.721   1.558   1.548 -0.1066  0.3813 -0.5144
 5339TIP3    H140212   1.643   1.504   1.557 -0.2868  0.8289  0.9459
 5339TIP3    H240213   1.773   1.515   1.480 -1.8422  0.3769 -1.8879
 5340TIP3   OH240214   5.973   3.501   0.883 -0.2614  0.5822  0.2903
 5340TIP3    H140215   6.012   3.420   0.851  1.4664  1.4424  0.1091
 5340TIP3    H240216   5.901   3.472   0.940 -0.4719 -1.0289 -0.7379
 5341TIP3   OH240217   2.260   3.974   0.581 -0.3013 -0.5082  0.3073
 5341TIP3    H140218   2.343   3.928   0.563  0.1653  1.1573 -2.2412
 5341TIP3    H240219   2.207   3.958   0.504 -2.0368 -0.7054  1.4921
 5342TIP3   OH240220   2.887   2.514   9.575 -0.4026  0.2991 -0.0299
 5342TIP3    H140221   2.972   2.501   9.617 -0.7938  1.2498  1.1209
 5342TIP3    H240222   2.882   2.608   9.560 -1.0369  0.1869 -0.5758
 5343TIP3   OH240223   2.548   7.198   1.181 -0.4439 -0.5237  0.1593
 5343TIP3    H140224   2.504   7.128   1.132 -0.8845 -0.8715  1.0388
 5343TIP3    H240225   2.622   7.222   1.125 -1.1859 -0.6011 -0.8876
 5344TIP3   OH240226   7.276   2.616   9.865  0.2685 -0.5113 -0.1370
 5344TIP3    H140227   7.293   2.586   9.954  1.3469  0.2679 -0.0549
 5344TIP3    H240228   7.304   2.544   9.809  1.8581 -0.1205  0.0921
 5345TIP3   OH240229   6.467   2.650   0.322 -0.3265  0.3881 -0.4551
 5345TIP3    H140230   6.381   2.618   0.296 -0.0239  0.2721 -1.3416
 5345TIP3    H240231   6.519   2.571   0.335  0.0649  0.4932 -1.3929
 5346TIP3   OH240232   5.856   1.655   0.414  0.7994  0.3014  0.3814
 5346TIP3    H140233   5.925   1.648   0.348  0.3430  0.5756 -0.1282
 5346TIP3    H240234   5.904   1.663   0.497  1.3897 -1.6650  0.2861
 5347TIP3   OH240235   3.910   0.709   9.822 -0.2427 -0.3693  0.1418
 5347TIP3    H140236   3.907   0.770   9.896 -2.3825 -1.7684  1.3175
 5347TIP3    H240237   3.864   0.754   9.752  0.0808  0.2145  0.3019
 5348TIP3   OH240238   4.006   3.525   1.632 -0.0253 -0.3305  0.3942
 5348TIP3    H140239   4.067   3.543   1.561  0.9714 -0.8074  1.1069
 5348TIP3    H240240   4.029   3.589   1.700 -0.5592 -0.2829  0.5347
 5349TIP3   OH240241   1.123   5.201   7.205  0.2163 -0.2812 -0.2595
 5349TIP3    H140242   1.184   5.207   7.279 -0.5338 -1.1359  0.4633
 5349TIP3    H240243   1.082   5.115   7.216 -0.9723  0.1973 -0.8272
 5350TIP3   OH240244   4.155   3.220   0.014 -0.4649  0.1601  0.1528
 5350TIP3    H140245   4.166   3.147   0.074  2.3919 -0.5352 -1.0439
 5350TIP3    H240246   4.119   3.291   0.068  1.3444 -0.6252  2.5322
 5351TIP3   OH240247   2.248   5.034   6.954  0.4988  0.2702 -0.0374
 5351TIP3    H140248   2.268   5.127   6.945 -0.6949  0.7378  1.6274
 5351TIP3    H240249   2.305   5.004   7.024  0.5409 -0.1416 -0.2476
 5352TIP3   OH240250   0.386   3.796   9.547 -0.2721  0.0489 -0.0536
 5352TIP3    H140251   0.297   3.800   9.512  0.0516  1.6107 -0.8122
 5352TIP3    H240252   0.414   3.888   9.552  0.9257 -0.3509  1.1455
 5353TIP3   OH240253   7.413   4.644   2.381 -0.2574 -0.4936 -0.5217
 5353TIP3    H140254   7.376   4.704   2.316  2.7538 -1.7151 -3.6734
 5353TIP3    H240255   7.501   4.677   2.398 -0.2671 -1.3322  1.5093
 5354TIP3   OH240256   5.182   6.440   1.279 -0.5823  0.2073  0.5861
 5354TIP3    H140257   5.177   6.513   1.341 -0.1369 -0.5212  1.5040
 5354TIP3    H240258   5.184   6.481   1.193  1.0289  1.3468  1.1272
 5355TIP3   OH240259   0.481   4.411   7.690  0.0760  0.1364  0.1645
 5355TIP3    H140260   0.554   4.412   7.628  1.4480  0.6206  1.7076
 5355TIP3    H240261   0.424   4.342   7.659 -0.1426  1.4289 -2.5580
 5356TIP3   OH240262   7.228   3.786   1.925 -0.2889 -0.0274 -0.1307
 5356TIP3    H140263   7.229   3.773   2.020  0.5852 -0.5832 -0.2033
 5356TIP3    H240264   7.275   3.869   1.912 -2.5698  1.3746  0.0685
 5357TIP3   OH240265   5.389   5.617   9.761 -0.7402 -0.2841  0.4169
 5357TIP3    H140266   5.326   5.558   9.804 -2.4467 -0.6663 -2.3845
 5357TIP3    H240267   5.348   5.704   9.766 -0.3640 -0.1151  0.6156
 5358TIP3   OH240268   5.728   6.782   1.369  0.0834  0.0804  0.1704
 5358TIP3    H140269   5.699   6.707   1.421 -1.5684  1.2356  1.0319
 5358TIP3    H240270   5.730   6.751   1.279 -1.8732 -0.6607  0.3530
 5359TIP3   OH240271   1.131   1.691   0.147 -0.2685 -0.0293  0.4624
 5359TIP3    H140272   1.197   1.630   0.180  1.8662  1.7294 -0.2817
 5359TIP3    H240273   1.142   1.689   0.051 -1.1001  0.4791  0.3456
 5360TIP3   OH240274   2.132   5.514   9.150 -0.5610 -0.3970 -0.3639
 5360TIP3    H140275   2.118   5.584   9.213  0.9146 -1.2158  0.9347
 5360TIP3    H240276   2.043   5.487   9.124 -1.2239 -0.0677  1.3994
 5361TIP3   OH240277   3.305   1.276   9.670  0.2302 -0.9055  0.2708
 5361TIP3    H140278   3.338   1.290   9.759  0.6007 -1.6377  0.2536
 5361TIP3    H240279   3.281   1.363   9.640 -0.3948 -0.7173  1.2800
 5362TIP3   OH240280   7.440   4.166   2.439 -0.3173 -0.5754 -0.3006
 5362TIP3    H140281   7.458   4.182   2.532 -1.2200 -0.9854 -0.0430
 5362TIP3    H240282   7.522   4.129   2.405 -0.4234 -1.7641  0.6732
 5363TIP3   OH240283   4.774   6.368   9.152  0.5211  0.5097  0.5053
 5363TIP3    H140284   4.796   6.280   9.119 -2.8374 -0.3027  0.1187
 5363TIP3    H240285   4.775   6.423   9.074  1.2889  0.5394  0.5274
 5364TIP3   OH240286   3.179   2.924   0.389  0.5061 -0.0657  0.3054
 5364TIP3    H140287   3.242   2.852   0.389  1.8945  1.1099 -0.4004
 5364TIP3    H240288   3.196   2.971   0.470 -0.2969 -0.4081  0.6896
 5365TIP3   OH240289   2.754   0.876   7.310  0.7810 -0.2630  0.0979
 5365TIP3    H140290   2.760   0.971   7.312  0.4715 -0.2405  0.0157
 5365TIP3    H240291   2.682   0.858   7.249 -1.2427 -0.4598  2.4028
 5366TIP3   OH240292   3.951   5.661   7.501  1.0103  0.3009  0.4091
 5366TIP3    H140293   4.007   5.736   7.479 -0.1135  1.5536  1.6237
 5366TIP3    H240294   3.880   5.663   7.437  1.9377 -0.8868 -0.7128
 5367TIP3   OH240295   1.527   2.534   1.826  0.0057  0.6586  0.2100
 5367TIP3    H140296   1.504   2.627   1.816  2.2095  1.0536 -2.0622
 5367TIP3    H240297   1.453   2.487   1.786 -0.0279  1.5621 -0.8435
 5368TIP3   OH240298   0.496   4.694   1.723  0.3034 -0.0560  0.3022
 5368TIP3    H140299   0.567   4.638   1.692 -1.0999 -0.8303 -1.7326
 5368TIP3    H240300   0.527   4.783   1.706 -0.2481 -0.4178 -3.3636
 5369TIP3   OH240301   1.420   3.348   9.789 -0.2610 -0.2831 -0.0673
 5369TIP3    H140302   1.391   3.269   9.836  1.2215 -0.0760  1.2745
 5369TIP3    H240303   1.452   3.406   9.858 -1.9905  1.8391 -0.9470
 5370TIP3   OH240304   2.807   7.240   0.189  0.0904 -0.5172 -0.2817
 5370TIP3    H140305   2.788   7.244   0.096 -0.7234 -1.2740 -0.1613
 5370TIP3    H240306   2.893   7.281   0.198  0.0026 -0.0924 -1.3048
 5371TIP3   OH240307   4.904   0.754   7.474 -0.3633 -0.3179 -0.2005
 5371TIP3    H140308   4.921   0.804   7.554  1.1971 -1.1381  0.0236
 5371TIP3    H240309   4.982   0.700   7.463 -0.0070  0.5890 -2.8965
 5372TIP3   OH240310   5.094   4.925   6.922 -0.0419  0.0881 -0.7277
 5372TIP3    H140311   5.009   4.885   6.936 -0.5605  0.9974 -1.1552
 5372TIP3    H240312   5.099   4.938   6.827  1.5976 -2.1122 -1.0301
 5373TIP3   OH240313   4.205   6.917   3.075  0.0855  0.3297  0.3987
 5373TIP3    H140314   4.217   6.895   2.983  2.2409  0.2037  0.6779
 5373TIP3    H240315   4.215   6.834   3.121  0.3269  0.6102  0.8532
 5374TIP3   OH240316   6.185   4.046   2.291 -0.1133 -0.3042 -0.0479
 5374TIP3    H140317   6.256   4.010   2.345 -0.8774 -1.0142  0.5256
 5374TIP3    H240318   6.206   4.017   2.202  1.0106  0.6309 -0.1049
 5375TIP3   OH240319   6.545   5.593   0.531  0.1628  0.2042 -0.8367
 5375TIP3    H140320   6.590   5.615   0.612 -0.4205  0.9153 -0.6899
 5375TIP3    H240321   6.600   5.526   0.490  0.4225 -0.2139  0.1716
 5376TIP3   OH240322   7.422   5.542   0.041 -0.1803 -0.3688 -0.0438
 5376TIP3    H140323   7.513   5.554   0.015 -0.1174 -1.8348 -0.6058
 5376TIP3    H240324   7.379   5.624   0.016  0.8357  0.0474 -0.4663
 5377TIP3   OH240325   1.878   1.360   0.126  0.2502 -0.7155 -1.0206
 5377TIP3    H140326   1.916   1.443   0.154  0.9477 -1.3347 -0.0757
 5377TIP3    H240327   1.810   1.385   0.063 -0.5007  0.6467  0.2805
 5378TIP3   OH240328   3.560   0.961   2.033  0.1882 -0.2759  0.3982
 5378TIP3    H140329   3.570   0.971   2.127 -0.6497  1.3793  0.3623
 5378TIP3    H240330   3.529   0.872   2.020  0.4395 -0.5551  1.6796
 5379TIP3   OH240331   6.483   2.502   1.515  0.3186  0.4959 -0.0823
 5379TIP3    H140332   6.397   2.471   1.485  0.1894  1.8590 -1.1997
 5379TIP3    H240333   6.483   2.483   1.609 -0.7187 -0.6060 -0.2700
 5380TIP3   OH240334   0.536   0.240   9.128 -0.7067 -0.6533 -0.3364
 5380TIP3    H140335   0.607   0.177   9.143  0.4165  0.2232 -1.7453
 5380TIP3    H240336   0.466   0.187   9.091 -1.0915 -1.6504  1.6832
 5381TIP3   OH240337   2.985   6.126   9.134 -0.4071  0.2813  0.1520
 5381TIP3    H140338   3.066   6.175   9.147  0.6451 -1.1167 -0.8142
 5381TIP3    H240339   2.947   6.163   9.055  0.8568 -0.9876 -1.1047
 5382TIP3   OH240340   1.237   1.974   9.286 -0.0463  0.1610  0.3040
 5382TIP3    H140341   1.167   1.994   9.348  0.5965  1.2844  0.6932
 5382TIP3    H240342   1.206   1.896   9.239 -0.9748 -0.1256  1.3490
 5383TIP3   OH240343   4.336   4.377   9.758 -0.4922  0.1161 -0.3436
 5383TIP3    H140344   4.360   4.468   9.738 -0.1620 -0.0428 -0.6972
 5383TIP3    H240345   4.274   4.384   9.830 -0.1636  0.6017 -0.0968
 5384TIP3   OH240346   6.663   0.659   9.488  0.2641 -0.1664  0.3537
 5384TIP3    H140347   6.672   0.612   9.405  3.0832 -0.9790  1.0104
 5384TIP3    H240348   6.623   0.596   9.547 -1.2355  0.2310 -0.1918
 5385TIP3   OH240349   5.363   2.087   0.190 -0.0087  0.4006 -0.1336
 5385TIP3    H140350   5.426   2.156   0.171  0.4218 -0.2574 -1.2455
 5385TIP3    H240351   5.282   2.117   0.149 -0.4122  1.1942  1.1979
 5386TIP3   OH240352   5.980   0.942   9.411  0.0021  0.8464  0.2869
 5386TIP3    H140353   6.007   1.021   9.458  0.3729  0.7192  0.2891
 5386TIP3    H240354   5.890   0.960   9.383 -0.2911  0.8589  1.2041
 5387TIP3   OH240355   1.904   7.447   1.483  0.2877 -0.0820  0.0964
 5387TIP3    H140356   1.989   7.488   1.501  0.2388  0.8958 -1.7198
 5387TIP3    H240357   1.916   7.401   1.400 -0.8253 -0.3219  0.0499
 5388TIP3   OH240358   1.341   3.155   8.829  0.7632 -0.2809 -0.1321
 5388TIP3    H140359   1.364   3.183   8.740  0.0178 -0.7598 -0.4939
 5388TIP3    H240360   1.330   3.236   8.878 -0.0566  0.0420 -0.8161
 5389TIP3   OH240361   3.989   4.763   8.538  0.4865  0.1523 -0.0060
 5389TIP3    H140362   4.056   4.796   8.597 -0.7304  1.8915  0.4683
 5389TIP3    H240363   3.964   4.678   8.574 -0.4789  1.3085  2.2550
 5390TIP3   OH240364   2.838   3.902   9.698  0.4054  0.6430 -0.1353
 5390TIP3    H140365   2.910   3.952   9.735  1.9537 -0.5089 -1.4808
 5390TIP3    H240366   2.792   3.963   9.640  0.3379  1.3474  0.6476
 5391TIP3   OH240367   4.798   1.855   1.216  0.4060  0.0056  0.1609
 5391TIP3    H140368   4.849   1.825   1.292  0.9069  0.9550  0.2125
 5391TIP3    H240369   4.710   1.820   1.232  0.3991  0.5197  1.3909
 5392TIP3   OH240370   6.686   2.318   2.340 -0.2377 -0.3714 -0.1529
 5392TIP3    H140371   6.653   2.229   2.352 -2.6346  0.3830 -0.5420
 5392TIP3    H240372   6.707   2.323   2.247 -0.3442 -0.4395 -0.1801
 5393TIP3   OH240373   7.301   4.364   8.042 -0.0954 -0.1916  0.2911
 5393TIP3    H140374   7.234   4.402   7.985 -0.4205  0.3802  1.0394
 5393TIP3    H240375   7.291   4.411   8.125  0.7418 -0.6219  0.6437
 5394TIP3   OH240376   2.688   1.813   1.607 -0.4390  0.4885 -0.2286
 5394TIP3    H140377   2.751   1.748   1.575 -0.9201 -0.4930  0.7568
 5394TIP3    H240378   2.743   1.882   1.644  0.0701  0.3855 -0.7697
 5395TIP3   OH240379   4.158   0.155   9.348 -0.6438  0.0759 -0.3122
 5395TIP3    H140380   4.250   0.133   9.332 -0.0640  2.3758 -0.4830
 5395TIP3    H240381   4.145   0.137   9.442 -0.1289 -0.5797 -0.3611
 5396TIP3   OH240382   1.467   6.725   6.825 -0.3435  0.3003  0.1259
 5396TIP3    H140383   1.464   6.688   6.737 -0.1624  0.6347 -0.0187
 5396TIP3    H240384   1.469   6.820   6.812  0.1806  0.3431  0.4744
 5397TIP3   OH240385   1.551   4.773   9.344 -0.1753  0.1611  0.2848
 5397TIP3    H140386   1.505   4.835   9.401 -0.5685  1.6771 -1.5804
 5397TIP3    H240387   1.482   4.733   9.291  0.4288  2.1780 -2.2811
 5398TIP3   OH240388   1.623   4.503   2.228  0.7880 -0.1847  0.3443
 5398TIP3    H140389   1.536   4.479   2.198  0.7696  0.2097  0.0822
 5398TIP3    H240390   1.678   4.500   2.149  0.7861  0.6331  0.3044
 5399TIP3   OH240391   0.793   3.562   1.292 -0.2029 -0.2053 -0.0223
 5399TIP3    H140392   0.810   3.468   1.286 -0.4186 -0.2550  0.1241
 5399TIP3    H240393   0.752   3.573   1.378  0.4546  0.1221  0.2586
 5400TIP3   OH240394   1.744   2.951   1.781  0.2404  0.9205  0.2642
 5400TIP3    H140395   1.802   2.879   1.807 -0.4940  0.2175  0.0180
 5400TIP3    H240396   1.764   2.966   1.689 -0.6696 -0.0417 -0.1170
 5401TIP3   OH240397   6.291   1.539   0.098 -0.3372  0.5655  0.6953
 5401TIP3    H140398   6.242   1.574   0.024  0.3589 -0.5232 -0.3071
 5401TIP3    H240399   6.265   1.448   0.104  1.0499  0.1286  0.5515
 5402TIP3   OH240400   4.881   3.299   8.062 -0.0156  0.5096 -0.4619
 5402TIP3    H140401   4.948   3.349   8.107  1.3482 -1.7026  0.1203
 5402TIP3    H240402   4.818   3.364   8.031  0.9451  2.4057  1.3926
 5403TIP3   OH240403   7.135   6.700   9.768 -0.2048  0.0899 -0.4579
 5403TIP3    H140404   7.067   6.765   9.753 -1.0967 -0.9300 -1.0382
 5403TIP3    H240405   7.171   6.721   9.854 -1.6271  0.3389  0.1034
 5404TIP3   OH240406   2.268   2.032   1.212 -0.0414  0.5215  0.5107
 5404TIP3    H140407   2.267   2.067   1.123  0.0396  0.8632  0.6397
 5404TIP3    H240408   2.345   2.072   1.253  1.5952 -1.8290 -0.1111
 5405TIP3   OH240409   0.754   6.930   1.805  0.5168  0.2373  0.6738
 5405TIP3    H140410   0.794   6.932   1.718 -1.3560 -1.7695 -0.3085
 5405TIP3    H240411   0.724   7.019   1.820 -0.1663  0.3720 -1.2691
 5406TIP3   OH240412   5.304   3.113   2.505 -0.0380 -0.4944  0.2206
 5406TIP3    H140413   5.274   3.202   2.525 -1.6208 -0.3961 -2.1818
 5406TIP3    H240414   5.399   3.117   2.513 -0.0478  1.5051 -0.1144
 5407TIP3   OH240415   3.957   1.607   1.590 -0.5452 -0.1227 -0.5865
 5407TIP3    H140416   3.919   1.694   1.580 -1.0559 -0.4763 -2.0604
 5407TIP3    H240417   3.909   1.568   1.663 -1.2996  0.3200 -0.8346
 5408TIP3   OH240418   3.396   4.870   9.489 -0.0563 -0.2108  0.3036
 5408TIP3    H140419   3.351   4.786   9.476  0.3272 -0.3634 -0.0409
 5408TIP3    H240420   3.325   4.935   9.489 -0.2907 -0.4601 -0.1226
 5409TIP3   OH240421   6.603   7.150   0.197 -0.2595  0.8444 -0.2586
 5409TIP3    H140422   6.605   7.206   0.120 -1.0870  0.3731 -0.6287
 5409TIP3    H240423   6.613   7.211   0.271  0.3273  1.3148 -0.7215
 5410TIP3   OH240424   2.422   6.938   1.742  0.3996  0.3949 -0.0343
 5410TIP3    H140425   2.344   6.900   1.782  0.2774  0.2382 -0.4173
 5410TIP3    H240426   2.457   6.997   1.809 -0.4114  0.9632 -0.1007
 5411TIP3   OH240427   7.004   5.659   9.496 -0.3163  0.1434  0.1403
 5411TIP3    H140428   7.082   5.607   9.514 -0.6036 -0.1450  0.5650
 5411TIP3    H240429   7.022   5.701   9.412 -0.2878 -1.0296 -0.4509
 5412TIP3   OH240430   6.004   3.225   0.806  0.3424 -0.1093 -0.0687
 5412TIP3    H140431   5.942   3.165   0.846  0.2520 -1.0188 -1.5221
 5412TIP3    H240432   6.084   3.215   0.858  0.6025 -2.1555 -0.7915
 5413TIP3   OH240433   7.093   6.869   7.467  0.2287  0.0282 -0.2491
 5413TIP3    H140434   7.012   6.909   7.500  0.9676  0.4062  1.2245
 5413TIP3    H240435   7.071   6.776   7.457 -0.2049 -0.0088  0.8382
 5414TIP3   OH240436   2.873   4.965   1.465  0.7946  0.3800 -0.1817
 5414TIP3    H140437   2.876   5.035   1.530  0.1622  1.0744 -0.8824
 5414TIP3    H240438   2.780   4.946   1.454  0.8474  0.7118 -1.3356
 5415TIP3   OH240439   1.495   7.098   7.252  0.1277 -0.3053  0.3723
 5415TIP3    H140440   1.447   7.030   7.297 -1.3023  1.6767  2.0463
 5415TIP3    H240441   1.577   7.107   7.301  0.8932 -1.6208 -0.6227
 5416TIP3   OH240442   6.953   2.266   1.356 -0.1337 -0.5104 -0.7294
 5416TIP3    H140443   6.871   2.315   1.361 -0.3410 -0.8820 -0.4028
 5416TIP3    H240444   7.011   2.310   1.419 -0.7913 -1.5426  0.6464
 5417TIP3   OH240445   3.416   3.664   0.951 -0.6611 -0.3348 -0.5770
 5417TIP3    H140446   3.448   3.577   0.975 -1.3178  0.0021  1.7893
 5417TIP3    H240447   3.492   3.708   0.913  0.0764 -1.4519 -0.4466
 5418TIP3   OH240448   0.408   2.240   8.976 -0.1304 -0.6091 -0.3437
 5418TIP3    H140449   0.401   2.147   8.953 -3.4682 -0.5744  0.1074
 5418TIP3    H240450   0.351   2.284   8.914  0.3064  1.0040  0.3555
 5419TIP3   OH240451   2.479   5.914   2.406  0.2678 -0.6861  1.2512
 5419TIP3    H140452   2.560   5.963   2.422 -0.7463  1.1392  1.0446
 5419TIP3    H240453   2.423   5.933   2.481 -0.1637 -1.5279  1.1557
 5420TIP3   OH240454   1.412   2.593   9.138 -0.0457 -0.5668 -0.8008
 5420TIP3    H140455   1.485   2.536   9.158  1.0644  0.8831 -0.5202
 5420TIP3    H240456   1.378   2.621   9.223  0.3348  0.2771 -0.9129
 5421TIP3   OH240457   7.187   4.854   8.201 -0.3965  0.1356 -0.0777
 5421TIP3    H140458   7.195   4.852   8.296 -0.6290  1.1660 -0.0188
 5421TIP3    H240459   7.182   4.947   8.180  2.4075  0.1308 -1.3303
 5422TIP3   OH240460   7.362   3.187   1.127 -0.1588 -0.8176 -0.2091
 5422TIP3    H140461   7.281   3.236   1.140  0.6676  0.3340  0.7862
 5422TIP3    H240462   7.403   3.230   1.052  2.3894  2.7537  2.8418
 5423TIP3   OH240463   3.856   7.007   9.745 -0.2610  0.0491  0.1041
 5423TIP3    H140464   3.857   7.028   9.838  0.1590 -1.8294  0.5780
 5423TIP3    H240465   3.939   7.042   9.712  0.3883 -0.7400  0.8369
 5424TIP3   OH240466   2.086   6.685   9.594  0.1946 -0.1325 -0.4316
 5424TIP3    H140467   2.164   6.658   9.546  0.3077  0.7619 -0.7758
 5424TIP3    H240468   2.096   6.780   9.604 -0.5185 -0.1089  0.1196
 5425TIP3   OH240469   1.684   4.984   6.620 -0.2514 -0.5129  0.0727
 5425TIP3    H140470   1.706   4.982   6.526 -0.7665 -2.1850 -0.0456
 5425TIP3    H240471   1.589   4.992   6.621 -0.1861  0.2476  0.4796
 5426TIP3   OH240472   3.534   5.337   9.257  0.4587  0.0304  0.2612
 5426TIP3    H140473   3.448   5.314   9.221  0.6582  0.7611 -0.7160
 5426TIP3    H240474   3.517   5.355   9.350 -0.1133 -1.5989  0.4890
 5427TIP3   OH240475   2.331   5.817   8.709  0.0577 -0.4450  0.0628
 5427TIP3    H140476   2.276   5.803   8.632  0.7579 -2.5582 -0.1046
 5427TIP3    H240477   2.272   5.859   8.772 -1.6814 -2.2364 -0.2599
 5428TIP3   OH240478   3.009   3.904   8.372 -0.5943  0.0811  0.3946
 5428TIP3    H140479   3.030   3.990   8.410  1.4888 -0.9947  1.8801
 5428TIP3    H240480   3.090   3.855   8.379 -1.8226 -2.1277 -0.1343
 5429TIP3   OH240481   3.137   4.763   6.524  0.5441 -0.5467  0.5992
 5429TIP3    H140482   3.051   4.799   6.548  0.9879  0.5634  0.5803
 5429TIP3    H240483   3.200   4.827   6.557  1.3736 -1.3241  0.5718
 5430TIP3   OH240484   0.493   1.567   0.422 -0.2239 -0.0098 -0.5380
 5430TIP3    H140485   0.450   1.641   0.464 -0.9636 -0.3799 -0.6184
 5430TIP3    H240486   0.423   1.521   0.376  0.7723  1.2162 -3.5133
 5431TIP3   OH240487   6.743   7.105   1.298 -0.3230 -0.0312  0.7863
 5431TIP3    H140488   6.700   7.043   1.357  1.1194 -0.8774  0.9719
 5431TIP3    H240489   6.693   7.099   1.216 -0.2533 -1.3842  0.8232
 5432TIP3   OH240490   1.799   7.412   7.908 -0.1192  0.0433 -0.2907
 5432TIP3    H140491   1.733   7.418   7.978 -0.0502 -1.5919 -0.0428
 5432TIP3    H240492   1.845   7.496   7.912 -0.7423  0.3591  1.0038
 5433TIP3   OH240493   2.471   2.699   6.720  0.6151  0.3779  0.1048
 5433TIP3    H140494   2.422   2.629   6.763 -1.1684  1.7536  0.4331
 5433TIP3    H240495   2.560   2.664   6.710  0.1518 -1.3552  1.5761
 5434TIP3   OH240496   4.953   1.790   0.367 -0.2060  0.6676  0.1447
 5434TIP3    H140497   4.901   1.715   0.397 -1.9888  1.2112 -1.4329
 5434TIP3    H240498   4.889   1.858   0.348  0.9743  1.1360 -2.6153
 5435TIP3   OH240499   1.374   7.291   8.310  0.4095 -0.7020  0.6426
 5435TIP3    H140500   1.399   7.202   8.287  2.2547 -0.7092  2.3646
 5435TIP3    H240501   1.456   7.332   8.338 -0.6873  0.9887  1.5532
 5436TIP3   OH240502   6.361   1.764   1.485 -0.1301  0.1263 -0.1575
 5436TIP3    H140503   6.322   1.784   1.400  0.4401  2.1507 -0.0079
 5436TIP3    H240504   6.297   1.797   1.548 -0.4351 -1.1382  0.2204
 5437TIP3   OH240505   5.210   2.239   8.066  0.1689  0.1997  0.6054
 5437TIP3    H140506   5.248   2.151   8.064 -0.5096 -0.1106 -2.1700
 5437TIP3    H240507   5.229   2.271   8.154  1.0743 -2.4274  1.4543
 5438TIP3   OH240508   3.986   1.989   8.072  0.3521  0.4418 -0.6351
 5438TIP3    H140509   3.997   1.976   8.166 -0.1864  0.8935 -0.5123
 5438TIP3    H240510   4.025   2.075   8.055  0.3119  0.4261 -0.8066
 5439TIP3   OH240511   3.329   4.956   2.033 -0.1088  1.1038 -0.0609
 5439TIP3    H140512   3.245   4.991   2.063 -0.5681 -1.4811  1.9834
 5439TIP3    H240513   3.390   5.030   2.039 -1.6903  2.3907  0.8171
 5440TIP3   OH240514   0.006   1.882   7.711 -0.7553 -0.1752  0.0623
 5440TIP3    H140515  -0.042   1.948   7.762  4.0335  1.3753  3.1752
 5440TIP3    H240516   0.075   1.932   7.667  0.3760 -2.6454 -1.1359
 5441TIP3   OH240517   5.624   5.788   0.137  0.5296  0.1283  0.3265
 5441TIP3    H140518   5.559   5.833   0.084  1.0695  0.3580 -0.1527
 5441TIP3    H240519   5.577   5.761   0.216 -0.2837 -0.2488 -0.2858
 5442TIP3   OH240520   7.267   1.033   8.879  0.3564  0.1006 -0.0831
 5442TIP3    H140521   7.322   1.060   8.952 -0.5680  0.2939  0.5544
 5442TIP3    H240522   7.212   0.963   8.914 -0.9644  1.0288 -0.2129
 5443TIP3   OH240523   4.235   4.790   0.801 -0.2192 -0.1670 -0.0992
 5443TIP3    H140524   4.307   4.749   0.753 -1.3253 -0.4776 -1.5900
 5443TIP3    H240525   4.182   4.716   0.831 -1.6788  0.0557 -1.9286
 5444TIP3   OH240526   7.064   5.223   1.479 -0.0293 -0.2859  0.0964
 5444TIP3    H140527   7.074   5.303   1.530 -1.4031 -0.0262 -0.0187
 5444TIP3    H240528   7.130   5.230   1.409 -0.5000  0.9942 -0.2354
 5445TIP3   OH240529   3.820   7.415   8.258 -0.2511  0.2226 -0.7275
 5445TIP3    H140530   3.753   7.380   8.199 -1.6961  2.6102 -0.6664
 5445TIP3    H240531   3.772   7.434   8.339  1.1376 -0.5349  0.3092
 5446TIP3   OH240532   2.594   6.093   1.761 -0.5027  0.1600  0.8710
 5446TIP3    H140533   2.522   6.038   1.731 -0.2125 -0.7377  1.7535
 5446TIP3    H240534   2.623   6.139   1.683  0.1569 -2.0041 -0.2646
 5447TIP3   OH240535   5.112   3.978   1.279  0.8332  0.3220  0.1692
 5447TIP3    H140536   5.060   3.923   1.337  2.7679 -1.4154  0.3656
 5447TIP3    H240537   5.055   4.051   1.257 -1.0939 -0.6811  1.6112
 5448TIP3   OH240538   4.055   0.179   2.647  0.1848  0.9463 -0.0493
 5448TIP3    H140539   4.145   0.198   2.621 -0.0600  0.9184 -0.9503
 5448TIP3    H240540   4.050   0.205   2.739  1.7060 -1.0740  0.6700
 5449TIP3   OH240541   5.061   6.611   7.375  0.1181 -0.2787 -0.2532
 5449TIP3    H140542   5.076   6.650   7.461  0.5361 -1.3977  0.1943
 5449TIP3    H240543   5.054   6.517   7.392 -2.5828 -0.3272 -1.0649
 5450TIP3   OH240544   1.476   1.886   9.382 -0.3470  0.2727 -0.5335
 5450TIP3    H140545   1.401   1.945   9.381 -0.6500 -0.1102 -1.1560
 5450TIP3    H240546   1.511   1.890   9.294  1.0053  1.2281  0.0269
 5451TIP3   OH240547   2.027   4.682   2.143  0.3234  1.4384  0.1085
 5451TIP3    H140548   1.963   4.636   2.197  0.1274  0.3815 -0.9918
 5451TIP3    H240549   2.111   4.663   2.184  0.1756  0.6445  0.0616
 5452TIP3   OH240550   0.339   3.313   8.437 -0.0578  0.5009  0.4792
 5452TIP3    H140551   0.336   3.407   8.417 -0.1556  0.4959  0.4720
 5452TIP3    H240552   0.431   3.289   8.423 -0.4702  0.0815 -1.8636
 5453TIP3   OH240553   6.393   0.707   9.342 -0.3958 -0.2448 -0.2471
 5453TIP3    H140554   6.433   0.715   9.429 -1.8575  1.3762  0.3134
 5453TIP3    H240555   6.445   0.765   9.287  2.5931 -3.5984 -1.3690
 5454TIP3   OH240556   7.317   4.399   2.250  0.0484 -0.1336 -0.0195
 5454TIP3    H140557   7.351   4.483   2.281 -0.3671 -0.4386  1.3071
 5454TIP3    H240558   7.395   4.349   2.227  0.4545 -0.3545  1.7604
 5455TIP3   OH240559   2.599   4.803   2.038  0.4140  0.3224 -0.1216
 5455TIP3    H140560   2.665   4.749   1.994  0.2597 -0.1812  0.2583
 5455TIP3    H240561   2.516   4.760   2.017  0.3580 -0.0784  0.8662
 5456TIP3   OH240562   6.774   4.296   8.607 -0.0686  0.0017  0.1704
 5456TIP3    H140563   6.780   4.230   8.676 -2.9364  0.8475  1.3773
 5456TIP3    H240564   6.841   4.271   8.543  1.3551 -1.9453  2.2987
 5457TIP3   OH240565   3.267   2.689   0.478 -0.9360 -0.5534  0.1375
 5457TIP3    H140566   3.221   2.608   0.456 -1.1447 -0.1092 -1.1731
 5457TIP3    H240567   3.359   2.664   0.484 -0.7102 -0.5547 -2.3935
 5458TIP3   OH240568   5.916   1.428   8.372 -0.3831 -0.6136 -0.3891
 5458TIP3    H140569   5.909   1.406   8.465  1.5790 -1.1794 -0.3395
 5458TIP3    H240570   5.952   1.516   8.371  1.4788 -1.3304 -0.5629
 5459TIP3   OH240571   2.703   5.754   1.500 -0.3343 -0.1251 -1.1749
 5459TIP3    H140572   2.728   5.770   1.591 -0.7839 -3.1043 -0.4177
 5459TIP3    H240573   2.783   5.723   1.458 -0.2511  0.7651 -1.7080
 5460TIP3   OH240574   2.315   2.495   0.683  0.0222 -0.2079  0.1975
 5460TIP3    H140575   2.291   2.509   0.775 -3.1224  0.6744 -0.6491
 5460TIP3    H240576   2.300   2.401   0.669  1.5882 -0.5924  0.7739
 5461TIP3   OH240577   2.345   0.070   2.040 -0.0611 -0.3498  0.2249
 5461TIP3    H140578   2.437   0.060   2.068 -0.5905  1.3540  3.0353
 5461TIP3    H240579   2.295   0.024   2.107 -1.3409  0.9624  0.2196
 5462TIP3   OH240580   6.188   3.038   2.227 -0.0945  0.6112 -0.6729
 5462TIP3    H140581   6.280   3.029   2.249 -0.2212 -0.1701 -0.4342
 5462TIP3    H240582   6.184   3.023   2.132 -0.0617 -0.1217 -0.5675
 5463TIP3   OH240583   4.968   3.649   1.622  0.0231 -0.1652  0.1278
 5463TIP3    H140584   4.898   3.600   1.665 -1.0868 -0.7687 -2.1562
 5463TIP3    H240585   5.038   3.586   1.609 -0.7578 -0.7926 -1.3459
 5464TIP3   OH240586   1.646   7.422   1.059 -0.5982 -0.4385  0.0864
 5464TIP3    H140587   1.652   7.470   1.141  0.8577  0.9569 -0.7842
 5464TIP3    H240588   1.720   7.360   1.063 -0.1646  0.0415 -0.4093
 5465TIP3   OH240589   7.437   3.734   8.042 -0.4060  0.1758  0.3219
 5465TIP3    H140590   7.358   3.715   7.993  0.4784 -1.9158 -0.3886
 5465TIP3    H240591   7.461   3.823   8.016 -2.0118  0.5080 -0.1142
 5466TIP3   OH240592   1.781   5.774   2.204 -0.8018  0.6198  0.3351
 5466TIP3    H140593   1.820   5.858   2.227 -1.5775  0.7836  1.0952
 5466TIP3    H240594   1.813   5.757   2.115  0.7862  0.8523  0.8289
 5467TIP3   OH240595   1.022   6.775   2.656 -0.0032 -0.4629 -0.5047
 5467TIP3    H140596   1.089   6.837   2.629  1.1733 -2.1015 -1.4623
 5467TIP3    H240597   0.939   6.816   2.630  0.7660  0.4903 -1.5115
 5468TIP3   OH240598   2.808   7.326   1.794  0.3991  0.2128 -0.5752
 5468TIP3    H140599   2.884   7.296   1.844 -0.5920 -1.7192 -0.1383
 5468TIP3    H240600   2.772   7.247   1.754 -2.2231  0.7720  0.4296
 5469TIP3   OH240601   3.006   1.222   9.600 -0.1853  0.1643 -0.8525
 5469TIP3    H140602   3.045   1.259   9.679 -3.2230  2.3558 -0.2369
 5469TIP3    H240603   3.032   1.282   9.530 -0.2570  0.1209 -0.9164
 5470TIP3   OH240604   7.106   0.246   8.836  0.2530  0.1676  0.3220
 5470TIP3    H140605   7.091   0.282   8.749 -0.8086  0.7038  0.7174
 5470TIP3    H240606   7.027   0.266   8.885  1.2999  0.9287  1.7750
 5471TIP3   OH240607   2.045   6.741   7.884 -0.0593  0.4681  0.4097
 5471TIP3    H140608   2.067   6.805   7.952  1.6312  0.4496 -0.0706
 5471TIP3    H240609   2.108   6.757   7.814 -0.2792 -1.0320 -0.1712
 5472TIP3   OH240610   3.477   5.012   0.847 -0.5086  0.2819 -0.1947
 5472TIP3    H140611   3.553   4.962   0.816  0.1501 -0.1170  1.9055
 5472TIP3    H240612   3.422   5.022   0.769  0.3973 -1.7772 -1.1880
 5473TIP3   OH240613   6.857   4.458   0.941  0.3954  0.0883  0.0914
 5473TIP3    H140614   6.859   4.534   1.000  1.5027  0.0030  0.1819
 5473TIP3    H240615   6.931   4.405   0.969  0.5339 -0.2818 -0.9598
 5474TIP3   OH240616   1.911   5.844   9.943 -0.3183  0.2997 -0.2459
 5474TIP3    H140617   1.993   5.831   9.991  0.7866  0.8837 -1.9133
 5474TIP3    H240618   1.885   5.934   9.966  0.1354  0.5311 -0.6217
 5475TIP3   OH240619   3.802   5.385   0.220 -0.3882 -0.1977  0.4079
 5475TIP3    H140620   3.851   5.357   0.297  0.8325  1.5570  0.3121
 5475TIP3    H240621   3.722   5.425   0.255 -1.4700 -2.3693  0.5885
 5476TIP3   OH240622   5.159   3.550   0.375  0.3064  0.1485  0.8373
 5476TIP3    H140623   5.223   3.552   0.304 -0.5386  1.5329  0.0686
 5476TIP3    H240624   5.211   3.557   0.455  1.1933 -0.2759  0.3112
 5477TIP3   OH240625   5.504   2.930   8.928  0.3708  0.1482 -1.0966
 5477TIP3    H140626   5.453   3.011   8.924  1.0915  0.5639 -2.3814
 5477TIP3    H240627   5.577   2.945   8.868  0.1238 -1.7296 -1.9184
 5478TIP3   OH240628   0.699   2.419   9.362  0.2741 -0.2303  0.0252
 5478TIP3    H140629   0.688   2.369   9.443  0.8609 -0.2111  0.1260
 5478TIP3    H240630   0.645   2.373   9.298 -0.3153 -0.1532  0.4659
 5479TIP3   OH240631   4.285   6.906   2.522 -0.4399 -0.1674  0.3531
 5479TIP3    H140632   4.369   6.860   2.516 -1.2690 -1.7612  0.6321
 5479TIP3    H240633   4.305   6.994   2.489  1.4675 -0.3222  0.9376
 5480TIP3   OH240634   6.538   6.041   0.406 -0.0880  0.2203 -0.3706
 5480TIP3    H140635   6.602   5.982   0.365  0.7342  0.6885  0.2100
 5480TIP3    H240636   6.549   6.124   0.360 -0.5119  0.2055 -0.4934
 5481TIP3   OH240637   1.584   2.414   6.665 -0.2821 -0.3934  0.1610
 5481TIP3    H140638   1.564   2.362   6.743 -0.0206 -1.1799 -0.2776
 5481TIP3    H240639   1.500   2.419   6.618 -0.6337  0.7882  0.8855
 5482TIP3   OH240640   3.628   5.415   9.558  0.1391 -0.4819  0.2836
 5482TIP3    H140641   3.582   5.482   9.608  1.2288  0.6702 -0.1948
 5482TIP3    H240642   3.719   5.422   9.585  0.7832  0.2629 -1.8954
 5483TIP3   OH240643   1.878   0.018   6.755  0.0311 -0.3702  0.4309
 5483TIP3    H140644   1.947  -0.018   6.810 -1.1255 -1.7899  1.0129
 5483TIP3    H240645   1.865  -0.049   6.687 -0.7966 -0.1403  0.3614
 5484TIP3   OH240646   6.078   1.683   0.229 -0.0201 -0.3531 -0.2139
 5484TIP3    H140647   6.047   1.751   0.170 -0.7750 -0.9313 -0.4903
 5484TIP3    H240648   6.169   1.668   0.203 -0.6903 -1.4713 -2.0698
 5485TIP3   OH240649   5.381   5.406   9.606 -0.6031  0.1981  0.4224
 5485TIP3    H140650   5.366   5.493   9.643 -0.7539 -0.2565  1.4659
 5485TIP3    H240651   5.474   5.390   9.618 -0.2266  0.8624 -1.2718
 5486TIP3   OH240652   6.761   6.561   1.083  0.2003  0.1843  0.4618
 5486TIP3    H140653   6.682   6.508   1.068  0.9048 -0.4734 -1.2690
 5486TIP3    H240654   6.739   6.647   1.048  0.7405 -0.4613 -1.6596
 5487TIP3   OH240655   3.109   4.195   0.239  0.3313  0.0778  0.5464
 5487TIP3    H140656   3.113   4.100   0.245 -1.9484 -0.0529  0.8789
 5487TIP3    H240657   3.085   4.213   0.149 -1.8991  0.1455  1.0982
 5488TIP3   OH240658   4.943   3.820   0.496 -0.0039  0.2101  0.1491
 5488TIP3    H140659   5.012   3.859   0.442  1.5838 -3.0215 -0.4256
 5488TIP3    H240660   4.878   3.788   0.434  0.0180 -0.3200  0.3929
 5489TIP3   OH240661   6.680   5.679   0.112 -0.0954  0.1789  0.2097
 5489TIP3    H140662   6.748   5.640   0.166  2.2653  0.5276 -2.2740
 5489TIP3    H240663   6.598   5.653   0.153  1.4599  1.0931  4.3217
 5490TIP3   OH240664   1.665   0.554   8.581 -0.1942  0.2488  0.3541
 5490TIP3    H140665   1.640   0.503   8.505 -0.5726  1.3647 -0.3033
 5490TIP3    H240666   1.671   0.644   8.548  2.2049  0.4049  1.0343
 5491TIP3   OH240667   2.166   5.768   1.403  0.0290 -0.4178 -0.3786
 5491TIP3    H140668   2.189   5.752   1.494  1.3118  1.1229 -0.3974
 5491TIP3    H240669   2.249   5.759   1.355 -0.4255 -0.1640 -1.2437
 5492TIP3   OH240670   0.395   1.612   9.765  0.2198  0.3856  0.3581
 5492TIP3    H140671   0.449   1.688   9.744 -0.2777  0.6539  0.0507
 5492TIP3    H240672   0.356   1.632   9.850  1.1582 -0.1178  0.9275
 5493TIP3   OH240673   4.171   3.876   9.460  0.2039  0.4191  0.1691
 5493TIP3    H140674   4.245   3.815   9.461  0.1376  0.3457  1.3294
 5493TIP3    H240675   4.101   3.830   9.506  0.0222  1.2102  0.6955
 5494TIP3   OH240676   1.186   1.374   2.516 -0.4553  0.8253 -0.0251
 5494TIP3    H140677   1.200   1.456   2.469  1.3722  1.0821  0.8775
 5494TIP3    H240678   1.178   1.400   2.608  0.1407  0.0137  0.2717
 5495TIP3   OH240679   0.867   1.839   1.459 -0.1599 -0.4977  0.4612
 5495TIP3    H140680   0.961   1.824   1.461 -0.1486 -0.8369 -1.0619
 5495TIP3    H240681   0.849   1.894   1.536  1.3943  0.2668  0.3140
 5496TIP3   OH240682   5.789   5.642   0.834 -0.4060  0.4720 -0.3878
 5496TIP3    H140683   5.794   5.659   0.740  1.2207  2.7108  0.0163
 5496TIP3    H240684   5.880   5.639   0.863 -0.7651  3.7758  1.6510
 5497TIP3   OH240685   1.677   0.925   0.471  0.0547  0.0755  0.1937
 5497TIP3    H140686   1.667   0.926   0.567 -2.3961  2.0997  0.0289
 5497TIP3    H240687   1.710   0.837   0.452  0.2495 -0.5296  2.8737
 5498TIP3   OH240688   2.807   2.957   8.799 -0.2123 -0.0775  0.1095
 5498TIP3    H140689   2.849   2.933   8.881  0.4468  1.3136  0.2037
 5498TIP3    H240690   2.714   2.960   8.820 -0.1462 -0.7608  0.5298
 5499TIP3   OH240691   1.550   2.634   9.390  0.1642  0.4465  0.4791
 5499TIP3    H140692   1.641   2.630   9.360 -0.0772  0.9548 -0.3604
 5499TIP3    H240693   1.533   2.728   9.403 -0.3233  0.3799  0.3430
 5500TIP3   OH240694   3.197   7.048   8.598  0.0377  0.4886  0.2057
 5500TIP3    H140695   3.115   7.095   8.586 -0.4477  0.0715  1.6509
 5500TIP3    H240696   3.190   7.010   8.685 -0.6082 -4.2103 -1.6132
 5501TIP3   OH240697   6.681   3.280   0.646 -0.3580 -0.2697 -0.2012
 5501TIP3    H140698   6.687   3.266   0.551  1.1817 -3.3682  0.2247
 5501TIP3    H240699   6.751   3.343   0.665 -0.0463 -0.3584 -0.9950
 5502TIP3   OH240700   1.073   1.522   8.817 -0.7300 -0.0955  0.3152
 5502TIP3    H140701   1.033   1.506   8.731 -2.4576 -0.5291  1.1478
 5502TIP3    H240702   0.998   1.530   8.876  0.3921  1.3537  1.5986
 5503TIP3   OH240703   5.408   6.760   8.598  0.3162 -0.5743  0.8547
 5503TIP3    H140704   5.371   6.780   8.512 -0.7431  2.1019  1.8140
 5503TIP3    H240705   5.486   6.816   8.604  0.2533 -0.5629  1.7136
 5504TIP3   OH240706   1.902   5.642   9.517  0.4460  0.2983  0.1817
 5504TIP3    H140707   1.994   5.668   9.527  0.8520 -0.6267 -0.8539
 5504TIP3    H240708   1.889   5.574   9.583  0.0158  1.5311  1.4124
 5505TIP3   OH240709   6.199   6.487   9.833  0.1613 -0.6528  0.3727
 5505TIP3    H140710   6.166   6.574   9.809  0.7518 -0.4995  0.1255
 5505TIP3    H240711   6.169   6.430   9.763  0.0344 -0.6004  0.3823
 5506TIP3   OH240712   3.707   3.948   8.374  0.8104 -0.3432  0.6191
 5506TIP3    H140713   3.787   3.969   8.326  1.1829 -0.2001  1.2910
 5506TIP3    H240714   3.715   3.998   8.455  0.3446 -0.8506  0.9752
 5507TIP3   OH240715   5.019   0.273   9.131  0.6804  0.6717  0.2165
 5507TIP3    H140716   5.024   0.332   9.057  2.2218  0.8783  0.4465
 5507TIP3    H240717   5.110   0.246   9.147  0.1587 -0.8640  0.8257
 5508TIP3   OH240718   5.682   4.551   1.719 -0.0333  0.6227  0.1512
 5508TIP3    H140719   5.696   4.525   1.810 -0.2318  0.5362  0.1562
 5508TIP3    H240720   5.758   4.515   1.672 -2.2115 -3.5938 -0.5749
 5509TIP3   OH240721   6.240   4.715   2.006 -0.0762  0.0756  0.0420
 5509TIP3    H140722   6.184   4.663   1.948  0.0475  0.8202 -0.7614
 5509TIP3    H240723   6.194   4.716   2.090 -0.2310 -1.0614 -0.0063
 5510TIP3   OH240724   6.554   1.487   9.008  0.4953 -0.3543  0.0805
 5510TIP3    H140725   6.585   1.432   9.080  0.0005 -1.8473 -0.8059
 5510TIP3    H240726   6.460   1.467   9.001  0.2510  0.7724 -0.1368
 5511TIP3   OH240727   6.451   4.044   9.112  0.2102 -0.5587 -0.0926
 5511TIP3    H140728   6.372   4.096   9.099  1.3523  1.9053  2.0577
 5511TIP3    H240729   6.418   3.956   9.134 -1.8596  0.1286 -0.1991
 5512TIP3   OH240730   6.505   1.937   0.442 -0.5149  0.2862  0.4445
 5512TIP3    H140731   6.519   1.850   0.406 -0.9095  0.1127  0.7077
 5512TIP3    H240732   6.453   1.923   0.521 -0.2398  0.7222  0.7135
 5513TIP3   OH240733   3.651   2.775   9.055  0.1594  0.2670 -0.4190
 5513TIP3    H140734   3.651   2.711   9.126  0.2976  0.1548 -0.5196
 5513TIP3    H240735   3.609   2.730   8.982 -0.3349  0.5135 -0.2911
 5514TIP3   OH240736   1.110   0.228   7.307  0.2502 -0.5729 -0.0136
 5514TIP3    H140737   1.126   0.282   7.385  0.9243 -0.7813 -0.0061
 5514TIP3    H240738   1.059   0.154   7.340 -1.9044  0.7029 -0.2429
 5515TIP3   OH240739   6.312   7.031   9.770  0.1592 -0.2461  0.1466
 5515TIP3    H140740   6.347   7.005   9.855  1.1632  0.2942 -0.0927
 5515TIP3    H240741   6.383   7.014   9.708  0.0792  1.0379 -0.3248
 5516TIP3   OH240742   2.770   5.294   9.638  0.6418 -0.6178  0.0742
 5516TIP3    H140743   2.749   5.375   9.685 -0.0937  0.1806 -1.5630
 5516TIP3    H240744   2.814   5.239   9.703  0.4596  0.7881  1.4309
 5517TIP3   OH240745   4.919   3.315   2.153  0.4101  0.9406  0.1920
 5517TIP3    H140746   5.005   3.331   2.193  1.1635  1.3891 -1.5075
 5517TIP3    H240747   4.901   3.223   2.172  1.0718  0.9388  0.9106
 5518TIP3   OH240748   3.149   1.374   2.143 -0.0688 -0.5718  0.0538
 5518TIP3    H140749   3.139   1.333   2.057  1.3205  0.0625 -0.4434
 5518TIP3    H240750   3.171   1.302   2.202 -1.5107 -1.0827  0.0007
 5519TIP3   OH240751   1.496   5.121   1.342 -0.0302 -0.1443  0.7960
 5519TIP3    H140752   1.527   5.164   1.262 -2.8177  0.5619 -0.0018
 5519TIP3    H240753   1.438   5.185   1.382 -0.3739 -1.3246  2.2521
 5520TIP3   OH240754   2.424   2.050   8.896  0.6758  0.8175 -0.6510
 5520TIP3    H140755   2.501   2.008   8.935  0.2961  1.0929  0.4390
 5520TIP3    H240756   2.419   2.135   8.939 -0.9910  0.2841  0.3153
 5521TIP3   OH240757   6.171   3.111   8.495  0.1207  0.5830  0.1121
 5521TIP3    H140758   6.141   3.201   8.479 -0.2425  0.2875 -0.9321
 5521TIP3    H240759   6.249   3.102   8.440  0.7888  0.5843  1.0286
 5522TIP3   OH240760   4.551   3.136   1.738  0.2524  1.0860 -0.5566
 5522TIP3    H140761   4.559   3.140   1.833 -0.8118  2.6354 -0.4921
 5522TIP3    H240762   4.560   3.227   1.709 -0.1464  0.7315 -1.8815
 5523TIP3   OH240763   4.863   6.157   8.390  0.3020  0.0671  0.2615
 5523TIP3    H140764   4.795   6.090   8.380  0.7039 -0.3899  0.5688
 5523TIP3    H240765   4.814   6.236   8.413 -0.1675 -0.1381 -0.0004
 5524TIP3   OH240766   2.670   6.431   9.080  0.2685 -0.1421  0.3212
 5524TIP3    H140767   2.736   6.387   9.027  0.2324 -0.2734  0.3852
 5524TIP3    H240768   2.657   6.373   9.155  0.6844  0.2844  0.7274
 5525TIP3   OH240769   4.463   2.217   9.122 -0.1471 -0.0566 -0.1440
 5525TIP3    H140770   4.494   2.307   9.108  0.2850 -0.5845 -3.7498
 5525TIP3    H240771   4.387   2.226   9.180  1.5238  2.2464  1.8732
 5526TIP3   OH240772   3.795   1.809   9.313  0.0592  0.1273  0.6623
 5526TIP3    H140773   3.766   1.727   9.272  0.7181  0.9224 -1.5368
 5526TIP3    H240774   3.885   1.793   9.340 -0.1945 -0.2220  1.3265
 5527TIP3   OH240775   0.147   0.324   2.256  0.1952  0.2551  0.1661
 5527TIP3    H140776   0.209   0.298   2.324 -0.1136 -0.8453  0.0428
 5527TIP3    H240777   0.094   0.246   2.241  0.6506  0.2892 -1.7665
 5528TIP3   OH240778   2.898   3.339   6.671  0.4674  0.1483  0.0780
 5528TIP3    H140779   2.921   3.411   6.729 -1.9275  0.7720  0.3635
 5528TIP3    H240780   2.934   3.364   6.586  1.4466  0.6524  0.6265
 5529TIP3   OH240781   4.737   3.764   1.226 -0.9827 -0.3084 -0.5133
 5529TIP3    H140782   4.771   3.750   1.138 -0.0397  0.6791 -0.3263
 5529TIP3    H240783   4.813   3.758   1.283 -1.6764 -1.5596  0.3306
 5530TIP3   OH240784   3.496   3.579   9.057  0.1252  0.4217 -0.2821
 5530TIP3    H140785   3.427   3.526   9.097  1.2618 -0.9071 -0.0157
 5530TIP3    H240786   3.577   3.539   9.087  1.0145  1.0460 -1.7596
 5531TIP3   OH240787   1.155   2.341   0.977  0.8261  0.1822  0.3616
 5531TIP3    H140788   1.095   2.311   0.909  0.3333  0.2852  0.7503
 5531TIP3    H240789   1.230   2.281   0.970  1.3973  1.0183 -1.1634
 5532TIP3   OH240790   5.940   6.406   7.647 -0.4953  0.5568 -0.2204
 5532TIP3    H140791   5.973   6.398   7.558 -2.0098 -0.2342 -0.7321
 5532TIP3    H240792   5.862   6.461   7.640 -0.5809  0.5639  0.6271
 5533TIP3   OH240793   0.307   6.638   7.080  0.1614  0.4624 -0.3815
 5533TIP3    H140794   0.280   6.549   7.100 -1.6909  0.7160 -1.4771
 5533TIP3    H240795   0.298   6.685   7.164  0.5142 -0.2344  0.0507
 5534TIP3   OH240796   1.198   1.170   1.643 -0.1252 -0.0662 -0.3125
 5534TIP3    H140797   1.259   1.128   1.704 -0.2120 -1.1192 -0.9296
 5534TIP3    H240798   1.243   1.250   1.616  0.6291 -0.4146 -0.1255
 5535TIP3   OH240799   2.240   0.494   8.122  0.2429 -0.2092  0.4837
 5535TIP3    H140800   2.290   0.416   8.145  0.7599  0.4133  1.5212
 5535TIP3    H240801   2.305   0.564   8.119 -0.1250  0.1142 -0.9552
 5536TIP3   OH240802   3.987   6.059   3.193 -0.3321  0.2006 -0.6819
 5536TIP3    H140803   3.996   5.975   3.238  0.2706 -0.0487 -1.2583
 5536TIP3    H240804   3.975   6.035   3.101 -1.9717  0.6855 -0.6319
 5537TIP3   OH240805   0.705   4.222   1.724 -0.5775  0.7209  0.3484
 5537TIP3    H140806   0.758   4.272   1.662 -0.9887  0.1868 -0.4563
 5537TIP3    H240807   0.761   4.149   1.749 -1.4186 -0.7734 -1.7599
 5538TIP3   OH240808   0.381   0.597   7.573  0.0591 -0.0144  0.2375
 5538TIP3    H140809   0.467   0.633   7.550  0.0175 -0.6945 -1.0702
 5538TIP3    H240810   0.333   0.597   7.491 -1.0563 -0.0700  0.8685
 5539TIP3   OH240811   5.795   2.148   8.391  0.1863  0.7531  0.3614
 5539TIP3    H140812   5.870   2.175   8.443  0.7506 -0.5955  0.2778
 5539TIP3    H240813   5.722   2.200   8.425  0.6354  0.2622  2.1899
 5540TIP3   OH240814   2.176   4.993   7.263 -0.2092  0.1907  0.2114
 5540TIP3    H140815   2.128   4.931   7.208 -1.0770  1.6068 -0.6953
 5540TIP3    H240816   2.163   4.961   7.352 -0.4288 -1.0499 -0.2464
 5541TIP3   OH240817   0.727   6.596   8.588 -0.4693 -0.3993  0.1972
 5541TIP3    H140818   0.634   6.600   8.565 -1.0845  0.0997  2.4831
 5541TIP3    H240819   0.729   6.618   8.682  1.9881 -0.1004  0.1313
 5542TIP3   OH240820   1.026   1.559   9.236  0.1275 -0.3163 -0.2633
 5542TIP3    H140821   1.081   1.481   9.243 -0.9372 -1.3897 -2.6867
 5542TIP3    H240822   0.985   1.552   9.150 -0.5619  2.5926 -0.2847
 5543TIP3   OH240823   4.483   2.686   1.617 -0.7849  0.0998 -0.0858
 5543TIP3    H140824   4.539   2.762   1.633 -0.6898 -0.1073  0.5914
 5543TIP3    H240825   4.404   2.722   1.577 -0.1759  0.3964 -1.0494
 5544TIP3   OH240826   1.308   0.553   8.736  0.5580  0.6053  0.1071
 5544TIP3    H140827   1.362   0.474   8.725 -1.5707 -1.0472  0.7184
 5544TIP3    H240828   1.369   0.619   8.770  2.4338 -0.7532 -0.4219
 5545TIP3   OH240829   5.941   5.850   2.301 -0.3041 -0.6743  0.0270
 5545TIP3    H140830   5.931   5.755   2.297 -0.0572 -0.7539  0.9816
 5545TIP3    H240831   6.035   5.863   2.314 -0.6348 -0.4342  2.6261
 5546TIP3   OH240832   2.235   3.317   0.311  0.0809 -0.1142 -0.4400
 5546TIP3    H140833   2.303   3.250   0.321  0.2290 -0.3269 -2.4556
 5546TIP3    H240834   2.259   3.385   0.374  0.6859 -1.3315  0.6979
 5547TIP3   OH240835   3.996   1.429   9.944  0.2749 -0.3339  0.4427
 5547TIP3    H140836   3.904   1.405   9.949  0.8571 -2.5920  1.5628
 5547TIP3    H240837   4.037   1.359   9.893  1.2529  1.1898 -0.9967
 5548TIP3   OH240838   7.316   2.832   9.668  0.1505  0.0610  0.5746
 5548TIP3    H140839   7.295   2.809   9.577  1.5070  0.7435  0.0670
 5548TIP3    H240840   7.317   2.748   9.714  2.4420 -0.7145 -0.7016
 5549TIP3   OH240841   0.224   1.212   2.008 -0.1968  0.4271  0.2364
 5549TIP3    H140842   0.138   1.189   2.043 -0.3525 -1.0133 -1.0119
 5549TIP3    H240843   0.251   1.288   2.060 -1.3375 -0.3072  2.0064
 5550TIP3   OH240844   1.230   6.507   7.876 -0.1781 -0.1821  0.3838
 5550TIP3    H140845   1.144   6.474   7.850  1.2363 -2.1186 -2.4488
 5550TIP3    H240846   1.235   6.593   7.836 -0.1246 -0.8917 -1.2268
 5551TIP3   OH240847   7.214   3.641   8.526  0.5076  0.3553 -0.5689
 5551TIP3    H140848   7.244   3.618   8.438  0.0991 -1.6242 -0.2384
 5551TIP3    H240849   7.206   3.557   8.572 -1.5589  1.1100  0.6270
 5552TIP3   OH240850   6.040   2.951   2.452  0.7088 -0.2987  0.4813
 5552TIP3    H140851   6.093   2.986   2.380  0.1959 -0.7887 -0.1555
 5552TIP3    H240852   6.076   2.991   2.531  1.0870  0.4980 -0.0810
 5553TIP3   OH240853   3.744   1.817   8.352 -0.4265  0.1499 -0.7006
 5553TIP3    H140854   3.681   1.874   8.306 -0.0837  1.3949  0.3087
 5553TIP3    H240855   3.727   1.834   8.445 -0.9518 -2.1434 -0.3256
 5554TIP3   OH240856   2.209   0.495   0.449  0.4376  0.2294 -0.1816
 5554TIP3    H140857   2.261   0.418   0.425  1.2559  0.1727  1.6563
 5554TIP3    H240858   2.250   0.567   0.402 -1.1398 -0.5268 -3.0298
 5555TIP3   OH240859   2.208   7.447   9.133 -0.3392 -0.5885 -0.4610
 5555TIP3    H140860   2.260   7.413   9.060 -0.8194 -1.7525 -0.2834
 5555TIP3    H240861   2.259   7.522   9.166  1.4815 -1.9425  0.0037
 5556TIP3   OH240862   0.324   1.824   9.283  0.0785  0.0826  0.0209
 5556TIP3    H140863   0.407   1.806   9.239 -0.4756 -0.3940 -0.8699
 5556TIP3    H240864   0.320   1.762   9.355 -0.2911 -1.1305 -1.0036
 5557TIP3   OH240865   6.423   3.995   8.772  0.1675 -0.3350  0.1793
 5557TIP3    H140866   6.331   4.019   8.776  0.2414 -0.1961  1.1881
 5557TIP3    H240867   6.470   4.077   8.791  0.4744 -0.6010  0.5831
 5558TIP3   OH240868   4.780   4.288   2.501  0.2999  0.6603 -0.0660
 5558TIP3    H140869   4.756   4.381   2.495 -1.1520  0.2412 -1.3790
 5558TIP3    H240870   4.749   4.250   2.419  1.9251 -0.7787 -0.0695
 5559TIP3   OH240871   5.166   5.460   9.872 -0.0854  0.1040 -0.5999
 5559TIP3    H140872   5.087   5.405   9.868  0.1241 -0.1375 -2.2971
 5559TIP3    H240873   5.145   5.536   9.818  0.5962  0.3673 -0.5073
 5560TIP3   OH240874   4.992   0.902   8.923 -0.7541 -0.1047  0.4135
 5560TIP3    H140875   5.010   0.958   8.847 -0.4085 -0.3001  0.3501
 5560TIP3    H240876   5.046   0.825   8.909  1.0466  0.8096  1.9586
 5561TIP3   OH240877   1.380   4.493   9.844 -0.1058 -0.3515  0.4256
 5561TIP3    H140878   1.407   4.430   9.910  2.6243  0.7778  0.5003
 5561TIP3    H240879   1.355   4.571   9.893  3.2683  0.9853  0.2331
 5562TIP3   OH240880   3.333   7.257   9.270 -0.3490  0.4590 -0.3157
 5562TIP3    H140881   3.326   7.209   9.353 -0.2648 -0.2148 -0.6913
 5562TIP3    H240882   3.407   7.317   9.283  0.9854 -1.0645 -0.5917
 5563TIP3   OH240883   6.701   5.887   9.227 -0.4252  0.0961  0.4722
 5563TIP3    H140884   6.644   5.964   9.222 -1.2595 -0.5248  0.3966
 5563TIP3    H240885   6.678   5.845   9.310  0.8591  0.5578  1.0944
 5564TIP3   OH240886   5.457   3.462   9.154 -0.0559  0.3181  0.4084
 5564TIP3    H140887   5.405   3.381   9.162 -1.0145  0.9205  0.4165
 5564TIP3    H240888   5.438   3.494   9.066 -0.9884  1.3911  0.9777
 5565TIP3   OH240889   1.428   0.999   2.195  0.2497  0.0965 -0.3890
 5565TIP3    H140890   1.339   1.014   2.161  0.7478  0.1010 -1.7357
 5565TIP3    H240891   1.476   1.078   2.172  0.6872 -0.0146  0.1202
 5566TIP3   OH240892   1.497   3.950   0.994  0.0855  0.6921 -0.0445
 5566TIP3    H140893   1.498   3.855   0.984 -0.6352  0.4882  1.4450
 5566TIP3    H240894   1.445   3.983   0.921 -2.9585 -0.4219  1.4413
 5567TIP3   OH240895   2.997   6.150   8.221  0.7480  0.4866  0.0021
 5567TIP3    H140896   3.084   6.177   8.251 -0.3383  2.1652  1.8277
 5567TIP3    H240897   2.971   6.081   8.282  1.8262 -2.0229 -2.1899
 5568TIP3   OH240898   0.921   0.784   7.511 -0.4439  0.0019  0.0658
 5568TIP3    H140899   0.980   0.856   7.487 -2.2558  1.0893 -1.4216
 5568TIP3    H240900   0.938   0.769   7.604  0.8712  1.5170  0.1070
 5569TIP3   OH240901   6.121   6.145   0.161  0.0149 -0.1265 -0.5613
 5569TIP3    H140902   6.048   6.188   0.206  2.9029  4.3351  0.5471
 5569TIP3    H240903   6.170   6.102   0.230 -0.3105 -1.1440 -0.9482
 5570TIP3   OH240904   5.475   5.263   8.320  0.4066  0.4747  0.0373
 5570TIP3    H140905   5.381   5.272   8.334 -0.0258 -2.9012  0.2071
 5570TIP3    H240906   5.512   5.262   8.409  0.0378 -1.9366  0.2383
 5571TIP3   OH240907   3.879   6.402   1.153  0.0878  0.3166 -0.0428
 5571TIP3    H140908   3.958   6.361   1.189  0.0101  0.3499  0.1653
 5571TIP3    H240909   3.857   6.349   1.077  1.0269  1.0300 -0.8504
 5572TIP3   OH240910   4.744   2.362   8.224  0.2233 -0.5253 -0.3092
 5572TIP3    H140911   4.704   2.406   8.299  1.2455 -0.7445  0.3907
 5572TIP3    H240912   4.763   2.274   8.255  0.2554 -0.7585 -0.9691
 5573TIP3   OH240913   7.396   4.913   0.517 -0.1581 -0.4553  0.0067
 5573TIP3    H140914   7.369   4.904   0.425 -0.3336  0.3018 -0.0248
 5573TIP3    H240915   7.350   4.842   0.563  0.1564 -1.0174 -0.5339
 5574TIP3   OH240916   5.330   4.549   9.297  0.0595  0.4262 -0.2171
 5574TIP3    H140917   5.416   4.587   9.277 -0.1253  0.7933 -0.3276
 5574TIP3    H240918   5.278   4.623   9.328  0.8172 -0.3840  3.3867
 5575TIP3   OH240919   1.316   6.180   1.358  0.0185 -0.2840  0.2375
 5575TIP3    H140920   1.339   6.272   1.346 -0.3786 -0.2121  0.0056
 5575TIP3    H240921   1.358   6.155   1.440  0.1751  0.0862  0.2732
 5576TIP3   OH240922   0.795   6.676   9.261  0.1282  0.3425 -0.3830
 5576TIP3    H140923   0.831   6.595   9.296  0.7668  0.4384 -0.8051
 5576TIP3    H240924   0.838   6.687   9.176 -0.9979  0.3845 -0.9724
 5577TIP3   OH240925   4.564   5.429   9.584 -0.3095 -0.7404  0.4826
 5577TIP3    H140926   4.566   5.407   9.491  1.9457  0.0476  0.2742
 5577TIP3    H240927   4.635   5.377   9.623  1.1041  1.4611  1.0557
 5578TIP3   OH240928   7.262   3.385   0.531 -0.6299 -0.6142 -0.7803
 5578TIP3    H140929   7.253   3.427   0.617 -1.1245  1.7980 -1.9381
 5578TIP3    H240930   7.321   3.311   0.547  1.1181  1.0673  1.2425
 5579TIP3   OH240931   2.940   4.210   0.919  0.5868 -0.0535 -0.1701
 5579TIP3    H140932   2.847   4.224   0.901  0.5728 -0.7118 -0.6532
 5579TIP3    H240933   2.968   4.150   0.851  1.4780  0.4865 -0.2938
 5580TIP3   OH240934   3.947   3.602   0.322  0.1742  0.0778  0.4832
 5580TIP3    H140935   3.903   3.562   0.397 -1.1297 -0.1517 -0.3885
 5580TIP3    H240936   4.018   3.541   0.301 -0.5594 -0.7658  0.4197
 5581TIP3   OH240937   1.864   2.535   1.419 -0.1812 -0.0104 -0.3760
 5581TIP3    H140938   1.876   2.617   1.371 -0.0170 -0.6644 -1.4999
 5581TIP3    H240939   1.770   2.523   1.423 -0.2700 -1.5786 -3.5626
 5582TIP3   OH240940   2.002   1.095   0.546  0.1938 -0.0099  0.4986
 5582TIP3    H140941   1.949   1.100   0.467 -1.0612  1.9929  1.3965
 5582TIP3    H240942   1.945   1.054   0.611  1.1947 -1.5878  0.4364
 5583TIP3   OH240943   3.543   2.633   0.457 -0.1864 -0.4502  0.1921
 5583TIP3    H140944   3.623   2.616   0.407 -1.1938 -0.7590 -1.3803
 5583TIP3    H240945   3.563   2.710   0.510  1.1239 -0.4811 -0.2402
 5584TIP3   OH240946   5.618   6.408   9.974 -0.2014 -0.5748  0.5258
 5584TIP3    H140947   5.634   6.367  10.059 -0.2378 -0.2131  0.7110
 5584TIP3    H240948   5.703   6.447   9.950 -0.0651 -1.0835  0.1697
 5585TIP3   OH240949   4.070   5.853   8.704  0.2915  0.4349  0.0372
 5585TIP3    H140950   4.128   5.912   8.655  0.1521  1.7783  1.3936
 5585TIP3    H240951   4.129   5.802   8.759  0.3950 -0.5650 -0.9725
 5586TIP3   OH240952   6.857   0.962   9.233 -0.0246  0.2028  0.1289
 5586TIP3    H140953   6.842   1.028   9.301  1.0034  0.7460 -0.1633
 5586TIP3    H240954   6.946   0.978   9.202  0.7176 -2.0604  0.8563
 5587TIP3   OH240955   3.231   3.431   0.504 -0.1768 -0.1719 -0.2415
 5587TIP3    H140956   3.223   3.365   0.435  1.0272 -0.9418  0.3114
 5587TIP3    H240957   3.306   3.402   0.556  0.7070  1.9109 -0.2600
 5588TIP3   OH240958   2.775   2.967   0.955 -0.2686 -0.1077 -0.0977
 5588TIP3    H140959   2.794   3.004   1.041 -1.6211 -0.2753  0.2943
 5588TIP3    H240960   2.817   2.881   0.957 -0.5131 -0.2229  0.5046
 5589TIP3   OH240961   3.692   3.239   8.921 -0.2251  0.0121 -0.1722
 5589TIP3    H140962   3.741   3.158   8.932  1.2547  0.5210 -2.3347
 5589TIP3    H240963   3.650   3.254   9.006 -0.9151 -3.1897  0.1834
 5590TIP3   OH240964   2.341   4.139   6.158  0.5975 -0.5867  0.3223
 5590TIP3    H140965   2.253   4.139   6.195 -0.3009 -1.0247 -1.6873
 5590TIP3    H240966   2.346   4.220   6.107  1.9936  0.2716  1.7243
 5591TIP3   OH240967   4.862   7.212   1.175  0.4248  0.3871 -0.0059
 5591TIP3    H140968   4.772   7.241   1.164  1.0346  1.7200 -2.1988
 5591TIP3    H240969   4.914   7.293   1.171  1.8801 -0.5586 -1.8217
 5592TIP3   OH240970   0.459   3.932   7.723  0.1434 -0.6873  0.2342
 5592TIP3    H140971   0.492   3.962   7.638  0.5019  1.4014  1.0480
 5592TIP3    H240972   0.426   3.844   7.706 -0.4497 -0.0786 -2.2203
 5593TIP3   OH240973   6.432   7.365   0.923 -0.1567 -0.0391 -0.0330
 5593TIP3    H140974   6.365   7.422   0.961 -0.4853  1.0336 -2.1276
 5593TIP3    H240975   6.388   7.281   0.911 -0.5834  0.1383  0.2619
 5594TIP3   OH240976   7.341   3.518   9.691  0.1287 -0.0394  0.6751
 5594TIP3    H140977   7.430   3.487   9.672  0.5952  0.6974  1.6027
 5594TIP3    H240978   7.340   3.532   9.785 -0.9391  0.1123  0.6514
 5595TIP3   OH240979   0.894   0.937   7.950  0.1704 -0.3100  0.4314
 5595TIP3    H140980   0.802   0.919   7.929  0.2225 -0.5746  0.4305
 5595TIP3    H240981   0.895   1.030   7.972 -0.3157 -0.5735  1.6046
 5596TIP3   OH240982   5.811   2.815   7.918  0.6592 -0.1428 -1.0699
 5596TIP3    H140983   5.794   2.889   7.975  3.3234 -0.3119  0.0918
 5596TIP3    H240984   5.754   2.829   7.842 -2.0673  0.7525  0.9821
 5597TIP3   OH240985   1.029   2.194   0.787  0.5311  0.4321 -0.0510
 5597TIP3    H140986   1.028   2.139   0.865 -1.7733  2.0176  1.1706
 5597TIP3    H240987   0.953   2.167   0.737  0.7086  0.9318 -0.6073
 5598TIP3   OH240988   0.579   0.283   0.390  0.1676 -0.3115 -0.2374
 5598TIP3    H140989   0.589   0.260   0.482  2.4326 -0.8001 -0.5305
 5598TIP3    H240990   0.653   0.341   0.372  0.1527 -0.7394 -1.8760
 5599TIP3   OH240991   5.024   5.184   9.542 -0.3082 -0.5890 -0.1424
 5599TIP3    H140992   5.014   5.184   9.447 -0.1797 -0.7510 -0.1558
 5599TIP3    H240993   5.111   5.147   9.558  0.0538  0.2878  0.0014
 5600TIP3   OH240994   2.443   6.667   2.936 -0.2014  0.7314 -0.3913
 5600TIP3    H140995   2.383   6.741   2.924 -3.8719 -2.1062 -1.5675
 5600TIP3    H240996   2.418   6.630   3.021  0.3967 -0.0863 -0.5609
 5601TIP3   OH240997   5.901   6.072   2.117  0.0095  0.2911  0.3177
 5601TIP3    H140998   5.939   6.143   2.169  0.6659  0.6704 -0.6485
 5601TIP3    H240999   5.925   5.992   2.164  0.1178  0.6583  0.8933
 5602TIP3   OH241000   5.367   7.171   0.176  0.1937  0.0118  0.0158
 5602TIP3    H141001   5.355   7.221   0.095  1.3123  1.6988  0.8523
 5602TIP3    H241002   5.294   7.198   0.232 -1.0734 -1.7824 -0.6536
 5603TIP3   OH241003   2.743   6.161   1.236 -0.3486  0.1563 -0.1053
 5603TIP3    H141004   2.839   6.157   1.241 -0.0791 -2.4174 -3.5153
 5603TIP3    H241005   2.724   6.251   1.207  0.4853  2.1057  4.5132
 5604TIP3   OH241006   2.727   0.018   9.966 -0.3188  0.1096 -0.4203
 5604TIP3    H141007   2.817   0.030   9.998  0.0671 -0.3598 -1.2873
 5604TIP3    H241008   2.724   0.066   9.884 -1.2478  1.1465  0.2043
 5605TIP3   OH241009   4.772   0.471   9.674  0.0634 -0.1283  0.1280
 5605TIP3    H141010   4.724   0.490   9.755 -1.5216 -2.4775 -0.1434
 5605TIP3    H241011   4.827   0.396   9.697  1.1804  0.4892 -0.4612
 5606TIP3   OH241012   5.189   3.097   0.036  0.4627 -0.1033 -0.7334
 5606TIP3    H141013   5.212   3.140   0.118 -0.0819 -1.3326  0.0838
 5606TIP3    H241014   5.139   3.163  -0.012 -0.3834  0.1993  0.5069
 5607TIP3   OH241015   2.865   4.889   8.484  0.6721 -0.5808 -0.0622
 5607TIP3    H141016   2.822   4.806   8.503 -2.4607  0.0788 -3.1758
 5607TIP3    H241017   2.830   4.950   8.550 -2.0744 -0.4733 -1.4580
 5608TIP3   OH241018   7.076   6.710   2.163  0.0270  0.4568 -0.8788
 5608TIP3    H141019   7.020   6.661   2.102  0.2069 -0.8495 -0.0266
 5608TIP3    H241020   7.061   6.668   2.248  1.1661  1.0620 -0.3596
 5609TIP3   OH241021   5.650   5.733   1.468 -0.2325 -0.2563  0.2475
 5609TIP3    H141022   5.588   5.718   1.397 -0.1799  0.8825 -0.0719
 5609TIP3    H241023   5.677   5.646   1.497 -0.4534 -0.7338 -0.9582
 5610TIP3   OH241024   4.812   5.342   2.627  0.0251 -0.2186  0.0140
 5610TIP3    H141025   4.846   5.270   2.575  1.5380 -0.2868  1.0298
 5610TIP3    H241026   4.862   5.418   2.599 -1.3313  0.4168 -0.8131
 5611TIP3   OH241027   1.810   0.158   8.374 -0.3410  0.1772 -0.5951
 5611TIP3    H141028   1.845   0.236   8.417 -2.7842  0.2660  1.4968
 5611TIP3    H241029   1.884   0.098   8.367  0.6244  0.9036  2.1344
 5612TIP3   OH241030   0.612   5.759   0.501 -0.8742 -0.3247 -0.0195
 5612TIP3    H141031   0.526   5.761   0.458 -0.2171 -1.3222 -1.4704
 5612TIP3    H241032   0.674   5.780   0.431 -0.0472  3.4066  1.5935
 5613TIP3   OH241033   3.535   7.447   9.063 -0.1685 -0.6326 -0.1067
 5613TIP3    H141034   3.528   7.354   9.043  0.9113 -0.8591  0.5373
 5613TIP3    H241035   3.604   7.453   9.129  2.8057  0.9882 -3.0523
 5614TIP3   OH241036   2.099   2.389   6.458 -0.0288  0.5212  0.0945
 5614TIP3    H141037   2.105   2.480   6.432  1.4065  0.0790 -1.3025
 5614TIP3    H241038   2.182   2.350   6.429  0.2111 -0.8247  2.3243
 5615TIP3   OH241039   4.487   6.438   0.226  0.7765 -0.1257 -0.0611
 5615TIP3    H141040   4.488   6.459   0.133 -0.1345  0.9247  0.1409
 5615TIP3    H241041   4.517   6.518   0.269  0.6118 -0.3936  0.5671
 5616TIP3   OH241042   0.925   5.997   0.093 -0.2966  0.4420 -0.0944
 5616TIP3    H141043   0.845   5.992   0.042  0.8158  1.5277 -2.0490
 5616TIP3    H241044   0.975   5.919   0.067 -0.2189  0.3783  0.2396
 5617TIP3   OH241045   5.791   3.034   7.615  0.0223  0.2377 -0.0018
 5617TIP3    H141046   5.777   3.125   7.640 -1.2753  0.7583 -2.3067
 5617TIP3    H241047   5.713   2.988   7.647 -0.7431  0.5497 -1.3322
 5618TIP3   OH241048   1.332   0.813   9.497 -0.1263 -0.4086 -0.0984
 5618TIP3    H141049   1.332   0.726   9.537  1.9754 -0.6608 -0.5143
 5618TIP3    H241050   1.339   0.874   9.570 -1.3217 -0.5707  0.1746
 5619TIP3   OH241051   1.758   2.488   0.864  0.8420 -0.1456  0.5408
 5619TIP3    H141052   1.812   2.555   0.823  0.6164  0.4088  1.1310
 5619TIP3    H241053   1.782   2.407   0.818  1.5993  0.2182  0.2662
 5620TIP3   OH241054   4.312   1.146   7.683  0.1158  0.2187  0.3601
 5620TIP3    H141055   4.248   1.217   7.694  0.2757  0.4445 -0.1343
 5620TIP3    H241056   4.344   1.156   7.594  1.9730  1.0500  1.0718
 5621TIP3   OH241057   3.028   0.071   8.120  0.0527  0.1870 -0.2237
 5621TIP3    H141058   3.112   0.049   8.160  0.8361 -1.0199 -2.3484
 5621TIP3    H241059   2.987   0.132   8.181  1.5009 -0.8833  1.9143
 5622TIP3   OH241060   3.693   7.189   1.115 -0.4510  0.4184  0.5761
 5622TIP3    H141061   3.729   7.173   1.202 -0.3797 -0.4201  0.4003
 5622TIP3    H241062   3.601   7.212   1.131 -1.3541 -2.7604  0.7608
 5623TIP3   OH241063   4.270   2.826   8.460 -0.6284 -0.2065 -0.2575
 5623TIP3    H141064   4.217   2.893   8.505 -0.1301  0.6610 -0.9405
 5623TIP3    H241065   4.358   2.864   8.456  0.0979 -1.6397  0.8811
 5624TIP3   OH241066   1.502   4.256   8.958 -0.5001  0.4990  0.0828
 5624TIP3    H141067   1.552   4.187   9.003 -0.5299 -0.0141 -0.6618
 5624TIP3    H241068   1.410   4.233   8.976 -0.4987  0.8206  0.5260
 5625TIP3   OH241069   7.016   1.214   8.580  0.4330  0.3653 -0.0317
 5625TIP3    H141070   7.032   1.223   8.674 -0.0430  1.6070 -0.0552
 5625TIP3    H241071   6.930   1.171   8.574  0.3089  0.5980  0.0957
 5626TIP3   OH241072   5.535   2.988   1.387 -0.0973  0.0095 -0.4146
 5626TIP3    H141073   5.571   2.900   1.401 -0.6487 -0.0623  0.6507
 5626TIP3    H241074   5.541   3.001   1.293  3.7833  0.5014 -0.2295
 5627TIP3   OH241075   5.417   5.039   1.453  0.1057  0.8794 -0.3176
 5627TIP3    H141076   5.407   4.944   1.448  1.8417  0.6516 -0.1218
 5627TIP3    H241077   5.506   5.056   1.420  1.6680  1.9336  3.8104
 5628TIP3   OH241078   0.376   4.139   9.562  0.2050  0.2577 -0.0859
 5628TIP3    H141079   0.386   4.234   9.564  0.9271  0.1994 -0.4925
 5628TIP3    H241080   0.403   4.115   9.473  1.7894 -0.5085  0.5762
 5629TIP3   OH241081   2.975   6.463   7.859 -0.4662  0.0752 -0.5890
 5629TIP3    H141082   3.014   6.513   7.931  0.5335 -3.5079  1.6132
 5629TIP3    H241083   3.050   6.423   7.814 -1.2065  0.6221 -2.4025
 5630TIP3   OH241084   1.254   5.640   6.498  0.6659  0.1903  0.1329
 5630TIP3    H141085   1.260   5.545   6.509  0.7049 -0.0070 -1.3775
 5630TIP3    H241086   1.305   5.675   6.571  0.7538 -0.9441  0.6475
 5631TIP3   OH241087   6.097   4.217   0.194 -0.4762 -0.6443  0.0851
 5631TIP3    H141088   6.002   4.217   0.182 -0.2501  0.8974 -2.7051
 5631TIP3    H241089   6.116   4.305   0.226  0.1541 -0.0069 -1.8912
 5632TIP3   OH241090   3.248   1.373   6.720  0.3123 -0.2907 -0.3217
 5632TIP3    H141091   3.227   1.318   6.644  1.0175 -1.9176  0.6151
 5632TIP3    H241092   3.262   1.311   6.792 -0.6024  1.2200  1.2279
 5633TIP3   OH241093   5.077   2.509   1.234  0.6917 -0.0185  0.6578
 5633TIP3    H141094   5.107   2.516   1.325 -0.9782  1.6337  1.1359
 5633TIP3    H241095   4.982   2.514   1.239  0.3839 -2.3309 -1.0351
 5634TIP3   OH241096   7.288   6.152   0.431  0.1282 -0.4324  0.6743
 5634TIP3    H141097   7.258   6.124   0.518 -0.3441  2.1685  1.4338
 5634TIP3    H241098   7.337   6.233   0.447  2.0065 -1.0893 -1.2756
 5635TIP3   OH241099   1.815   3.173   1.054  0.3400 -0.7440 -0.1957
 5635TIP3    H141100   1.773   3.175   1.140 -0.3062  3.7695 -0.3577
 5635TIP3    H241101   1.909   3.170   1.073  0.3193  2.3660  0.9568
 5636TIP3   OH241102   6.940   1.237   0.772  0.5366 -0.1827  0.1987
 5636TIP3    H141103   6.972   1.148   0.761  1.1380  0.0354  0.1158
 5636TIP3    H241104   6.849   1.235   0.744 -0.0921 -1.2361  2.1407
 5637TIP3   OH241105   1.622   5.440   3.809 -0.1825 -0.0420  0.2095
 5637TIP3    H141106   1.596   5.348   3.802  0.2823 -0.1881  0.3979
 5637TIP3    H241107   1.616   5.473   3.720  0.5455 -0.5038 -0.0232
 5638TIP3   OH241108   0.491   3.915   9.842 -0.4536 -0.1673  0.6461
 5638TIP3    H141109   0.506   3.826   9.874  0.6510 -0.5160 -0.7491
 5638TIP3    H241110   0.515   3.971   9.916  1.3728 -0.9656  0.7276
 5639TIP3   OH241111   3.050   4.964   8.236  0.3479  0.5024 -0.2790
 5639TIP3    H141112   2.961   4.939   8.212 -0.1766  0.0576  1.9498
 5639TIP3    H241113   3.041   5.049   8.279  0.8744  0.0327  0.7814
 5640TIP3   OH241114   0.269   7.289   8.514  0.1292 -0.1547  0.1795
 5640TIP3    H141115   0.258   7.216   8.574  1.8124  0.6765  1.5862
 5640TIP3    H241116   0.266   7.250   8.427 -1.9846 -1.4476  0.7607
 5641TIP3   OH241117   5.075   4.529   0.650 -0.2615  0.3805  0.1281
 5641TIP3    H141118   4.998   4.569   0.692  0.3383  0.1596  1.4859
 5641TIP3    H241119   5.140   4.599   0.648 -0.5100  0.6016 -1.1304
 5642TIP3   OH241120   4.412   2.183   1.065  0.0750  0.0387  0.2125
 5642TIP3    H141121   4.411   2.098   1.110 -0.2257  0.3920  0.8833
 5642TIP3    H241122   4.326   2.221   1.083  0.6408  1.0157  0.9602
 5643TIP3   OH241123   0.941   6.718   1.486  0.1615  0.1874 -0.2067
 5643TIP3    H141124   0.884   6.795   1.488  2.0159  1.7673 -2.8662
 5643TIP3    H241125   0.902   6.661   1.420  1.0239  0.7714 -1.2369
 5644TIP3   OH241126   7.254   0.695   1.406 -0.4350  0.6716  0.3838
 5644TIP3    H141127   7.260   0.782   1.447 -1.5149  0.0177  2.0077
 5644TIP3    H241128   7.171   0.659   1.436  0.2072 -1.1315  0.1531
 5645TIP3   OH241129   5.038   0.917   7.915  0.0157  0.4207 -0.9393
 5645TIP3    H141130   5.111   0.978   7.928 -0.0200  0.0120  1.6953
 5645TIP3    H241131   5.049   0.851   7.984 -0.9663 -1.5667 -2.5967
 5646TIP3   OH241132   3.477   4.814   2.287  0.2072  0.0437 -0.6287
 5646TIP3    H141133   3.499   4.815   2.194 -0.3618 -0.0116 -0.7642
 5646TIP3    H241134   3.559   4.837   2.331  0.5079 -0.0465 -1.1354
 5647TIP3   OH241135   2.282   3.118   2.210 -0.0793  0.1068  0.5422
 5647TIP3    H141136   2.325   3.182   2.154 -0.0040 -0.7413 -0.3867
 5647TIP3    H241137   2.295   3.152   2.299  1.1027  0.7028  0.1672
 5648TIP3   OH241138   4.718   7.382   8.118 -0.2662  0.1138  0.1998
 5648TIP3    H141139   4.769   7.399   8.039  0.2337  0.7502  0.6450
 5648TIP3    H241140   4.774   7.413   8.189 -2.0613  2.7603  0.5960
 5649TIP3   OH241141   3.118   5.434   1.305  0.1082  0.4799  0.5809
 5649TIP3    H141142   3.077   5.347   1.304 -1.7356  1.2804 -1.2402
 5649TIP3    H241143   3.208   5.418   1.277  0.4730 -1.0588  2.3896
 5650TIP3   OH241144   3.323   0.028   8.223 -0.4388 -0.3203 -0.2336
 5650TIP3    H141145   3.325  -0.014   8.309  0.0476 -0.9596 -0.5494
 5650TIP3    H241146   3.360   0.115   8.237 -3.5086  0.9434  0.9037
 5651TIP3   OH241147   1.034   2.135   7.022 -0.3390 -0.3359  0.1413
 5651TIP3    H141148   1.077   2.069   7.076  0.2307  0.3847  0.5840
 5651TIP3    H241149   0.964   2.087   6.977  0.1316 -1.2561  0.3686
 5652TIP3   OH241150   1.238   4.412   0.886 -0.9133  0.1441  0.0610
 5652TIP3    H141151   1.186   4.435   0.963  0.5882 -2.3271  1.9492
 5652TIP3    H241152   1.296   4.342   0.916  0.4993 -0.1875 -3.0687
 5653TIP3   OH241153   1.679   6.653   3.254 -0.0724  0.1755 -0.8266
 5653TIP3    H141154   1.620   6.617   3.319 -0.6437 -1.4268 -2.1529
 5653TIP3    H241155   1.669   6.748   3.262 -2.6851 -0.0275 -0.8553
 5654TIP3   OH241156   1.654   2.013   9.652 -0.7213 -0.3054 -0.0960
 5654TIP3    H141157   1.697   2.085   9.605 -0.3001  0.9526  2.0770
 5654TIP3    H241158   1.674   1.935   9.600  0.7587  0.8157 -1.3144
 5655TIP3   OH241159   0.652   0.465   8.689 -0.5403  0.4181 -0.5790
 5655TIP3    H141160   0.696   0.430   8.612  2.0316  1.1286  0.4670
 5655TIP3    H241161   0.638   0.557   8.669  0.6820  0.7460 -0.0176
 5656TIP3   OH241162   3.124   7.151   2.730  0.1712 -0.0218  0.1206
 5656TIP3    H141163   3.039   7.190   2.753 -0.3460 -0.8603 -0.3292
 5656TIP3    H241164   3.142   7.089   2.800 -0.0078 -0.4704 -0.2262
 5657TIP3   OH241165   1.728   3.688   0.795 -0.2127  0.0242  0.1788
 5657TIP3    H141166   1.636   3.716   0.797  0.2049  1.4826  0.0316
 5657TIP3    H241167   1.756   3.705   0.706  0.7810  1.6677  0.7576
 5658TIP3   OH241168   0.310   1.087   9.066  0.1401 -0.0517  0.1618
 5658TIP3    H141169   0.248   1.090   8.992 -0.2171  1.2730  0.4961
 5658TIP3    H241170   0.395   1.070   9.025 -0.1688 -0.0752 -0.4816
 5659TIP3   OH241171   1.007   6.283   2.628  0.2087  0.4754 -0.1124
 5659TIP3    H141172   0.964   6.336   2.561 -0.0984  1.5248  0.8884
 5659TIP3    H241173   1.074   6.341   2.665 -1.3773  0.8864  2.3029
 5660TIP3   OH241174   1.285   7.400   9.316  0.1408 -0.9197 -0.3629
 5660TIP3    H141175   1.349   7.375   9.383 -0.0061 -1.9984 -0.6121
 5660TIP3    H241176   1.280   7.495   9.323 -0.0332 -1.0069  1.3187
 5661TIP3   OH241177   1.090   3.867   0.211 -0.6967  0.1853 -0.2266
 5661TIP3    H141178   1.159   3.816   0.255 -1.2105 -1.4618 -1.2193
 5661TIP3    H241179   1.138   3.932   0.159  0.1247 -0.6870 -0.6045
 5662TIP3   OH241180   3.506   1.435   7.023 -0.0588 -0.0234 -0.2632
 5662TIP3    H141181   3.479   1.353   6.982  0.5826 -0.1706 -0.4045
 5662TIP3    H241182   3.559   1.407   7.098 -0.0883  0.2621 -0.1369
 5663TIP3   OH241183   6.354   3.470   8.138 -0.4192  0.1016 -0.7844
 5663TIP3    H141184   6.437   3.512   8.118  0.0275 -0.4344 -0.1046
 5663TIP3    H241185   6.345   3.478   8.233 -1.1758  0.2155 -0.8624
 5664TIP3   OH241186   6.957   7.213   8.077 -0.1133 -0.3278  0.0683
 5664TIP3    H141187   7.044   7.190   8.110  0.2051  0.9678  0.1811
 5664TIP3    H241188   6.897   7.160   8.129  0.5782 -0.8269  0.3736
 5665TIP3   OH241189   0.516   2.878   1.397  0.1154  0.4607  0.0353
 5665TIP3    H141190   0.436   2.924   1.422 -0.5989 -1.0959  0.7534
 5665TIP3    H241191   0.519   2.886   1.301 -1.0650  0.3140 -0.0265
 5666TIP3   OH241192   1.294   5.277   9.775 -0.1759 -0.2015 -0.5536
 5666TIP3    H141193   1.378   5.296   9.735  0.0826 -2.4961 -1.2223
 5666TIP3    H241194   1.316   5.233   9.857 -0.7457  1.2583  0.4326
 5667TIP3   OH241195   5.682   0.874   1.002  0.0738 -0.1963 -0.1914
 5667TIP3    H141196   5.595   0.849   0.971  0.3554 -0.7246 -0.5641
 5667TIP3    H241197   5.706   0.805   1.064  0.3292 -0.1767 -0.2687
 5668TIP3   OH241198   3.007   7.282   8.914  0.1483  0.0442 -0.0155
 5668TIP3    H141199   2.970   7.360   8.955  1.1143  0.4283  0.1704
 5668TIP3    H241200   3.081   7.259   8.971 -0.7478 -1.6502  0.5487
 5669TIP3   OH241201   2.800   5.206   7.200 -0.4694  0.1026  0.1957
 5669TIP3    H141202   2.722   5.151   7.199  1.3637 -2.7355 -0.6250
 5669TIP3    H241203   2.849   5.178   7.277 -0.4688  2.2748  1.0571
 5670TIP3   OH241204   5.615   5.105   1.854  0.1181  0.2834 -0.2631
 5670TIP3    H141205   5.589   5.185   1.899  0.0904  0.3860 -0.4600
 5670TIP3    H241206   5.533   5.058   1.838  0.1264  0.2541 -0.2189
 5671TIP3   OH241207   2.731   7.331   1.005 -0.2797 -0.2443 -0.3921
 5671TIP3    H141208   2.722   7.330   0.910 -2.3409 -0.1074 -0.2344
 5671TIP3    H241209   2.688   7.412   1.033  0.2014 -0.3355  0.6826
 5672TIP3   OH241210   2.176   1.880   8.934  0.1518  0.2762  0.2161
 5672TIP3    H141211   2.135   1.841   8.857  0.6549  1.5260 -0.7221
 5672TIP3    H241212   2.231   1.949   8.899 -5.2054  6.3870  1.7922
 5673TIP3   OH241213   3.264   6.645   1.117 -0.0653 -0.2624 -0.3571
 5673TIP3    H141214   3.176   6.679   1.132  0.1081 -0.1204  0.3719
 5673TIP3    H241215   3.322   6.712   1.154  0.4242  0.3447 -2.1120
 5674TIP3   OH241216   4.529   3.992   1.211  0.3518 -0.1806  0.2260
 5674TIP3    H141217   4.542   3.900   1.189 -0.0446 -0.0203 -0.7398
 5674TIP3    H241218   4.596   4.010   1.277 -0.5371 -1.5392  1.5726
 5675TIP3   OH241219   4.149   0.857   8.618  0.6413  0.0406 -0.0887
 5675TIP3    H141220   4.197   0.821   8.692  1.9438  0.0724 -0.8931
 5675TIP3    H241221   4.197   0.827   8.541 -1.0568 -0.5437 -0.9709
 5676TIP3   OH241222   0.053   6.352   1.225  0.1083 -0.1813  0.8999
 5676TIP3    H141223   0.069   6.446   1.229 -2.0417  0.4427 -2.1842
 5676TIP3    H241224   0.133   6.313   1.260  1.2395  2.7355  1.8951
 5677TIP3   OH241225   3.355   6.733   7.730  0.1959 -0.6582  0.5059
 5677TIP3    H141226   3.336   6.685   7.811 -2.0041 -0.4106  0.1898
 5677TIP3    H241227   3.297   6.809   7.733  1.0525  0.0774 -0.6940
 5678TIP3   OH241228   2.782   3.143   6.812 -0.3640 -0.0436  0.0297
 5678TIP3    H141229   2.830   3.200   6.753 -2.2028  1.1501 -0.4025
 5678TIP3    H241230   2.789   3.055   6.774 -0.5880  0.5270 -1.3574
 5679TIP3   OH241231   5.380   6.169   9.394  0.0331 -0.6147  0.9444
 5679TIP3    H141232   5.322   6.206   9.461 -0.2452 -1.3213  1.0958
 5679TIP3    H241233   5.422   6.246   9.355 -0.3808 -0.1452  1.3972
 5680TIP3   OH241234   5.080   6.697   1.933  0.3871 -0.0575  0.3673
 5680TIP3    H141235   5.051   6.619   1.981  2.3701 -1.3963 -0.4534
 5680TIP3    H241236   5.155   6.667   1.883  0.6771  2.2140 -0.6819
 5681TIP3   OH241237   1.679   1.047   9.729 -0.1651  0.2655  0.0650
 5681TIP3    H141238   1.699   1.013   9.817 -1.8571 -1.8797 -0.2954
 5681TIP3    H241239   1.584   1.047   9.725 -0.1123  0.9249 -1.5835
 5682TIP3   OH241240   7.207   1.377   7.931  0.0736 -0.4389  0.4759
 5682TIP3    H141241   7.269   1.406   7.863  0.6148 -0.9989  0.7221
 5682TIP3    H241242   7.239   1.417   8.011  0.0128 -0.5852  0.5733
 5683TIP3   OH241243   0.498   1.356   0.114  0.0946 -0.2477 -0.6413
 5683TIP3    H141244   0.536   1.412   0.182  0.0953  1.6077 -2.0674
 5683TIP3    H241245   0.444   1.416   0.062 -0.5764 -1.7691 -1.7646
 5684TIP3   OH241246   2.037   3.981   0.353  0.1624  0.1489  0.3049
 5684TIP3    H141247   2.001   4.038   0.422 -0.0864  0.1207  0.1994
 5684TIP3    H241248   2.083   4.041   0.295 -1.7065  0.5348 -0.8689
 5685TIP3   OH241249   4.682   7.025   1.697 -0.4793  0.0696 -0.2544
 5685TIP3    H141250   4.698   7.028   1.603 -1.0040 -2.3418 -0.4986
 5685TIP3    H241251   4.587   7.034   1.706 -0.8905 -3.0943 -0.3316
 5686TIP3   OH241252   6.469   0.130   0.545  0.6951  0.0236  0.1785
 5686TIP3    H141253   6.514   0.117   0.629  1.2104  1.0368  0.0790
 5686TIP3    H241254   6.508   0.211   0.510  0.1336 -0.1233 -0.8038
 5687TIP3   OH241255   4.706   4.656   0.132 -0.1811 -0.1173  0.0464
 5687TIP3    H141256   4.750   4.570   0.127 -0.1345 -0.0868 -0.0880
 5687TIP3    H241257   4.613   4.635   0.128 -0.1514 -0.0930 -1.2257
 5688TIP3   OH241258   0.725   4.568   9.277 -0.1818 -0.1597 -0.8649
 5688TIP3    H141259   0.633   4.557   9.300  0.2491 -1.0139  0.5910
 5688TIP3    H241260   0.733   4.532   9.189 -0.5332 -4.0257  0.4583
 5689TIP3   OH241261   7.354   2.735   2.304 -0.6410  0.0358  0.4134
 5689TIP3    H141262   7.341   2.791   2.380  0.8786  0.6220  0.2712
 5689TIP3    H241263   7.354   2.795   2.229  1.2084 -0.0658  0.2766
 5690TIP3   OH241264   4.216   7.016   7.265 -0.1593 -0.0235 -0.0905
 5690TIP3    H141265   4.290   7.006   7.206 -0.0203  0.6439 -0.0423
 5690TIP3    H241266   4.182   6.927   7.278  0.0358 -0.2159 -0.8717
 5691TIP3   OH241267   6.893   2.832   9.367 -0.3765 -0.1435  0.2421
 5691TIP3    H141268   6.826   2.890   9.403 -2.4453 -1.3324 -1.4408
 5691TIP3    H241269   6.896   2.758   9.428 -2.1854 -1.0597 -0.6954
 5692TIP3   OH241270   0.366   1.355   2.733 -0.2544  0.2964  0.0571
 5692TIP3    H141271   0.318   1.349   2.815 -0.9425 -1.0704 -0.3968
 5692TIP3    H241272   0.298   1.371   2.667  0.1640  0.3946 -0.3543
 5693TIP3   OH241273   7.330   4.406   9.518 -0.2044 -0.4953 -0.4329
 5693TIP3    H141274   7.262   4.420   9.452  0.7186  3.0097 -0.8287
 5693TIP3    H241275   7.320   4.314   9.543 -3.8083 -0.6632 -1.8294
 5694TIP3   OH241276   4.072   4.195   2.339  1.4240 -0.1729 -0.2081
 5694TIP3    H141277   4.081   4.228   2.249  0.8372 -3.5259 -1.6817
 5694TIP3    H241278   3.977   4.186   2.351  1.4492  1.1009  1.1710
 5695TIP3   OH241279   4.822   7.104   0.012  0.0282  0.3422  0.2708
 5695TIP3    H141280   4.877   7.061   0.078 -1.6159  0.5550  1.8830
 5695TIP3    H241281   4.772   7.033  -0.027 -0.2516  0.3933  0.5258
 5696TIP3   OH241282   4.295   0.868   1.037  0.1621  0.6758  0.1816
 5696TIP3    H141283   4.316   0.868   1.130  0.6526  0.0074  0.0809
 5696TIP3    H241284   4.210   0.823   1.031  0.1491  0.6852  0.3019
 5697TIP3   OH241285   6.122   1.648   8.556 -0.0895  0.1818 -0.5761
 5697TIP3    H141286   6.177   1.726   8.545 -0.7523  0.7297 -0.0455
 5697TIP3    H241287   6.110   1.639   8.650  1.3996 -1.5819 -0.5112
 5698TIP3   OH241288   0.193   4.524   8.960 -0.0736 -0.5792 -0.3063
 5698TIP3    H141289   0.173   4.553   9.049 -0.4045  1.2768 -0.9439
 5698TIP3    H241290   0.253   4.451   8.971 -0.9045 -1.0506  1.4595
 5699TIP3   OH241291   4.817   1.748   0.937  0.0127  0.2329 -0.2381
 5699TIP3    H141292   4.841   1.741   1.029  0.4667  0.1333 -0.3631
 5699TIP3    H241293   4.774   1.833   0.929  0.4107  0.4530 -0.0322
 5700TIP3   OH241294   2.318   5.420   2.871  0.9675  0.3453  0.0700
 5700TIP3    H141295   2.281   5.337   2.902  3.1889  0.1550  2.6399
 5700TIP3    H241296   2.336   5.405   2.778 -0.4932 -1.3206  0.0016
 5701TIP3   OH241297   4.053   4.565   0.852  0.5283 -0.2683 -0.6548
 5701TIP3    H141298   3.960   4.542   0.853  0.6313 -0.6874 -0.4941
 5701TIP3    H241299   4.098   4.483   0.831  0.8088  0.1190 -1.6128
 5702TIP3   OH241300   0.543   6.816   0.278  0.2384  0.0070 -0.5671
 5702TIP3    H141301   0.580   6.801   0.365 -2.1600  1.0435  0.7419
 5702TIP3    H241302   0.535   6.728   0.240 -0.6753 -0.7178  1.1790
 5703TIP3   OH241303   0.043   0.595   7.431 -0.4434 -0.4036 -0.3003
 5703TIP3    H141304   0.111   0.590   7.364  0.1689 -0.6310  0.3308
 5703TIP3    H241305  -0.025   0.535   7.400  0.3791 -1.4579 -0.1108
 5704TIP3   OH241306   0.120   2.503   2.260 -0.6451  0.3056  0.1943
 5704TIP3    H141307   0.077   2.582   2.295  1.3780  0.9379  1.4517
 5704TIP3    H241308   0.137   2.450   2.338  0.3291 -0.1692 -0.3354
 5705TIP3   OH241309   5.278   0.737   1.600  0.3555 -0.2968 -0.0767
 5705TIP3    H141310   5.215   0.809   1.594  1.0492  0.4310  1.0498
 5705TIP3    H241311   5.231   0.669   1.649  0.2158 -0.0214  0.1771
 5706TIP3   OH241312   1.144   4.531   8.955  0.1081 -0.6966 -0.0981
 5706TIP3    H141313   1.130   4.469   8.882  0.7717 -0.0526 -0.7884
 5706TIP3    H241314   1.100   4.490   9.029 -1.0122 -1.1478 -0.9693
 5707TIP3   OH241315   4.666   4.083   9.932  0.0790  0.1462 -0.5520
 5707TIP3    H141316   4.620   4.148   9.879  0.4629  0.4578 -0.5107
 5707TIP3    H241317   4.696   4.132  10.009 -2.8744 -0.8209  1.4213
 5708TIP3   OH241318   2.017   4.827   6.399  0.2727  0.5038 -0.6800
 5708TIP3    H141319   2.030   4.795   6.489  0.7318 -0.3396 -1.0374
 5708TIP3    H241320   2.086   4.893   6.388  1.3323 -0.6365 -0.9907
 5709TIP3   OH241321   5.513   5.750   9.113  0.0913  0.2379  0.4514
 5709TIP3    H141322   5.589   5.787   9.158 -1.3622  0.0479  3.2801
 5709TIP3    H241323   5.480   5.823   9.059  1.5931  0.6472  0.0363
 5710TIP3   OH241324   7.138   3.213   0.834  0.7505 -0.0333  0.4446
 5710TIP3    H141325   7.231   3.190   0.834  1.6644  3.1479 -0.6535
 5710TIP3    H241326   7.123   3.254   0.920  0.0889 -1.3161  0.9660
 5711TIP3   OH241327   2.020   4.950   2.058  0.1599  0.1509 -0.3040
 5711TIP3    H141328   2.012   4.874   2.115 -0.6732 -0.4646 -1.1921
 5711TIP3    H241329   2.099   4.934   2.006  1.0598  0.8340  0.8179
 5712TIP3   OH241330   5.516   3.940   7.575 -0.0117  0.4117 -0.1228
 5712TIP3    H141331   5.465   4.019   7.557  0.5608  1.0255  0.9008
 5712TIP3    H241332   5.594   3.971   7.619 -0.0806 -0.7939  0.8973
 5713TIP3   OH241333   3.907   5.103   7.910  0.0201 -0.9904  0.6135
 5713TIP3    H141334   3.840   5.163   7.878  0.2112  0.0462  2.0507
 5713TIP3    H241335   3.973   5.160   7.950  2.2500 -1.8900 -1.5255
 5714TIP3   OH241336   5.655   1.072   9.980 -0.1738  0.7916 -0.5995
 5714TIP3    H141337   5.731   1.015   9.972 -0.7376  0.0760 -0.9383
 5714TIP3    H241338   5.593   1.039   9.916 -0.3420  2.0743 -1.1268
 5715TIP3   OH241339   5.113   4.122   0.853  0.5012  0.4349  0.3451
 5715TIP3    H141340   5.045   4.074   0.805  0.1686  0.3498  0.8904
 5715TIP3    H241341   5.134   4.066   0.928 -0.4994  1.4821  1.4614
 5716TIP3   OH241342   3.394   7.295   0.307 -0.0298  0.4637  0.0827
 5716TIP3    H141343   3.411   7.317   0.215  4.0684  0.0461  0.5616
 5716TIP3    H241344   3.334   7.220   0.303 -1.3979  1.5869 -2.1172
 5717TIP3   OH241345   1.271   4.145   8.479 -0.0585 -0.5157  0.6588
 5717TIP3    H141346   1.270   4.227   8.527 -1.3844 -0.1506  0.0452
 5717TIP3    H241347   1.287   4.170   8.388 -1.2384 -0.8428  0.3424
 5718TIP3   OH241348   0.485   2.573   8.404  0.0794  0.2784  0.0258
 5718TIP3    H141349   0.501   2.623   8.324  0.3143 -0.6381 -0.5072
 5718TIP3    H241350   0.414   2.620   8.447  0.5075  1.2635 -0.2932
 5719TIP3   OH241351   4.216   3.281   8.312 -0.0734  0.3752  0.0354
 5719TIP3    H141352   4.125   3.251   8.314  0.3818 -1.0481  0.8509
 5719TIP3    H241353   4.214   3.368   8.351 -1.2349  0.8669 -1.0273
 5720TIP3   OH241354   4.996   2.917   0.120  0.2018 -0.4908  0.1194
 5720TIP3    H141355   4.975   2.949   0.208 -0.8256 -0.8322  0.0208
 5720TIP3    H241356   5.076   2.962   0.095  0.1671  0.0617  0.9930
 5721TIP3   OH241357   7.032   5.144   2.155  0.1558  0.2061 -0.0590
 5721TIP3    H141358   7.032   5.051   2.131 -0.5493  0.4670 -1.1817
 5721TIP3    H241359   7.019   5.145   2.249  2.0669 -0.8698  0.2534
 5722TIP3   OH241360   4.266   3.800   7.489  0.0445  0.6396 -0.2469
 5722TIP3    H141361   4.238   3.724   7.540  0.8328  0.7561  0.3860
 5722TIP3    H241362   4.289   3.764   7.403 -2.5422  0.6246 -1.0145
 5723TIP3   OH241363   1.274   4.202   7.665  0.4095  0.0962 -0.2936
 5723TIP3    H141364   1.260   4.108   7.677  0.6853 -0.0397 -1.0006
 5723TIP3    H241365   1.348   4.208   7.605  2.4795  0.7906  2.1716
 5724TIP3   OH241366   7.135   4.270   2.106  0.0348  0.3752 -0.1562
 5724TIP3    H141367   7.178   4.337   2.159  1.3883  0.5785 -1.4508
 5724TIP3    H241368   7.044   4.298   2.101  0.3250  1.4512  0.3469
 5725TIP3   OH241369   3.514   0.231   9.182 -0.1666 -0.1160 -0.1035
 5725TIP3    H141370   3.424   0.228   9.214 -0.3909  0.8017 -0.6313
 5725TIP3    H241371   3.520   0.157   9.121 -0.3914 -0.5108  0.3400
 5726TIP3   OH241372   2.276   2.120   0.946 -0.1384  0.1563 -0.5216
 5726TIP3    H141373   2.188   2.087   0.927 -1.0965  1.7193  0.9546
 5726TIP3    H241374   2.263   2.212   0.970  1.2970 -0.5381  3.8274
 5727TIP3   OH241375   6.068   1.477   1.794 -0.0329  0.2322 -0.3101
 5727TIP3    H141376   6.086   1.383   1.806 -0.6553 -0.0483 -1.4335
 5727TIP3    H241377   6.085   1.515   1.880 -0.7185 -1.0700  0.4443
 5728TIP3   OH241378   2.530   4.655   0.248  0.1320  0.2236 -0.2206
 5728TIP3    H141379   2.583   4.581   0.220 -0.2695 -0.0543 -0.2539
 5728TIP3    H241380   2.558   4.671   0.338  0.3834  0.1812 -0.2896
 5729TIP3   OH241381   4.475   4.675   0.668  0.0484 -0.6996 -0.0266
 5729TIP3    H141382   4.538   4.634   0.609  2.4128  0.1029  1.7629
 5729TIP3    H241383   4.457   4.760   0.628 -0.1357 -1.0474 -0.7007
 5730TIP3   OH241384   3.774   5.295   8.789 -0.0613 -0.6685  0.1183
 5730TIP3    H141385   3.804   5.249   8.711  1.5189 -1.8129  1.3474
 5730TIP3    H241386   3.706   5.239   8.826 -0.9980  0.0006 -0.5279
 5731TIP3   OH241387   3.718   1.217   7.637 -0.3251  0.4743 -0.0531
 5731TIP3    H141388   3.734   1.147   7.574  1.1950  0.0104  0.7833
 5731TIP3    H241389   3.636   1.257   7.609 -1.3010 -1.7032 -0.4998
 5732TIP3   OH241390   7.451   2.832   0.051 -0.5492 -0.4698  0.3518
 5732TIP3    H141391   7.488   2.920   0.038 -0.6099 -0.6533 -1.1961
 5732TIP3    H241392   7.360   2.847   0.074 -0.8647 -0.1266 -1.0372
 5733TIP3   OH241393   3.552   6.519   1.135 -0.0882 -0.0672 -0.0936
 5733TIP3    H141394   3.636   6.473   1.138  0.9956  1.7683 -0.6603
 5733TIP3    H241395   3.543   6.559   1.221  0.2087  0.6993 -0.4107
 5734TIP3   OH241396   5.555   7.361   8.383 -0.3517 -0.2440  0.1380
 5734TIP3    H141397   5.622   7.420   8.417  0.6160 -1.5478  0.5734
 5734TIP3    H241398   5.597   7.275   8.381 -1.9897 -1.1027  0.3894
 5735TIP3   OH241399   3.552   2.216   6.910 -0.0509  0.4168 -0.2330
 5735TIP3    H141400   3.620   2.246   6.970  0.5518 -2.5043  0.6800
 5735TIP3    H241401   3.479   2.192   6.967 -0.4853  0.1192 -0.9046
 5736TIP3   OH241402   5.764   2.510   8.332 -0.2899 -0.4509 -0.0708
 5736TIP3    H141403   5.839   2.499   8.390  0.2864 -2.7360 -1.1420
 5736TIP3    H241404   5.785   2.587   8.280 -0.2315  0.8721  1.8172
 5737TIP3   OH241405   6.166   4.377   9.937  0.3414 -0.4031  0.4100
 5737TIP3    H141406   6.168   4.296   9.987  2.4747 -0.6247  0.0566
 5737TIP3    H241407   6.230   4.434   9.980  2.6589 -0.7837 -2.2400
 5738TIP3   OH241408   2.420   4.956   6.690  0.3522  0.3765 -0.5527
 5738TIP3    H141409   2.370   4.989   6.765  0.4005  1.0580 -0.8157
 5738TIP3    H241410   2.447   5.035   6.642  1.5669  0.0251 -0.4888
 5739TIP3   OH241411   4.980   5.400   8.420  0.2531 -0.0581 -0.3360
 5739TIP3    H141412   4.886   5.402   8.403  0.2231  1.2064 -0.1538
 5739TIP3    H241413   5.016   5.473   8.370  0.9679  0.1832  0.4848
 5740TIP3   OH241414   2.507   7.305   7.283 -0.0995 -0.3031  0.0074
 5740TIP3    H141415   2.479   7.276   7.370 -0.5719  0.8105  0.2500
 5740TIP3    H241416   2.602   7.311   7.290 -0.0541 -1.0848  0.1620
 5741TIP3   OH241417   1.686   0.981   1.854 -0.3867 -0.2679 -0.1080
 5741TIP3    H141418   1.615   0.936   1.808  1.0785 -0.9351 -1.8198
 5741TIP3    H241419   1.739   1.020   1.785  1.5129 -0.6883  1.0275
 5742TIP3   OH241420   4.929   6.838   0.614 -0.0670 -0.5060 -0.7139
 5742TIP3    H141421   4.850   6.807   0.570 -1.3692  0.5458  0.7788
 5742TIP3    H241422   4.989   6.861   0.543 -1.4435 -0.4479 -1.8890
 5743TIP3   OH241423   2.743   1.825   8.034 -0.3658 -0.1449 -0.1257
 5743TIP3    H141424   2.778   1.863   7.953 -1.3081  1.0136 -0.0189
 5743TIP3    H241425   2.744   1.731   8.018  0.8344 -0.0213 -0.9138
 5744TIP3   OH241426   6.611   1.315   8.603  0.8022  0.1622  0.0200
 5744TIP3    H141427   6.678   1.316   8.671  2.3248 -0.5024 -1.4095
 5744TIP3    H241428   6.632   1.389   8.547 -0.2331  0.5030  0.0555
 5745TIP3   OH241429   4.211   4.989   9.957  0.4792 -0.2588  0.0073
 5745TIP3    H141430   4.285   4.999   9.897  0.8085 -0.3732  0.3877
 5745TIP3    H241431   4.143   4.946   9.905  0.3295  0.7118 -0.6171
 5746TIP3   OH241432   2.913   1.506   1.106 -0.0912  0.2371 -0.5561
 5746TIP3    H141433   2.992   1.470   1.146  0.7062  0.5421 -1.8024
 5746TIP3    H241434   2.869   1.431   1.067  1.4183  0.4845 -2.8974
 5747TIP3   OH241435   5.060   6.568   1.030 -0.5432  0.0203 -0.2289
 5747TIP3    H141436   5.073   6.652   1.074 -1.5978 -0.3901  0.9276
 5747TIP3    H241437   5.045   6.592   0.938  1.2284  0.9232 -0.3297
 5748TIP3   OH241438   2.480   4.380   9.031  0.2862  0.2911  0.1885
 5748TIP3    H141439   2.479   4.340   9.118 -0.2211  3.3420  1.7339
 5748TIP3    H241440   2.388   4.405   9.016  0.3039 -0.4635 -1.4280
 5749TIP3   OH241441   0.339   4.654   8.103  0.0560 -0.3523  0.8306
 5749TIP3    H141442   0.256   4.641   8.058  0.5586  0.7271 -0.4808
 5749TIP3    H241443   0.403   4.609   8.048  0.6318  0.7174  0.5821
 5750TIP3   OH241444   1.611   6.576   8.432  0.3301 -0.4116  0.4532
 5750TIP3    H141445   1.618   6.614   8.344 -0.0484  2.9150  1.7099
 5750TIP3    H241446   1.569   6.491   8.418  0.1080  0.0713 -2.5383
 5751TIP3   OH241447   2.855   0.532   8.397 -0.3657  0.7892  0.2994
 5751TIP3    H141448   2.838   0.456   8.451 -2.3205  2.1436  1.7408
 5751TIP3    H241449   2.806   0.515   8.316  0.3264 -0.0523  0.0458
 5752TIP3   OH241450   2.032   3.642   9.411 -0.4111  0.1298  0.1687
 5752TIP3    H141451   2.110   3.694   9.392  0.4233  0.7774  4.4303
 5752TIP3    H241452   2.054   3.553   9.382  1.1477  0.6684 -0.3928
 5753TIP3   OH241453   5.138   4.577   1.362 -0.1279  0.3248 -0.5312
 5753TIP3    H141454   5.213   4.547   1.312 -0.0385  1.4270 -1.0878
 5753TIP3    H241455   5.065   4.524   1.330  0.4861 -1.1732  0.4342
 5754TIP3   OH241456   6.130   0.044   2.209 -0.0451  0.8105 -0.5011
 5754TIP3    H141457   6.142  -0.050   2.213 -0.7284  0.7165  3.7263
 5754TIP3    H241458   6.206   0.080   2.255 -1.1498  2.1005  0.3896
 5755TIP3   OH241459   3.253   3.338   9.997 -0.1328 -0.0709 -0.1006
 5755TIP3    H141460   3.184   3.296   9.947  1.4776 -1.2638 -1.4530
 5755TIP3    H241461   3.215   3.421  10.026 -2.4046 -1.0993  0.0454
 5756TIP3   OH241462   4.590   4.732   1.375  0.4155  0.2478  0.2942
 5756TIP3    H141463   4.596   4.644   1.337 -0.5644  0.2414  0.1196
 5756TIP3    H241464   4.497   4.744   1.392  0.2313  2.0368 -1.5843
 5757TIP3   OH241465   2.623   3.020   0.531 -0.2742  0.0096 -0.2302
 5757TIP3    H141466   2.692   3.059   0.584 -1.0489  0.8694  0.1540
 5757TIP3    H241467   2.665   2.944   0.490  1.6512  1.8753 -1.9942
 5758TIP3   OH241468   6.714   1.439   2.458  0.4479 -0.0400  0.0644
 5758TIP3    H141469   6.658   1.365   2.436  1.6737 -0.8588 -0.3640
 5758TIP3    H241470   6.709   1.496   2.382  0.8630 -0.5309 -0.3387
 5759TIP3   OH241471   5.260   5.404   8.933 -0.1021 -0.3524  0.0409
 5759TIP3    H141472   5.308   5.466   8.878 -0.6436  2.0544  2.0772
 5759TIP3    H241473   5.241   5.330   8.876  2.4002  0.4225 -1.9670
 5760TIP3   OH241474   1.594   4.699   0.663 -0.2602  0.0317 -0.2443
 5760TIP3    H141475   1.630   4.679   0.749 -0.4774 -1.2739 -0.4396
 5760TIP3    H241476   1.592   4.795   0.660  1.1517  0.1119  0.6012
 5761TIP3   OH241477   1.449   3.514   7.993  0.1756 -0.1877 -0.3462
 5761TIP3    H141478   1.496   3.442   8.035  0.5814  0.3587  0.1550
 5761TIP3    H241479   1.428   3.481   7.906  2.7126 -0.0006 -1.1195
 5762TIP3   OH241480   1.590   1.564   2.056  0.3108 -0.6468  0.8092
 5762TIP3    H141481   1.565   1.649   2.020  0.5888 -0.3849  1.2249
 5762TIP3    H241482   1.516   1.539   2.112 -0.3683 -1.3081 -0.3289
 5763TIP3   OH241483   2.568   0.156   1.428 -0.1318 -0.8650  0.4842
 5763TIP3    H141484   2.652   0.127   1.392  0.0719  1.1507 -0.8093
 5763TIP3    H241485   2.555   0.244   1.392 -2.3171 -0.7069  1.4835
 5764TIP3   OH241486   6.078   5.047   0.589 -0.3225  0.0329  0.9939
 5764TIP3    H141487   6.077   4.976   0.526  1.5940  0.7641  0.0550
 5764TIP3    H241488   6.012   5.109   0.556  0.5935  0.3704 -0.3066
 5765TIP3   OH241489   0.122   4.677   2.689  0.1278 -0.0366  0.4170
 5765TIP3    H141490   0.140   4.757   2.738 -0.3137 -0.4794  1.3042
 5765TIP3    H241491   0.172   4.688   2.607  3.0441 -0.4383  2.0099
 5766TIP3   OH241492   0.512   4.389   0.982 -1.0047 -0.1085 -0.2757
 5766TIP3    H141493   0.480   4.311   1.026  0.1832  0.8991  2.6272
 5766TIP3    H241494   0.434   4.442   0.967 -1.6762 -1.3174 -1.2812
 5767TIP3   OH241495   3.944   3.950   8.205  0.1179  0.1657  0.2840
 5767TIP3    H141496   3.945   3.911   8.118  0.6207 -1.6072  1.0290
 5767TIP3    H241497   3.992   4.032   8.195 -1.2637  0.8379 -1.4216
 5768TIP3   OH241498   5.073   1.186   2.632 -0.6146  0.6104 -0.1482
 5768TIP3    H141499   5.064   1.216   2.542 -0.9857  2.5209  0.4840
 5768TIP3    H241500   5.072   1.266   2.685  2.6693 -0.1538  1.3634
 5769TIP3   OH241501   0.931   4.372   0.838  0.0848  0.6583 -0.0591
 5769TIP3    H141502   0.910   4.319   0.915  0.5539  0.1826 -0.2528
 5769TIP3    H241503   0.900   4.460   0.861  1.6644  0.9154  1.3514
 5770TIP3   OH241504   1.482   2.240   2.028 -0.4735 -0.1845  0.0072
 5770TIP3    H141505   1.530   2.205   1.953 -0.1089 -0.7597  0.5015
 5770TIP3    H241506   1.525   2.323   2.049 -0.2087 -0.3040 -0.0613
 5771TIP3   OH241507   3.001   0.621   8.626 -0.0227  0.3229  0.4466
 5771TIP3    H141508   2.949   0.597   8.549  1.0823 -0.7052  0.0007
 5771TIP3    H241509   2.938   0.665   8.684 -1.9141 -2.5540  0.7698
 5772TIP3   OH241510   2.802   4.758   0.179 -0.3667  0.6782  0.2425
 5772TIP3    H141511   2.875   4.757   0.241 -0.8546 -0.1193  0.8207
 5772TIP3    H241512   2.772   4.667   0.175 -1.0870  0.9255 -0.2861
 5773TIP3   OH241513   4.828   1.683   2.265  0.5454  0.2701  0.0052
 5773TIP3    H141514   4.883   1.621   2.216  0.2743  0.6182 -0.7490
 5773TIP3    H241515   4.882   1.762   2.271  1.6672 -0.6037  2.6132
 5774TIP3   OH241516   2.165   3.540   7.004  0.3192  0.1815 -0.6456
 5774TIP3    H141517   2.210   3.624   7.011 -1.0536  0.8628  0.6400
 5774TIP3    H241518   2.150   3.528   6.911  0.6225  1.3141 -0.8506
 5775TIP3   OH241519   2.082   2.809   7.763 -0.0056  0.0418 -0.2188
 5775TIP3    H141520   2.034   2.725   7.767 -1.2416  0.7245 -0.1692
 5775TIP3    H241521   2.094   2.833   7.855 -0.4938  0.3802 -0.2429
 5776TIP3   OH241522   4.503   6.781   1.608 -0.8671 -0.2010 -0.1182
 5776TIP3    H141523   4.510   6.802   1.515  0.5595 -2.7180 -0.6770
 5776TIP3    H241524   4.496   6.686   1.611  1.1244 -0.3962  2.3972
 5777TIP3   OH241525   7.229   3.507   0.774 -0.2592  0.0699 -0.1212
 5777TIP3    H141526   7.306   3.554   0.804 -0.6566  0.8651 -0.3162
 5777TIP3    H241527   7.202   3.454   0.848 -0.6818  1.2900  0.6172
 5778TIP3   OH241528   5.928   1.936   9.582  0.0108  0.0984  0.2397
 5778TIP3    H141529   5.867   1.926   9.508  0.4567  1.9327 -0.4259
 5778TIP3    H241530   5.876   1.912   9.659 -1.0889  0.1142 -0.4664
 5779TIP3   OH241531   6.870   4.789   2.139 -0.1011  0.1761  0.6165
 5779TIP3    H141532   6.826   4.755   2.061  0.3453  0.3510  0.2840
 5779TIP3    H241533   6.802   4.792   2.206 -1.2412  2.6702 -0.5139
 5780TIP3   OH241534   1.383   0.174   9.737  0.0427 -0.0821  0.0357
 5780TIP3    H141535   1.434   0.218   9.805 -0.6195 -1.3657  1.4307
 5780TIP3    H241536   1.292   0.202   9.753 -0.0324  0.1993 -0.8245
 5781TIP3   OH241537   5.316   1.059   2.030 -0.1069 -0.1318 -0.0550
 5781TIP3    H141538   5.340   1.152   2.034  1.6629 -0.5566  0.0611
 5781TIP3    H241539   5.325   1.028   2.120  1.3577 -0.8496 -0.4105
 5782TIP3   OH241540   2.911   4.723   1.266 -0.2959  0.4702 -0.0939
 5782TIP3    H141541   2.860   4.718   1.347 -1.5212  0.2796 -0.8602
 5782TIP3    H241542   2.930   4.816   1.255  0.1005  0.4703  0.5384
 5783TIP3   OH241543   1.138   5.473   7.710 -0.4809 -0.0624 -0.1342
 5783TIP3    H141544   1.092   5.432   7.636  0.9897 -0.3970 -0.9192
 5783TIP3    H241545   1.069   5.506   7.766 -1.6712  0.7909 -1.9937
 5784TIP3   OH241546   2.284   4.982   9.340 -0.0428  0.4201 -0.0819
 5784TIP3    H141547   2.205   4.929   9.333 -0.7760  1.2513  1.4922
 5784TIP3    H241548   2.255   5.071   9.325  0.4675  0.8050  1.1207
 5785TIP3   OH241549   2.004   1.504   7.676  0.3254  0.1458  0.6395
 5785TIP3    H141550   2.093   1.471   7.688  0.2901 -0.5178 -0.7213
 5785TIP3    H241551   2.010   1.597   7.698  0.9289 -0.2650  2.3516
 5786TIP3   OH241552   4.808   4.196   7.517 -0.1916  0.4526  0.3504
 5786TIP3    H141553   4.744   4.135   7.554 -0.5282 -0.3842 -1.5028
 5786TIP3    H241554   4.779   4.282   7.547 -0.4125 -0.1707  2.0242
 5787TIP3   OH241555   2.516   2.456   2.240  0.4092  0.0440 -0.5637
 5787TIP3    H141556   2.421   2.470   2.246  0.2086 -1.4228  0.1484
 5787TIP3    H241557   2.530   2.422   2.151  0.2809  0.3072 -0.6859
 5788TIP3   OH241558   0.984   0.260   1.804 -0.2759 -0.6192 -0.1598
 5788TIP3    H141559   1.033   0.224   1.730 -1.9352 -0.1699 -1.5530
 5788TIP3    H241560   0.907   0.301   1.764 -0.0360  1.7880  1.6037
 5789TIP3   OH241561   0.655   2.681   2.174 -0.2896  0.0210  0.3563
 5789TIP3    H141562   0.603   2.609   2.210 -1.3674  0.2872 -0.5964
 5789TIP3    H241563   0.746   2.650   2.181 -0.7744 -2.0355 -1.1920
 5790TIP3   OH241564   0.030   5.456   1.543  0.2142  0.3699  0.8712
 5790TIP3    H141565   0.004   5.377   1.590 -1.0838  1.3421  1.8547
 5790TIP3    H241566   0.120   5.439   1.515 -0.4598 -1.9574 -0.1034
 5791TIP3   OH241567   0.750   7.423   2.004  0.0693 -0.3679  0.0195
 5791TIP3    H141568   0.741   7.344   2.058  1.1273 -1.6510 -1.5483
 5791TIP3    H241569   0.844   7.441   2.004 -0.1610  0.8614  0.2949
 5792TIP3   OH241570   7.277   0.187   9.471 -0.0320  0.0137 -0.0623
 5792TIP3    H141571   7.355   0.141   9.442  0.8687 -0.3278  2.6241
 5792TIP3    H241572   7.311   0.263   9.518 -1.3608  0.5800  0.0093
 5793TIP3   OH241573   3.030   2.886   7.216  0.1744 -0.4484  0.1494
 5793TIP3    H141574   2.978   2.959   7.183  1.0617  0.7886  1.3991
 5793TIP3    H241575   3.039   2.903   7.310  2.9042 -0.5394 -0.0198
 5794TIP3   OH241576   0.450   4.873   3.025 -0.4778 -0.4510  0.0726
 5794TIP3    H141577   0.370   4.830   3.055 -0.6009 -0.6505 -0.5312
 5794TIP3    H241578   0.441   4.963   3.057 -0.6854 -0.6087  0.4766
 5795TIP3   OH241579   5.472   2.406   1.465  0.4580 -0.3992  0.1213
 5795TIP3    H141580   5.512   2.484   1.427 -1.8904  1.6520  1.5208
 5795TIP3    H241581   5.503   2.333   1.412  2.2105  1.5725 -1.6853
 5796TIP3   OH241582   3.779   6.788   9.037 -0.2692  0.7155  0.1461
 5796TIP3    H141583   3.854   6.807   8.981 -0.3307  0.4088 -0.0402
 5796TIP3    H241584   3.817   6.753   9.118 -0.1574  1.5392  0.4647
 5797TIP3   OH241585   5.188   1.230   9.715 -0.9063  0.3597  0.2672
 5797TIP3    H141586   5.156   1.253   9.802 -1.6171 -0.7122  0.3050
 5797TIP3    H241587   5.235   1.308   9.685  0.4176  0.3305  2.1048
 5798TIP3   OH241588   0.893   4.882   9.756 -0.2331 -0.0586  0.6510
 5798TIP3    H141589   0.807   4.923   9.760 -0.0991  0.2297  0.5671
 5798TIP3    H241590   0.875   4.790   9.739 -0.5046  0.1028  0.0496
 5799TIP3   OH241591   1.371   5.439   8.279  0.7654  0.7691  0.4249
 5799TIP3    H141592   1.336   5.449   8.368  1.1766  1.1222  0.5485
 5799TIP3    H241593   1.316   5.497   8.226 -0.1649 -0.2249  0.2524
 5800TIP3   OH241594   0.713   2.106   9.119 -0.3704 -0.2133  0.0681
 5800TIP3    H141595   0.711   2.197   9.088  2.8822  0.0104  0.1345
 5800TIP3    H241596   0.671   2.109   9.204  0.0730  1.3751  0.2756
 5801TIP3   OH241597   6.307   7.453   1.530  0.1224  0.3276 -0.1004
 5801TIP3    H141598   6.366   7.502   1.472  0.9736  1.3207  1.5463
 5801TIP3    H241599   6.347   7.459   1.616 -1.2794 -0.8599  0.6818
 5802TIP3   OH241600   6.658   7.209   8.172  0.1877  0.1499  0.5479
 5802TIP3    H141601   6.662   7.115   8.189 -0.9584  0.1717  1.0751
 5802TIP3    H241602   6.653   7.216   8.076  0.1415 -0.3384  0.5123
 5803TIP3   OH241603   1.088   0.602   0.893 -0.0728  0.0575  0.0394
 5803TIP3    H141604   1.138   0.533   0.938 -1.2320  0.5886  2.3339
 5803TIP3    H241605   1.085   0.674   0.956 -1.2216  1.1400 -1.1969
 5804TIP3   OH241606   3.288   6.401   2.290 -0.2067  0.0294  0.7037
 5804TIP3    H141607   3.236   6.471   2.331 -0.8663 -0.7043  1.1313
 5804TIP3    H241608   3.269   6.410   2.196 -0.4398  0.2925  0.7742
 5805TIP3   OH241609   2.422   3.319   9.603 -0.4123  1.1237 -0.1261
 5805TIP3    H141610   2.494   3.258   9.621 -0.0842  0.7194 -2.5047
 5805TIP3    H241611   2.465   3.403   9.588 -0.4709  1.0093 -0.9672
 5806TIP3   OH241612   1.364   5.452   1.273 -0.9100  0.1157  0.0791
 5806TIP3    H141613   1.369   5.413   1.186 -0.5167 -0.2922  0.2837
 5806TIP3    H241614   1.407   5.537   1.264 -1.6158  0.4333 -0.3262
 5807TIP3   OH241615   1.038   5.900   9.764 -0.3824 -0.0659  0.1162
 5807TIP3    H141616   0.996   5.984   9.782 -2.0723 -0.6375 -0.9357
 5807TIP3    H241617   0.985   5.860   9.695  0.9633 -1.5732 -0.1203
 5808TIP3   OH241618   4.531   2.708   9.168  0.0908 -0.2505  0.5713
 5808TIP3    H141619   4.576   2.653   9.232 -1.4131 -0.6502  1.3415
 5808TIP3    H241620   4.598   2.769   9.136  1.4800 -1.7025  0.6356
 5809TIP3   OH241621   5.548   3.222   7.679  0.6578 -0.2875 -0.3640
 5809TIP3    H141622   5.640   3.244   7.663 -0.2802  2.5607 -2.7399
 5809TIP3    H241623   5.501   3.306   7.673 -2.2327 -1.7559 -0.2186
 5810TIP3   OH241624   6.577   6.591   9.339  0.2616 -0.3531  0.4463
 5810TIP3    H141625   6.633   6.513   9.345 -0.6016 -0.9490  1.0746
 5810TIP3    H241626   6.549   6.594   9.248  1.4790  0.0781  0.0759
 5811TIP3   OH241627   2.992   6.556   0.572  0.2493 -0.0409  0.1389
 5811TIP3    H141628   2.978   6.468   0.538 -0.2444 -0.3401  1.0785
 5811TIP3    H241629   2.988   6.545   0.667 -0.5389  1.1138  0.2512
 5812TIP3   OH241630   1.050   1.874   0.341  0.3747 -0.2249  0.1137
 5812TIP3    H141631   1.063   1.829   0.257 -1.5274 -0.8861  0.1150
 5812TIP3    H241632   0.996   1.813   0.392 -2.1711  1.9203  0.1734
 5813TIP3   OH241633   0.677   0.789   9.019 -0.0317  0.0817  0.8451
 5813TIP3    H141634   0.685   0.699   9.050  0.8440 -0.6399 -1.2966
 5813TIP3    H241635   0.599   0.789   8.964 -0.1514  0.6795  1.0062
 5814TIP3   OH241636   4.391   4.251   7.637  0.2940 -0.5388  0.2066
 5814TIP3    H141637   4.448   4.200   7.694  2.9382  0.9188 -0.9527
 5814TIP3    H241638   4.384   4.199   7.557  3.5984  0.9937 -1.2653
 5815TIP3   OH241639   7.308   2.372   1.370 -0.0704  0.8617 -0.1997
 5815TIP3    H141640   7.235   2.352   1.429  1.1377  0.0569  1.1120
 5815TIP3    H241641   7.309   2.299   1.307 -0.0732  0.5675  0.1345
 5816TIP3   OH241642   1.142   3.655   8.048 -0.4024  0.1073  0.2101
 5816TIP3    H141643   1.106   3.741   8.025 -0.8796  0.2459  1.3724
 5816TIP3    H241644   1.221   3.674   8.098  0.6131 -0.1843 -1.2149
 5817TIP3   OH241645   7.105   0.329   9.716 -0.2709  0.1041 -0.1183
 5817TIP3    H141646   7.114   0.258   9.779  0.7011 -0.0714 -0.4388
 5817TIP3    H241647   7.194   0.361   9.703 -0.2666 -0.7074 -2.3740
 5818TIP3   OH241648   6.636   4.677   7.820  0.2453  0.5511  0.0560
 5818TIP3    H141649   6.641   4.654   7.727 -2.0381 -1.2076  0.2840
 5818TIP3    H241650   6.703   4.623   7.861  0.0121 -0.0810 -0.3710
 5819TIP3   OH241651   2.556   0.935   8.598  0.1924  0.2663  0.1814
 5819TIP3    H141652   2.560   0.948   8.503  2.5615 -0.8094  0.0678
 5819TIP3    H241653   2.497   0.861   8.610 -0.6623  0.8412 -0.3790
 5820TIP3   OH241654   7.092   1.131   1.419  0.5133 -0.0625 -0.6299
 5820TIP3    H141655   7.134   1.050   1.448  1.0531  0.5704  0.4240
 5820TIP3    H241656   7.002   1.123   1.450  0.6796 -0.0781 -0.1393
 5821TIP3   OH241657   0.705   3.880   8.422 -0.3733 -0.3073  0.3381
 5821TIP3    H141658   0.776   3.820   8.446  0.2287  0.0564 -0.4883
 5821TIP3    H241659   0.714   3.890   8.327 -0.5372  1.0024  0.4501
 5822TIP3   OH241660   0.500   5.158   2.211 -0.5953 -0.2198  0.4672
 5822TIP3    H141661   0.438   5.220   2.249 -0.5308  0.7697 -0.9397
 5822TIP3    H241662   0.453   5.075   2.206 -1.0113 -0.0490  1.4997
 5823TIP3   OH241663   3.812   5.854   9.537  0.4434 -0.3331  0.1809
 5823TIP3    H141664   3.769   5.840   9.621 -1.6737  2.0932 -0.3750
 5823TIP3    H241665   3.757   5.807   9.474  0.8394 -0.4166 -0.1117
 5824TIP3   OH241666   3.921   1.019   7.081 -0.6968 -0.2590 -0.1854
 5824TIP3    H141667   3.851   1.083   7.064  0.3020  0.4985 -1.6618
 5824TIP3    H241668   3.914   0.957   7.008  0.6516  0.2908 -0.8176
 5825TIP3   OH241669   1.870   0.143   9.557  0.3834  1.0333 -0.1491
 5825TIP3    H141670   1.881   0.226   9.512  0.1569  0.5608 -1.0941
 5825TIP3    H241671   1.929   0.082   9.512 -0.1112  0.4690 -0.0480
 5826TIP3   OH241672   3.591   5.051   8.088 -0.4366  0.1892  0.4584
 5826TIP3    H141673   3.644   5.121   8.125 -0.5346  1.5425 -1.8242
 5826TIP3    H241674   3.501   5.075   8.111 -0.3859  0.0681  0.8039
 5827TIP3   OH241675   5.500   1.561   1.650  0.0960  0.0201 -0.7282
 5827TIP3    H141676   5.583   1.592   1.616 -0.2655 -0.5635 -2.1934
 5827TIP3    H241677   5.441   1.562   1.575 -0.8189 -0.9851 -0.0546
 5828TIP3   OH241678   5.099   3.379   0.610  0.0703 -0.0815  0.3658
 5828TIP3    H141679   5.137   3.292   0.597 -0.3191 -0.3383  0.8689
 5828TIP3    H241680   5.110   3.396   0.704 -0.1140  0.2855  0.3219
 5829TIP3   OH241681   2.275   5.333   6.935 -0.0743  0.0011  0.0780
 5829TIP3    H141682   2.192   5.319   6.888 -0.5304 -0.5291  1.0017
 5829TIP3    H241683   2.253   5.397   7.003  0.2692 -0.1437  0.3263
 5830TIP3   OH241684   2.218   3.736   1.158 -0.0729 -0.4419  0.2164
 5830TIP3    H141685   2.200   3.829   1.174  0.9218 -0.3274  0.8112
 5830TIP3    H241686   2.180   3.718   1.072  1.2266  0.9856 -0.7233
 5831TIP3   OH241687   0.607   5.347   0.354 -0.6451 -0.3294  0.0511
 5831TIP3    H141688   0.547   5.395   0.411 -0.3929  1.1135 -0.8639
 5831TIP3    H241689   0.667   5.303   0.414 -1.8198 -0.7680  0.9482
 5832TIP3   OH241690   5.179   3.996   7.772 -0.2178 -0.1380  0.0799
 5832TIP3    H141691   5.268   3.962   7.768 -0.1301 -0.1372  1.5812
 5832TIP3    H241692   5.189   4.091   7.767 -0.0659 -0.1002  0.9956
 5833TIP3   OH241693   1.117   5.549   8.768  0.8498 -0.5434 -0.2810
 5833TIP3    H141694   1.056   5.537   8.841  0.4088 -1.0630 -0.7216
 5833TIP3    H241695   1.112   5.466   8.720 -0.2118  0.4292 -1.9111
 5834TIP3   OH241696   5.136   5.133   1.034 -0.1272 -0.0702  0.4371
 5834TIP3    H141697   5.040   5.136   1.029 -0.2941 -1.7232  1.7825
 5834TIP3    H241698   5.156   5.142   1.127  1.1037  1.0745  0.1002
 5835TIP3   OH241699   2.340   5.582   9.805 -0.5691 -0.6294  0.0541
 5835TIP3    H141700   2.343   5.669   9.844  1.4858 -0.3982 -0.5431
 5835TIP3    H241701   2.354   5.522   9.879  0.6981 -0.3147  0.0829
 5836TIP3   OH241702   3.009   1.397   8.163  0.1151  0.5059  0.0918
 5836TIP3    H141703   3.036   1.480   8.125  1.8365 -1.3208 -3.0633
 5836TIP3    H241704   3.086   1.368   8.213  0.1049  0.0834 -0.1386
 5837TIP3   OH241705   4.185   6.996   7.750  0.6211  0.3149  0.3595
 5837TIP3    H141706   4.230   6.921   7.788 -0.8644  0.2266  2.0489
 5837TIP3    H241707   4.137   6.960   7.675  0.1357 -0.3661  0.9979
 5838TIP3   OH241708   6.389   6.959   8.226  0.3522  0.4439 -0.8332
 5838TIP3    H141709   6.440   6.910   8.162 -0.1849 -0.3116 -0.7016
 5838TIP3    H241710   6.340   7.023   8.174  0.0606 -0.0405 -1.1603
 5839TIP3   OH241711   3.113   1.331   1.228 -0.3724  0.2644 -0.2167
 5839TIP3    H141712   3.108   1.311   1.321 -0.9071 -0.4527 -0.3874
 5839TIP3    H241713   3.204   1.360   1.214  0.1555 -1.1016  0.2509
 5840TIP3   OH241714   6.023   0.076   1.940  0.3539 -0.0789 -0.1683
 5840TIP3    H141715   6.064   0.084   2.026 -1.4826 -0.9236  0.8450
 5840TIP3    H241716   6.067   0.001   1.899  1.7511  0.7831 -0.3266
 5841TIP3   OH241717   2.181   1.071   2.704 -0.4900  0.1338  0.2127
 5841TIP3    H141718   2.211   1.121   2.628  1.7127  1.0952  1.6119
 5841TIP3    H241719   2.120   1.129   2.749 -1.4492 -0.2642 -0.5289
 5842TIP3   OH241720   4.588   3.854   8.320  0.0333 -0.2904 -0.0972
 5842TIP3    H141721   4.559   3.769   8.353  1.6784 -1.4234 -1.4698
 5842TIP3    H241722   4.510   3.892   8.280 -1.6356  0.4304  3.4227
 5843TIP3   OH241723   2.547   4.579   7.546  0.4484 -0.4282 -0.3792
 5843TIP3    H141724   2.502   4.521   7.607  0.0818  0.5807  0.3349
 5843TIP3    H241725   2.514   4.553   7.460  0.8923 -1.7972 -0.1634
 5844TIP3   OH241726   2.369   3.394   8.838  0.4549  0.2720 -0.4330
 5844TIP3    H141727   2.465   3.385   8.832  0.6132  1.9381 -0.9356
 5844TIP3    H241728   2.356   3.484   8.868 -0.9409 -0.4929  1.4292
 5845TIP3   OH241729   5.505   4.881   8.688  0.5672  0.1129  0.3935
 5845TIP3    H141730   5.464   4.903   8.605 -0.1734  0.2773  0.7967
 5845TIP3    H241731   5.440   4.830   8.736  0.9395  0.1161  0.9213
 5846TIP3   OH241732   5.924   2.139   2.296  0.0712  0.8435  0.9083
 5846TIP3    H141733   5.871   2.214   2.271 -0.3666  0.3337  0.2799
 5846TIP3    H241734   5.861   2.066   2.301  0.5872  0.3906  0.8828
 5847TIP3   OH241735   0.926   3.646   8.982 -0.7402  0.1012 -0.5254
 5847TIP3    H141736   0.876   3.653   8.900 -0.3032 -2.2870 -1.0790
 5847TIP3    H241737   0.876   3.583   9.035  0.4914 -0.5936 -0.1581
 5848TIP3   OH241738   5.669   4.145   0.680  0.0666 -0.1110  0.4305
 5848TIP3    H141739   5.624   4.099   0.750  0.5596 -0.7902  0.3159
 5848TIP3    H241740   5.759   4.155   0.711  0.8518 -2.2668 -0.8963
 5849TIP3   OH241741   1.626   6.900   0.478  0.5703 -0.3603  0.0456
 5849TIP3    H141742   1.590   6.872   0.395  1.4567 -0.1635 -0.4265
 5849TIP3    H241743   1.679   6.978   0.456  1.3191 -0.6731  0.6763
 5850TIP3   OH241744   1.584   2.916   0.427 -0.1885  0.9711  0.2297
 5850TIP3    H141745   1.634   2.986   0.468 -0.1025  1.4596 -0.6905
 5850TIP3    H241746   1.594   2.842   0.486 -1.3588  2.0847  1.9041
 5851TIP3   OH241747   4.426   1.929   0.604  0.0889  0.4114 -0.5842
 5851TIP3    H141748   4.383   1.885   0.531 -1.1463  4.3146 -2.5191
 5851TIP3    H241749   4.519   1.926   0.582 -0.1617  0.4946 -1.7207
 5852TIP3   OH241750   3.709   3.869   0.046 -0.2410 -0.0262 -0.4733
 5852TIP3    H141751   3.626   3.833   0.078  0.2577  0.5526  1.5987
 5852TIP3    H241752   3.683   3.935  -0.018 -1.5476  1.7064  1.7019
 5853TIP3   OH241753   2.788   6.097   0.006 -0.5627  0.6492 -0.4924
 5853TIP3    H141754   2.759   6.117  -0.083 -0.9635  1.4438 -0.1879
 5853TIP3    H241755   2.772   6.003   0.015 -1.4588  0.7458 -0.9202
 5854TIP3   OH241756   0.344   5.380   9.820 -0.5494 -0.3193 -0.2067
 5854TIP3    H141757   0.431   5.385   9.780 -1.5545 -1.3086 -2.7270
 5854TIP3    H241758   0.359   5.342   9.907  1.7624  1.8937  0.4738
 5855TIP3   OH241759   4.385   7.312   0.912  0.3464 -0.3399 -0.0992
 5855TIP3    H141760   4.387   7.232   0.859 -3.4076 -0.8976  0.3596
 5855TIP3    H241761   4.348   7.378   0.854 -1.8852 -0.4555  1.0731
 5856TIP3   OH241762   4.348   3.330   9.857 -0.3785 -0.1406  0.4982
 5856TIP3    H141763   4.263   3.314   9.897 -0.2915  0.0675  0.7658
 5856TIP3    H241764   4.330   3.333   9.763 -0.3600 -2.0605  0.3893
 5857TIP3   OH241765   2.539   5.187   6.178 -0.2397 -0.0652  0.2261
 5857TIP3    H141766   2.589   5.253   6.226 -1.7223 -0.0206  1.7730
 5857TIP3    H241767   2.460   5.233   6.148  1.0115  0.1839 -3.1787
 5858TIP3   OH241768   3.991   1.090   0.490  0.0092 -0.6524 -0.2327
 5858TIP3    H141769   3.982   0.998   0.465 -0.3009 -0.7103  0.0855
 5858TIP3    H241770   3.907   1.112   0.531  0.1598 -0.2880 -0.1170
 5859TIP3   OH241771   4.102   6.613   0.909  0.2580 -0.1584  0.0631
 5859TIP3    H141772   4.115   6.613   0.814 -0.7863 -0.2550 -0.0933
 5859TIP3    H241773   4.147   6.534   0.939  1.5220  0.4356 -0.2023
 5860TIP3   OH241774   5.331   2.863   7.960 -0.2053  0.3832 -0.7597
 5860TIP3    H141775   5.264   2.795   7.972 -0.6202  1.1695  1.9917
 5860TIP3    H241776   5.298   2.917   7.888 -0.5977 -1.4187 -1.9869
 5861TIP3   OH241777   6.224   1.938   9.651 -0.5544  0.0210  0.1268
 5861TIP3    H141778   6.233   1.851   9.690  0.0676  0.7487  1.6838
 5861TIP3    H241779   6.130   1.957   9.656 -0.3365  0.7799  2.9552
 5862TIP3   OH241780   3.619   4.801   9.958 -0.6243  0.5399  0.2537
 5862TIP3    H141781   3.568   4.833   9.884  0.3620 -0.5700 -0.9397
 5862TIP3    H241782   3.683   4.742   9.920  0.0704  0.1196  1.9743
 5863TIP3   OH241783   0.721   5.227   6.540 -0.3461  0.4334  1.0776
 5863TIP3    H141784   0.806   5.269   6.549 -0.2579  0.2655  1.0224
 5863TIP3    H241785   0.741   5.136   6.519 -0.4952  0.9882 -1.9540
 5864TIP3   OH241786   3.081   5.317   3.199  0.4941  0.4612 -0.4202
 5864TIP3    H141787   3.024   5.278   3.132  0.8597  0.6634 -0.8561
 5864TIP3    H241788   3.167   5.280   3.182  0.1900 -1.1683  1.3069
 5865TIP3   OH241789   4.607   3.997   2.235 -0.4094  0.1693  0.5362
 5865TIP3    H141790   4.602   4.045   2.152 -0.0831 -0.3577  0.2046
 5865TIP3    H241791   4.559   4.051   2.297  0.9466  1.5180  0.4503
 5866TIP3   OH241792   0.149   4.765   7.746  0.4453  0.4681 -0.2694
 5866TIP3    H141793   0.140   4.680   7.703  4.5998 -1.2147  1.5249
 5866TIP3    H241794   0.099   4.757   7.827 -1.3339  0.8131 -1.3039
 5867TIP3   OH241795   7.459   0.571   8.123  0.7313  0.2703 -0.4145
 5867TIP3    H141796   7.452   0.592   8.217 -0.5717 -0.8091 -0.2275
 5867TIP3    H241797   7.536   0.619   8.093  0.4978  1.5878  0.9492
 5868TIP3   OH241798   5.864   0.168   1.289  0.1226  0.4607  0.4171
 5868TIP3    H141799   5.825   0.080   1.288  1.0094  0.0145  2.2169
 5868TIP3    H241800   5.959   0.152   1.290  0.3284  1.4780 -0.6059
 5869TIP3   OH241801   5.437   4.885   7.349  0.0171 -0.0524 -0.3241
 5869TIP3    H141802   5.503   4.844   7.293 -1.4280  0.2424 -2.3660
 5869TIP3    H241803   5.354   4.870   7.303 -1.1594  0.9058  1.3761
 5870TIP3   OH241804   3.736   0.444   7.070 -0.4421  0.2298  0.2136
 5870TIP3    H141805   3.756   0.392   7.147  1.0513  1.0280  0.4066
 5870TIP3    H241806   3.641   0.459   7.074 -0.7054 -1.4346  0.7731
 5871TIP3   OH241807   4.881   4.087   2.664  0.0925  0.8052  0.1104
 5871TIP3    H141808   4.972   4.114   2.679 -0.3351  1.5666  1.4299
 5871TIP3    H241809   4.839   4.164   2.625 -0.3858  1.0429  1.0679
 5872TIP3   OH241810   4.604   6.704   0.176 -0.1175  0.3361 -0.2131
 5872TIP3    H141811   4.598   6.636   0.109 -1.8612 -0.5734  0.7870
 5872TIP3    H241812   4.515   6.741   0.180  0.3336  1.3597  0.5832
 5873TIP3   OH241813   2.334   0.383   0.985  0.0724  0.1812 -0.3780
 5873TIP3    H141814   2.256   0.336   1.013  1.2591 -1.3563  0.5586
 5873TIP3    H241815   2.349   0.354   0.895 -0.8811  1.1526 -0.8721
 5874TIP3   OH241816   4.611   0.203   0.388  0.1571 -0.1270 -0.4465
 5874TIP3    H141817   4.612   0.117   0.346  0.3017 -0.6432  0.5935
 5874TIP3    H241818   4.704   0.223   0.402  0.1040  0.0093 -0.2973
 5875TIP3   OH241819   1.773   4.792   7.675 -0.0753  0.4768 -0.3277
 5875TIP3    H141820   1.825   4.740   7.613  0.4330 -0.2382  0.6668
 5875TIP3    H241821   1.804   4.765   7.761 -0.6381  1.5833  0.2528
 5876TIP3   OH241822   5.047   3.002   8.979  0.0776  0.1942 -0.2529
 5876TIP3    H141823   5.081   2.941   9.045 -1.8645 -1.7692 -0.9510
 5876TIP3    H241824   4.984   3.056   9.026 -0.1310 -0.1246 -0.1636
 5877TIP3   OH241825   4.345   2.398   8.644  0.5596  0.4295  0.1552
 5877TIP3    H141826   4.389   2.335   8.700  0.8394 -0.0447 -0.5752
 5877TIP3    H241827   4.257   2.407   8.681  1.2053  1.2806  1.5395
 5878TIP3   OH241828   2.922   4.864   9.267  0.6819  0.2563  0.4316
 5878TIP3    H141829   2.897   4.805   9.338 -0.3595  0.6706  0.4250
 5878TIP3    H241830   2.840   4.881   9.220  0.8985  1.9672  0.6277
 5879TIP3   OH241831   3.571   7.179   9.849 -0.0230  0.0645 -0.0044
 5879TIP3    H141832   3.579   7.101   9.795  1.5982 -0.8394  1.4684
 5879TIP3    H241833   3.478   7.200   9.846 -0.1867 -0.6556 -2.0995
 5880TIP3   OH241834   1.699   4.557   2.489  0.1545 -0.0328  0.6511
 5880TIP3    H141835   1.633   4.608   2.536 -0.7989  1.3869 -1.9855
 5880TIP3    H241836   1.663   4.548   2.401  2.7901 -0.5766 -0.4555
 5881TIP3   OH241837   2.346   1.034   3.493 -0.0165  0.2374 -0.0700
 5881TIP3    H141838   2.389   0.991   3.419  0.3748 -0.4908  0.5755
 5881TIP3    H241839   2.299   1.108   3.453  0.0938 -0.2098 -1.0583
 5882TIP3   OH241840   1.762   3.870   0.345  0.4051  0.6273  0.3579
 5882TIP3    H141841   1.700   3.940   0.324  0.0924 -0.0581 -1.1051
 5882TIP3    H241842   1.842   3.894   0.298 -0.3852 -1.0592 -2.0786
 5883TIP3   OH241843   6.398   3.772   2.161 -0.0597 -0.5447  0.2133
 5883TIP3    H141844   6.312   3.730   2.157  0.1171 -0.9328  0.4905
 5883TIP3    H241845   6.433   3.765   2.073 -0.4376 -0.1149  0.0210
 5884TIP3   OH241846   2.572   1.426   2.277  0.8967 -0.2885  0.1648
 5884TIP3    H141847   2.540   1.484   2.346 -0.1706  1.0651 -1.3935
 5884TIP3    H241848   2.495   1.377   2.249 -0.2353  3.1436 -3.7711
 5885TIP3   OH241849   6.746   2.877   1.425  0.2706  0.1929  0.1053
 5885TIP3    H141850   6.831   2.911   1.397  0.2406 -0.2973 -0.5735
 5885TIP3    H241851   6.684   2.947   1.402  0.6976  1.4125  2.3482
 5886TIP3   OH241852   4.369   4.695   9.085  0.0588 -0.5048 -0.6327
 5886TIP3    H141853   4.372   4.628   9.153  2.2880 -1.0183 -1.1534
 5886TIP3    H241854   4.437   4.757   9.108 -0.9123  0.7460 -1.0236
 5887TIP3   OH241855   6.816   6.379   0.709  0.3020  0.2520  0.2977
 5887TIP3    H141856   6.791   6.350   0.622 -1.9025 -0.6628  1.1633
 5887TIP3    H241857   6.741   6.430   0.740  0.0536 -1.2495  2.4337
 5888TIP3   OH241858   4.950   4.543   2.493 -0.0846 -0.7070  0.7410
 5888TIP3    H141859   4.979   4.458   2.461  0.2197 -0.4262  0.2680
 5888TIP3    H241860   4.880   4.569   2.433  0.2677 -0.3278  0.4872
 5889TIP3   OH241861   2.223   2.564   9.085  1.2633  0.5129  0.8495
 5889TIP3    H141862   2.174   2.644   9.065  1.5191  0.5925  0.5428
 5889TIP3    H241863   2.179   2.528   9.162  0.2605  0.1845  0.1401
 5890TIP3   OH241864   2.010   6.942   7.620  0.1853 -0.1003 -0.5211
 5890TIP3    H141865   1.958   6.862   7.627 -1.0057  0.3229 -3.2357
 5890TIP3    H241866   2.074   6.924   7.552  1.5948  0.4809  0.5810
 5891TIP3   OH241867   3.852   5.655   2.677 -0.2717 -0.2547 -0.8472
 5891TIP3    H141868   3.861   5.560   2.687  2.3692 -0.0209 -0.0840
 5891TIP3    H241869   3.790   5.681   2.745  1.5699 -1.1184  1.2821
 5892TIP3   OH241870   4.412   0.590   2.384 -0.0884 -0.1442 -0.2828
 5892TIP3    H141871   4.450   0.548   2.461 -0.9452 -0.2244  0.1152
 5892TIP3    H241872   4.349   0.652   2.420 -1.0733 -0.7489 -0.9257
 5893TIP3   OH241873   3.584   0.134   9.512 -0.1231 -0.0192 -0.2782
 5893TIP3    H141874   3.549   0.139   9.423 -0.8507 -1.1414 -0.0891
 5893TIP3    H241875   3.514   0.169   9.567  0.0357  0.0018 -0.0879
 5894TIP3   OH241876   0.909   6.149   7.324 -0.0310 -0.3977 -0.3804
 5894TIP3    H141877   1.003   6.135   7.335  0.2091  1.3750  0.1606
 5894TIP3    H241878   0.870   6.114   7.404  0.3367  0.1578  0.0538
 5895TIP3   OH241879   3.790   6.802   1.753 -0.1277  0.2131 -0.0283
 5895TIP3    H141880   3.848   6.788   1.828  0.2543  0.0750 -0.3467
 5895TIP3    H241881   3.801   6.894   1.731 -0.1637  0.2294  0.0207
 5896TIP3   OH241882   3.778   1.174   7.900 -0.2546 -0.1920 -0.3549
 5896TIP3    H141883   3.764   1.187   7.806 -0.0744  1.1160 -0.2167
 5896TIP3    H241884   3.868   1.201   7.914 -0.6582  0.7915  0.3978
 5897TIP3   OH241885   6.395   5.297   8.992 -0.0223  0.5681  0.6227
 5897TIP3    H141886   6.313   5.314   9.038  0.3166  0.8694  1.1180
 5897TIP3    H241887   6.412   5.377   8.942 -0.6785  0.0379 -0.4924
 5898TIP3   OH241888   3.127   2.625   0.703 -0.7080 -0.1678 -0.3839
 5898TIP3    H141889   3.158   2.664   0.621 -0.5608 -1.6151 -1.0365
 5898TIP3    H241890   3.034   2.607   0.687 -0.8299  0.1086 -0.0031
 5899TIP3   OH241891   3.635   5.271   9.936  0.0104 -0.3139  0.4414
 5899TIP3    H141892   3.620   5.366   9.931 -0.6180 -0.4551 -2.8358
 5899TIP3    H241893   3.731   5.263   9.935  0.1454  0.2517  2.9318
 5900TIP3   OH241894   1.299   4.798   0.833  1.0690 -0.7390  0.0541
 5900TIP3    H141895   1.380   4.772   0.876  1.7949  0.8224 -0.2974
 5900TIP3    H241896   1.288   4.735   0.762  2.9546  0.0526 -1.0142
 5901TIP3   OH241897   5.133   4.154   9.877 -0.2351  0.2774 -0.2372
 5901TIP3    H141898   5.067   4.207   9.834  0.3387  1.2462  0.0388
 5901TIP3    H241899   5.104   4.064   9.865 -2.0037  0.6994  0.5247
 5902TIP3   OH241900   7.352   5.085   2.857  0.0167  0.2856  0.0905
 5902TIP3    H141901   7.354   5.121   2.946  1.4064  0.9559 -0.1771
 5902TIP3    H241902   7.260   5.087   2.833 -0.3658  0.2469  1.4561
 5903TIP3   OH241903   4.339   5.028   0.970  0.2681  0.5958  0.1448
 5903TIP3    H141904   4.372   5.041   0.881  1.3455  0.6648  0.5345
 5903TIP3    H241905   4.368   5.106   1.018  1.7265 -0.4796  1.0986
 5904TIP3   OH241906   0.014   0.567   9.128  0.0405 -0.1240  0.0953
 5904TIP3    H141907  -0.030   0.588   9.046 -1.0664 -0.8051  0.4959
 5904TIP3    H241908  -0.045   0.506   9.173  0.3620  0.6421  1.6377
 5905TIP3   OH241909   1.257   2.372   1.233 -0.3237 -0.4546  0.3218
 5905TIP3    H141910   1.185   2.424   1.269  0.6097  2.0025 -1.1109
 5905TIP3    H241911   1.219   2.330   1.156 -0.6909 -0.6785  0.6173
 5906TIP3   OH241912   1.274   3.742   1.154  0.2813  0.1394  1.2122
 5906TIP3    H141913   1.271   3.682   1.079  0.1442  0.9972  0.5143
 5906TIP3    H241914   1.203   3.712   1.211 -1.9173  1.5020 -0.6111
 5907TIP3   OH241915   0.741   1.035   2.167  0.2678  0.3833  0.0317
 5907TIP3    H141916   0.727   1.053   2.260 -2.6137 -2.7272  0.3754
 5907TIP3    H241917   0.656   1.051   2.126  1.3080  1.0440 -2.0344
 5908TIP3   OH241918   4.861   1.519   1.111 -0.4224  0.0130 -0.0370
 5908TIP3    H141919   4.866   1.526   1.206 -0.7736 -1.2334  0.0943
 5908TIP3    H241920   4.817   1.435   1.095  0.6305 -0.3473 -1.2911
 5909TIP3   OH241921   2.884   0.154   2.154  0.6730  0.4475 -0.3791
 5909TIP3    H141922   2.824   0.124   2.086  1.7860  0.3947 -1.3519
 5909TIP3    H241923   2.862   0.246   2.167 -0.7609  0.0203  0.5185
 5910TIP3   OH241924   2.273   0.648   0.995  0.0460  0.0466  0.0049
 5910TIP3    H141925   2.303   0.557   1.001 -0.1963 -0.1723 -1.8206
 5910TIP3    H241926   2.333   0.689   0.933  0.3720  1.2565  1.0695
 5911TIP3   OH241927   6.634   7.101   1.044 -0.5491  0.1410  0.7588
 5911TIP3    H141928   6.545   7.111   1.009 -0.2899  0.2504  0.1133
 5911TIP3    H241929   6.690   7.097   0.966 -0.1693 -1.9019  1.0823
 5912TIP3   OH241930   2.668   4.645   8.118  0.1317  0.2546 -0.3864
 5912TIP3    H141931   2.645   4.680   8.032  0.3825  1.0929 -0.1241
 5912TIP3    H241932   2.651   4.551   8.111  0.2494  0.2934 -1.3842
 5913TIP3   OH241933   2.642   3.003   9.087  0.7003 -0.3266  0.1773
 5913TIP3    H141934   2.586   3.039   9.018 -0.1198 -0.2206  0.8782
 5913TIP3    H241935   2.690   3.079   9.121  2.2094 -0.6010 -1.2334
 5914TIP3   OH241936   6.969   1.506   8.514  0.2342 -0.4550  0.6111
 5914TIP3    H141937   7.019   1.425   8.525  1.0725 -0.3053 -1.6727
 5914TIP3    H241938   7.007   1.548   8.437 -2.5046  0.3573 -0.4318
 5915TIP3   OH241939   4.727   5.745   1.264  0.8112 -0.1307  0.2694
 5915TIP3    H141940   4.810   5.711   1.297 -0.1145 -1.3992  1.4060
 5915TIP3    H241941   4.711   5.696   1.183  0.7164 -0.5522  0.5456
 5916TIP3   OH241942   5.206   4.493   9.027  0.3846 -0.4786  0.3324
 5916TIP3    H141943   5.295   4.463   9.047  0.9636 -0.1804 -1.5834
 5916TIP3    H241944   5.189   4.562   9.091  1.3940 -0.7670  0.9328
 5917TIP3   OH241945   4.913   7.432   8.513  0.1225  0.1897  0.2972
 5917TIP3    H141946   4.901   7.501   8.578  0.9094 -0.5234  1.2276
 5917TIP3    H241947   4.990   7.384   8.542  0.6635 -0.0012 -1.3173
 5918TIP3   OH241948   3.048   1.647   0.557 -0.2170  0.4102  0.0203
 5918TIP3    H141949   3.004   1.653   0.642  0.6048 -0.4548  0.5270
 5918TIP3    H241950   3.141   1.649   0.579  0.0494  2.8802 -1.0767
 5919TIP3   OH241951   2.648   3.570   8.685  0.0667  0.4527 -0.0930
 5919TIP3    H141952   2.673   3.587   8.594  0.7273 -1.1285 -0.2298
 5919TIP3    H241953   2.659   3.476   8.696  1.0104  0.7457  1.9234
 5920TIP3   OH241954   1.398   1.757   8.032  0.2990  0.1440 -0.1191
 5920TIP3    H141955   1.460   1.748   8.105 -1.2152 -1.1915  1.1043
 5920TIP3    H241956   1.345   1.833   8.055  0.6064  0.4676 -0.4724
 5921TIP3   OH241957   1.564   0.090   6.656  0.3034  0.0670  0.3882
 5921TIP3    H141958   1.568   0.162   6.719 -0.3992  0.1435  0.3546
 5921TIP3    H241959   1.473   0.062   6.658 -0.1797  1.2563 -1.8872
 5922TIP3   OH241960   4.828   6.216   9.759 -0.1426  0.7547 -0.3654
 5922TIP3    H141961   4.767   6.163   9.811 -0.0449  0.8817 -0.1232
 5922TIP3    H241962   4.772   6.281   9.716  0.0108  2.0069  1.2297
 5923TIP3   OH241963   3.528   4.042   7.332 -0.2872 -0.2673  0.5615
 5923TIP3    H141964   3.613   4.043   7.374  0.1480 -0.8514 -0.2798
 5923TIP3    H241965   3.477   3.978   7.381  0.4378 -1.4644 -0.1917
 5924TIP3   OH241966   4.543   5.351   8.430 -0.0784  0.4965  0.1757
 5924TIP3    H141967   4.532   5.272   8.377 -1.6751  1.7232 -1.4821
 5924TIP3    H241968   4.615   5.398   8.388  0.3725  0.2851  0.7014
 5925TIP3   OH241969   3.115   2.407   7.685 -0.3024  0.5079 -0.7250
 5925TIP3    H141970   3.107   2.312   7.679  1.1013  0.1151  1.8915
 5925TIP3    H241971   3.077   2.429   7.771  1.3716  1.9637 -0.2855
 5926TIP3   OH241972   5.182   0.678   8.956  0.4868  0.0917 -0.0517
 5926TIP3    H141973   5.218   0.675   8.867  1.1180  1.9645  0.1010
 5926TIP3    H241974   5.258   0.690   9.012  0.0657 -0.8381  0.7481
 5927TIP3   OH241975   4.588   1.241   1.771  0.2914 -0.4302 -0.0335
 5927TIP3    H141976   4.493   1.240   1.763  0.1567  1.2420  0.8950
 5927TIP3    H241977   4.604   1.212   1.861  0.6077  0.0517  0.0657
 5928TIP3   OH241978   6.496   4.820   8.715  0.1583  0.2453 -0.2409
 5928TIP3    H141979   6.466   4.763   8.645 -0.2200  0.8721 -0.5956
 5928TIP3    H241980   6.523   4.901   8.671 -1.4045  1.1849  0.4462
 5929TIP3   OH241981   2.940   6.551   9.600  0.0307  0.0750  0.2554
 5929TIP3    H141982   2.975   6.550   9.689 -0.9679  0.4314  0.6794
 5929TIP3    H241983   2.850   6.519   9.610  0.6374 -2.1694 -0.9888
 5930TIP3   OH241984   7.250   6.891   2.416 -0.5835 -0.6038 -0.4586
 5930TIP3    H141985   7.338   6.858   2.398 -0.0236 -0.8866  2.3363
 5930TIP3    H241986   7.225   6.849   2.499 -2.2522  1.5138  0.1981
 5931TIP3   OH241987   4.185   1.781   7.990  0.1737  0.1815 -0.3348
 5931TIP3    H141988   4.130   1.845   8.036  1.0962  0.6927  0.0867
 5931TIP3    H241989   4.266   1.829   7.971  0.4461 -0.5345 -1.0091
 5932TIP3   OH241990   4.559   6.311   8.534 -0.1720 -0.0954 -0.4244
 5932TIP3    H141991   4.636   6.342   8.582 -0.8727 -0.0917  0.7453
 5932TIP3    H241992   4.548   6.221   8.563 -1.4454  0.3435  0.5946
 5933TIP3   OH241993   1.387   4.570   7.825 -0.7962  0.1171  0.1071
 5933TIP3    H141994   1.420   4.515   7.753  0.5670  1.5444 -0.4185
 5933TIP3    H241995   1.292   4.561   7.820 -0.6280 -2.2287  0.0963
 5934TIP3   OH241996   3.543   0.821   8.307  0.0884  0.0963  0.3361
 5934TIP3    H141997   3.539   0.786   8.218  0.1284 -1.5321  0.9451
 5934TIP3    H241998   3.459   0.799   8.346 -0.4666  1.9926  0.3212
 5935TIP3   OH241999   0.553   5.963   1.509  0.0548 -0.4413  0.2098
 5935TIP3    H142000   0.615   5.891   1.499  1.3009  0.4317  1.1906
 5935TIP3    H242001   0.607   6.042   1.502 -0.9511  0.3538  1.0545
 5936TIP3   OH242002   5.246   3.278   1.207 -0.2154  0.3082  0.4914
 5936TIP3    H142003   5.263   3.259   1.299  1.5552  0.8785  0.3181
 5936TIP3    H242004   5.279   3.202   1.160  0.1240  0.5952  0.2588
 5937TIP3   OH242005   0.261   0.388   1.761  0.2535 -0.5256  0.1905
 5937TIP3    H142006   0.229   0.385   1.852  1.6375  1.7193  0.8308
 5937TIP3    H242007   0.204   0.451   1.718 -0.1703 -1.3190 -0.4470
 5938TIP3   OH242008   5.996   0.537   2.606  0.1704 -0.5033 -0.2796
 5938TIP3    H142009   6.029   0.612   2.656  0.4688 -0.0215 -1.1612
 5938TIP3    H242010   5.916   0.512   2.651 -0.2997  0.7863 -0.3404
 5939TIP3   OH242011   0.312   3.655   0.247  0.2579 -0.0945 -0.2359
 5939TIP3    H142012   0.358   3.716   0.305  1.8417  0.3442 -1.8528
 5939TIP3    H242013   0.292   3.707   0.169 -0.9017 -0.9399 -0.5267
 5940TIP3   OH242014   2.634   3.315   8.750  0.5032 -0.8370 -0.3900
 5940TIP3    H142015   2.725   3.287   8.760  0.5268 -0.6184  0.0555
 5940TIP3    H242016   2.587   3.236   8.727  0.9480 -0.7807 -1.5375
 5941TIP3   OH242017   7.204   1.644   7.768  0.1968  0.5616  0.2537
 5941TIP3    H142018   7.125   1.697   7.782 -1.6081 -1.9002  0.2429
 5941TIP3    H242019   7.251   1.649   7.852 -0.8167  0.8478  0.8271
 5942TIP3   OH242020   3.887   6.654   1.064 -0.6792  0.4047  0.4041
 5942TIP3    H142021   3.955   6.645   0.997 -1.3071  0.8910 -0.3169
 5942TIP3    H242022   3.883   6.568   1.106  0.2441  0.3116  0.3285
 5943TIP3   OH242023   2.339   4.224   9.496 -0.2928  0.0143  0.5408
 5943TIP3    H142024   2.253   4.260   9.520 -0.8298 -0.0318 -1.1369
 5943TIP3    H242025   2.359   4.161   9.565 -0.5244  1.6533  2.1691
 5944TIP3   OH242026   1.614   3.360   9.587 -0.0018  0.0198  0.3625
 5944TIP3    H142027   1.630   3.267   9.569  1.0515 -0.1948  2.1960
 5944TIP3    H242028   1.554   3.360   9.661 -0.4683  0.8180 -0.0094
 5945TIP3   OH242029   3.451   2.842   8.064  0.1670  0.4617 -0.1269
 5945TIP3    H142030   3.366   2.881   8.044  1.0538  1.5102 -2.1323
 5945TIP3    H242031   3.492   2.904   8.125  0.0561  0.6920 -0.2871
 5946TIP3   OH242032   0.250   6.276   8.292 -0.1149  0.4443  0.1191
 5946TIP3    H142033   0.161   6.279   8.329 -0.4992  0.6055 -0.7847
 5946TIP3    H242034   0.241   6.316   8.206  0.3837 -1.5358 -0.9044
 5947TIP3   OH242035   3.626   6.673   9.892  0.3570  0.7531  0.2029
 5947TIP3    H142036   3.612   6.760   9.929 -1.0000  0.9452 -0.6605
 5947TIP3    H242037   3.684   6.687   9.817  1.3437  0.6781  0.9363
 5948TIP3   OH242038   6.426   5.657   0.223  0.8392  0.1740  0.4967
 5948TIP3    H142039   6.415   5.752   0.215  0.7259  0.3500  2.2439
 5948TIP3    H242040   6.387   5.636   0.308  2.8442 -1.0971  1.1786
 5949TIP3   OH242041   5.465   4.188   8.546  0.5967 -0.5550 -0.7261
 5949TIP3    H142042   5.438   4.097   8.544 -0.6191 -0.2689  0.5735
 5949TIP3    H242043   5.384   4.238   8.536  1.1695  0.3830 -0.8675
 5950TIP3   OH242044   6.434   1.313   9.644 -0.1641 -0.6129 -0.3642
 5950TIP3    H142045   6.467   1.378   9.582  2.8066 -0.2604  1.3488
 5950TIP3    H242046   6.495   1.239   9.636 -0.3452 -0.9896  1.3078
 5951TIP3   OH242047   6.144   1.935   0.404  0.2642 -0.0765  0.2058
 5951TIP3    H142048   6.216   1.901   0.458  0.1131  0.2179  0.5934
 5951TIP3    H242049   6.111   1.857   0.358  0.7834 -0.2274  0.0695
 5952TIP3   OH242050   1.634   4.209   1.634 -0.5466 -0.0717  0.0432
 5952TIP3    H142051   1.600   4.244   1.716 -0.9950  0.6213 -0.4173
 5952TIP3    H242052   1.574   4.138   1.611 -0.1802 -0.5392  0.5161
 5953TIP3   OH242053   6.339   5.420   0.730  0.3146  0.4001  0.1327
 5953TIP3    H142054   6.426   5.455   0.710  1.1862 -1.4130  0.5019
 5953TIP3    H242055   6.357   5.336   0.774 -1.6239 -0.0192  0.2016
 5954TIP3   OH242056   3.094   6.870   1.167  0.3689 -0.5335  0.4922
 5954TIP3    H142057   3.145   6.909   1.096  0.1314 -1.8847 -0.4558
 5954TIP3    H242058   3.009   6.912   1.162  0.3888 -0.5407  0.0367
 5955TIP3   OH242059   4.671   2.984   8.814  0.1965  0.0664 -0.0337
 5955TIP3    H142060   4.711   2.918   8.870  1.5897  0.1888 -0.8468
 5955TIP3    H242061   4.728   2.988   8.737 -1.0927  0.6367 -0.9939
 5956TIP3   OH242062   5.627   3.835   7.847 -0.0329 -0.0378  0.5716
 5956TIP3    H142063   5.721   3.826   7.828 -0.2590  0.0268 -0.6862
 5956TIP3    H242064   5.624   3.868   7.937  1.1217 -0.7573  0.9006
 5957TIP3   OH242065   4.575   2.483   8.457  0.0614  0.0348 -0.2812
 5957TIP3    H142066   4.490   2.506   8.420 -1.6190 -1.7798  2.1798
 5957TIP3    H242067   4.584   2.539   8.534  0.1544 -1.1365  0.5862
 5958TIP3   OH242068   6.728   1.325   0.629 -0.1758 -0.6876 -0.4836
 5958TIP3    H142069   6.690   1.402   0.671  0.3322 -1.0287  0.6276
 5958TIP3    H242070   6.779   1.361   0.556 -0.7730 -0.0581 -0.6029
 5959TIP3   OH242071   3.808   6.773   8.352 -0.5163 -0.2519  0.0673
 5959TIP3    H142072   3.745   6.701   8.363  2.1147 -2.6973  0.3629
 5959TIP3    H242073   3.828   6.772   8.258  0.0329 -0.3861  0.1836
 5960TIP3   OH242074   3.397   1.874   7.697 -0.0495  0.5956 -0.2037
 5960TIP3    H142075   3.319   1.818   7.691  0.1191  0.3409 -0.0078
 5960TIP3    H242076   3.406   1.911   7.609 -0.5619  0.8558 -0.1510
 5961TIP3   OH242077   4.938   5.602   9.283 -0.4373 -0.3957 -0.4773
 5961TIP3    H142078   4.848   5.631   9.296 -0.7232 -1.0977 -0.8494
 5961TIP3    H242079   4.990   5.683   9.285 -0.7522 -0.1641  2.1441
 5962TIP3   OH242080   4.287   3.722   0.345  0.2750 -0.1924  0.0252
 5962TIP3    H142081   4.370   3.676   0.337 -1.0973 -2.8904 -0.0506
 5962TIP3    H242082   4.260   3.739   0.255  0.6283  0.4784  0.0434
 5963TIP3   OH242083   1.887   1.256   7.573 -0.1663  0.0842  0.5056
 5963TIP3    H142084   1.904   1.237   7.481 -1.9046  1.0713 -0.0737
 5963TIP3    H242085   1.942   1.332   7.592  0.2797 -0.1868  0.3353
 5964TIP3   OH242086   6.966   0.325   8.193  0.3028  0.2820 -0.5502
 5964TIP3    H142087   6.995   0.267   8.263 -2.0165 -1.5794 -0.9715
 5964TIP3    H242088   7.021   0.403   8.200  1.4733 -0.6898  2.0204
 5965TIP3   OH242089   1.745   5.671   3.362  0.0593 -0.7274  0.1574
 5965TIP3    H142090   1.811   5.706   3.302 -0.6777  0.8360  0.2106
 5965TIP3    H242091   1.678   5.739   3.366 -0.2043 -1.0541  2.2987
 5966TIP3   OH242092   3.538   1.868   1.804 -0.0300 -0.4796  0.0899
 5966TIP3    H142093   3.467   1.846   1.864  0.9786 -1.4645  0.9828
 5966TIP3    H242094   3.512   1.832   1.720 -0.8248 -0.3448  0.2750
 5967TIP3   OH242095   0.341   3.448   2.121  0.0722 -0.0403 -0.1716
 5967TIP3    H142096   0.266   3.439   2.062 -0.3495 -1.5934  0.5632
 5967TIP3    H242097   0.303   3.444   2.208  0.9217  0.1346  0.2106
 5968TIP3   OH242098   4.289   6.060   1.445  0.7452 -0.4591 -0.4216
 5968TIP3    H142099   4.243   6.049   1.362  1.3666  1.0897 -1.0236
 5968TIP3    H242100   4.238   6.126   1.492  2.5054  1.6515 -1.3068
 5969TIP3   OH242101   3.555   1.489   0.463  0.3647 -0.6635 -0.1628
 5969TIP3    H142102   3.461   1.475   0.473  0.2019  0.1634 -0.4852
 5969TIP3    H242103   3.593   1.454   0.543 -0.1221 -1.8606 -0.4321
 5970TIP3   OH242104   4.281   0.870   1.975 -0.2000  0.6420 -0.1795
 5970TIP3    H142105   4.277   0.949   1.921  1.2723  0.8884  0.0255
 5970TIP3    H242106   4.371   0.838   1.964 -0.4983 -0.4925  0.4686
 5971TIP3   OH242107   5.787   4.635   8.186 -0.4205 -0.5578 -0.6903
 5971TIP3    H142108   5.854   4.701   8.201 -0.1592 -1.1725  1.0343
 5971TIP3    H242109   5.704   4.683   8.190 -0.3679 -0.5463  2.6640
 5972TIP3   OH242110   2.709   2.114   7.637 -0.1567 -0.0110  0.0792
 5972TIP3    H142111   2.619   2.142   7.652  0.2729  0.9348  1.0722
 5972TIP3    H242112   2.758   2.196   7.628  0.4703 -0.5223 -1.3605
 5973TIP3   OH242113   3.822   1.417   2.919 -0.5318 -1.5093  0.6711
 5973TIP3    H142114   3.915   1.431   2.900 -0.7506 -0.5146  0.2808
 5973TIP3    H242115   3.777   1.445   2.839 -1.4142  1.7633  2.1741
 5974TIP3   OH242116   0.115   4.922   2.807 -0.6104 -0.2237 -0.0034
 5974TIP3    H142117   0.029   4.962   2.821 -0.3133  0.2076  0.6823
 5974TIP3    H242118   0.176   4.996   2.811 -0.3268 -0.3183 -1.9811
 5975TIP3   OH242119   2.688   5.073   6.528  0.2598  0.2702 -0.0524
 5975TIP3    H142120   2.621   5.139   6.510  0.3357 -0.1210 -2.0028
 5975TIP3    H242121   2.771   5.120   6.517  0.3105  0.1661 -0.1089
 5976TIP3   OH242122   3.275   2.815   1.236  0.2653 -0.1240 -0.4148
 5976TIP3    H142123   3.183   2.811   1.261  0.4248  0.3284  0.2748
 5976TIP3    H242124   3.322   2.827   1.318  1.1396 -2.5390 -0.4661
 5977TIP3   OH242125   1.683   2.578   0.057  0.1465  0.7599  0.0028
 5977TIP3    H142126   1.675   2.637  -0.018  0.0161  1.2340  0.3834
 5977TIP3    H242127   1.770   2.597   0.093 -0.3422  1.5391  0.8013
 5978TIP3   OH242128   6.826   2.987   0.079 -0.2318 -0.1745 -0.0354
 5978TIP3    H142129   6.881   2.982   0.157  0.2362 -1.9194 -0.4331
 5978TIP3    H242130   6.741   2.952   0.107 -0.3118 -0.0333 -0.0999
 5979TIP3   OH242131   4.350   6.398   8.006  0.2093 -0.3218 -0.0759
 5979TIP3    H142132   4.418   6.458   7.975  0.7794 -1.0061 -0.1899
 5979TIP3    H242133   4.284   6.398   7.937 -0.0887  0.6248  0.1970
 5980TIP3   OH242134   3.017   4.944   0.888 -0.0850 -0.4256 -0.4613
 5980TIP3    H142135   3.095   4.930   0.942 -0.1548 -0.8194 -0.4583
 5980TIP3    H242136   2.995   5.036   0.901  1.2886  0.1100 -1.6636
 5981TIP3   OH242137   4.803   1.630   8.837 -0.2458 -0.1637 -0.2051
 5981TIP3    H142138   4.885   1.581   8.847 -0.6075 -0.5589  0.9331
 5981TIP3    H242139   4.824   1.698   8.772 -0.0765 -2.5427 -2.8039
 5982TIP3   OH242140   0.696   3.783   1.066 -0.0639  0.1288  0.6933
 5982TIP3    H142141   0.782   3.740   1.062 -0.4187 -0.5973  0.7306
 5982TIP3    H242142   0.704   3.845   1.138  0.2129 -0.4427  1.1694
 5983TIP3   OH242143   3.202   0.621   8.954  0.7152 -0.0785  0.4246
 5983TIP3    H142144   3.132   0.557   8.942 -1.2435  1.9820  0.2153
 5983TIP3    H242145   3.239   0.633   8.867  0.5490 -0.3364  0.3181
 5984TIP3   OH242146   6.080   2.703   2.072  0.5112 -0.1238  0.9105
 5984TIP3    H142147   6.112   2.618   2.103 -0.1813 -0.3311  1.0585
 5984TIP3    H242148   6.020   2.733   2.140  0.0813  0.0847  0.4445
 5985TIP3   OH242149   0.535   5.513   2.224 -0.1786 -0.3098  0.4050
 5985TIP3    H142150   0.549   5.575   2.296  0.1169 -0.9982  0.9487
 5985TIP3    H242151   0.442   5.521   2.203 -0.2302  0.0173  0.7538
 5986TIP3   OH242152   5.700   2.562   0.389  0.1419  0.0124 -0.2331
 5986TIP3    H142153   5.782   2.608   0.372  0.3488  0.3441  1.4383
 5986TIP3    H242154   5.711   2.524   0.476 -0.3511 -2.5353 -1.1896
 5987TIP3   OH242155   2.088   6.848   0.720  0.2681 -0.3260 -0.1639
 5987TIP3    H142156   2.078   6.930   0.768  0.2741  0.6726 -1.7796
 5987TIP3    H242157   2.002   6.807   0.726  0.4713 -0.6055  1.2929
 5988TIP3   OH242158   3.419   4.287   7.287  0.0236  0.1935  0.2869
 5988TIP3    H142159   3.387   4.279   7.197 -1.1760 -0.7152  0.7696
 5988TIP3    H242160   3.471   4.207   7.300  0.4340  0.4610  0.3256
 5989TIP3   OH242161   0.676   2.866   2.900  0.1854  0.5402  0.0662
 5989TIP3    H142162   0.729   2.804   2.950  1.3581  0.2063 -1.5262
 5989TIP3    H242163   0.588   2.859   2.938  0.5154 -1.3770  0.5591
 5990TIP3   OH242164   7.364   5.253   9.040 -0.2516 -0.1683  0.0992
 5990TIP3    H142165   7.447   5.287   9.074 -0.8021  0.6753  0.6342
 5990TIP3    H242166   7.299   5.317   9.068 -0.9503 -0.3096 -1.1684
 5991TIP3   OH242167   2.987   6.842   7.554 -0.3730  0.6999 -0.0383
 5991TIP3    H142168   3.020   6.801   7.474  0.7858 -2.0150  1.6944
 5991TIP3    H242169   2.892   6.840   7.544 -0.2958 -0.8730 -0.7947
 5992TIP3   OH242170   2.267   1.104   9.707 -0.0326 -0.1149 -0.4179
 5992TIP3    H142171   2.250   1.167   9.777 -2.0812 -1.5083  0.4655
 5992TIP3    H242172   2.360   1.115   9.686  0.8725 -0.0495  2.9924
 5993TIP3   OH242173   3.685   1.037   0.108  0.6979  0.9141 -0.4448
 5993TIP3    H142174   3.596   1.020   0.077  0.5050  0.6142  0.2625
 5993TIP3    H242175   3.677   1.113   0.166  0.4464 -0.6042  1.6390
 5994TIP3   OH242176   3.468   2.076   0.038 -0.5972 -0.1562  0.1529
 5994TIP3    H142177   3.414   2.113  -0.032  1.5366  0.4089 -1.3082
 5994TIP3    H242178   3.547   2.131   0.039  0.7551 -1.9976  0.9467
 5995TIP3   OH242179   1.730   2.722   9.820  0.4120  0.4060 -0.1519
 5995TIP3    H142180   1.779   2.668   9.758  1.0005  1.2238 -0.4282
 5995TIP3    H242181   1.770   2.809   9.811  0.5546  0.5216  1.4272
 5996TIP3   OH242182   0.585   5.455   9.282 -0.7993 -0.2789 -0.4330
 5996TIP3    H142183   0.628   5.399   9.217 -2.3995 -0.4638 -1.3909
 5996TIP3    H242184   0.516   5.499   9.233 -0.3602  1.6467  0.5778
 5997TIP3   OH242185   0.730   5.998   1.762 -0.4698 -0.2312  0.1837
 5997TIP3    H142186   0.641   5.983   1.730  0.3532 -0.6196 -2.1378
 5997TIP3    H242187   0.786   5.959   1.695  1.4772  1.1221  0.9315
 5998TIP3   OH242188   2.979   5.649   1.897 -0.3016 -0.4836  0.1662
 5998TIP3    H142189   3.061   5.674   1.939 -0.8012  0.1414  0.7910
 5998TIP3    H242190   3.006   5.593   1.824  0.7966  0.8742 -0.5307
 5999TIP3   OH242191   1.922   4.058   9.989 -0.0138 -0.0871 -0.1677
 5999TIP3    H142192   1.922   4.060   9.893  1.6365 -2.9571 -0.3383
 5999TIP3    H242193   1.902   3.967  10.011  0.1561  0.3858  2.2197
 6000TIP3   OH242194   1.767   1.066   1.583 -0.2455 -0.2476  0.4973
 6000TIP3    H142195   1.859   1.061   1.557 -0.7565  0.9232 -1.8934
 6000TIP3    H242196   1.721   1.014   1.517 -1.3199 -0.7802  1.6293
 6001TIP3   OH242197   1.723   1.706   8.429 -0.1623  0.2790 -1.0317
 6001TIP3    H142198   1.752   1.780   8.481  1.3069 -1.4345  0.7654
 6001TIP3    H242199   1.643   1.676   8.472 -0.6305  0.6460 -1.6223
 6002TIP3   OH242200   7.250   0.927   2.231  0.0512  0.3881  0.4723
 6002TIP3    H142201   7.303   0.915   2.309 -1.1084 -0.9519  1.1018
 6002TIP3    H242202   7.244   0.840   2.192  0.9921  1.0929 -1.4208
 6003TIP3   OH242203   7.301   0.653   2.421  0.1236  0.0486 -0.4581
 6003TIP3    H142204   7.317   0.609   2.505 -1.1741  1.6481  0.6938
 6003TIP3    H242205   7.331   0.743   2.435 -1.5371  0.7507 -1.1671
 6004TIP3   OH242206   2.228   5.273   0.425 -0.0336  0.2696  0.0432
 6004TIP3    H142207   2.173   5.321   0.363  0.4402  4.2194  2.3033
 6004TIP3    H242208   2.183   5.190   0.438 -2.2631  0.9355 -2.5134
 6005TIP3   OH242209   3.009   0.303   9.537 -0.3728 -0.4011  0.1631
 6005TIP3    H142210   3.104   0.318   9.531 -0.1971 -1.2989  0.4485
 6005TIP3    H242211   2.974   0.334   9.454 -0.2261  2.5395  1.0844
 6006TIP3   OH242212   3.333   5.186   6.366 -0.1363 -0.2182 -0.9834
 6006TIP3    H142213   3.341   5.198   6.460 -1.5083  1.5135 -1.0401
 6006TIP3    H242214   3.297   5.098   6.356  0.1508 -0.4695  0.0840
 6007TIP3   OH242215   6.409   6.236   8.367 -0.4089  0.3561 -0.0236
 6007TIP3    H142216   6.391   6.234   8.461 -1.2818  0.1632 -0.1866
 6007TIP3    H242217   6.463   6.158   8.352  0.0588  0.5916  0.3682
 6008TIP3   OH242218   1.154   0.001   2.655  0.0636 -0.5477  0.1432
 6008TIP3    H142219   1.121   0.063   2.590 -0.8352  0.2994  1.3740
 6008TIP3    H242220   1.236   0.039   2.685  1.0142 -1.4521 -1.1813
 6009TIP3   OH242221   4.003   5.255   6.745  0.0246  0.2814 -0.2476
 6009TIP3    H142222   3.930   5.316   6.737 -0.1890  0.1267  0.3928
 6009TIP3    H242223   3.964   5.168   6.732  0.1349  0.2138 -0.1354
 6010TIP3   OH242224   1.107   6.895   6.923 -0.3459 -0.1859 -0.1124
 6010TIP3    H142225   1.065   6.966   6.874  1.4853  0.8809 -0.2290
 6010TIP3    H242226   1.153   6.844   6.856 -0.8330 -0.9221  0.0974
 6011TIP3   OH242227   2.937   4.658   1.665 -0.3595 -0.0255  0.1502
 6011TIP3    H142228   2.995   4.685   1.737  1.0958 -0.0507 -0.9621
 6011TIP3    H242229   2.866   4.722   1.665  0.0631  0.4592  1.0778
 6012TIP3   OH242230   3.155   0.859   9.112  0.6166  0.2756  0.4440
 6012TIP3    H142231   3.175   0.783   9.058 -2.1194 -0.0911 -0.2147
 6012TIP3    H242232   3.110   0.919   9.053 -1.3183  0.4124  1.9616
 6013TIP3   OH242233   3.223   5.047   3.015  0.2799  0.2946  0.1938
 6013TIP3    H142234   3.291   5.094   3.063  0.2561 -0.8780  1.4276
 6013TIP3    H242235   3.259   4.959   3.002 -0.6002 -0.0547  0.0016
 6014TIP3   OH242236   5.281   4.992   0.389 -0.3916  0.0343  0.1618
 6014TIP3    H142237   5.328   4.963   0.466 -0.6813 -0.1031  0.2871
 6014TIP3    H242238   5.315   4.938   0.318 -0.0188  0.2623  0.1631
 6015TIP3   OH242239   4.762   2.713   1.760  0.0218  0.2937  0.1361
 6015TIP3    H142240   4.687   2.746   1.809 -1.4840 -1.1901 -1.0325
 6015TIP3    H242241   4.792   2.637   1.811  0.0357  0.2418  0.0514
 6016TIP3   OH242242   3.336   4.968   8.304  0.2081  0.3472 -0.7518
 6016TIP3    H142243   3.249   4.984   8.340  0.6871 -0.0378  0.6417
 6016TIP3    H242244   3.332   5.003   8.215 -1.3445  0.3884 -0.6939
 6017TIP3   OH242245   1.484   1.429   6.834 -0.6586 -0.1176  0.4507
 6017TIP3    H142246   1.493   1.341   6.797  0.8522 -0.4829  1.6040
 6017TIP3    H242247   1.394   1.432   6.867 -0.9285 -0.9931 -0.1536
 6018TIP3   OH242248   5.899   0.957   0.861 -0.4203 -0.0269  0.7893
 6018TIP3    H142249   5.815   0.922   0.888  0.3605 -1.6253  1.2727
 6018TIP3    H242250   5.959   0.882   0.864  0.8614  0.8987 -0.2547
 6019TIP3   OH242251   2.123   5.213   9.316  0.3096 -0.0515 -0.3533
 6019TIP3    H142252   2.125   5.301   9.354  1.6920  0.2098 -0.9747
 6019TIP3    H242253   2.171   5.221   9.234 -0.9290 -1.0472 -1.2311
 6020TIP3   OH242254   2.482   6.194   7.050 -0.2725  0.0878  0.3902
 6020TIP3    H142255   2.392   6.164   7.040  0.1117 -1.0046  0.1196
 6020TIP3    H242256   2.512   6.208   6.960 -0.4009  1.2183  0.5002
 6021TIP3   OH242257   1.654   4.898   8.191 -0.6138  0.3197  0.1199
 6021TIP3    H142258   1.564   4.906   8.221 -0.8313  0.0544 -0.4354
 6021TIP3    H242259   1.653   4.935   8.102 -0.3749 -0.4883 -0.2267
 6022TIP3   OH242260   1.166   4.929   2.511 -0.3152  0.4763 -0.5553
 6022TIP3    H142261   1.141   4.969   2.594  2.1856 -0.4038  0.7098
 6022TIP3    H242262   1.170   4.835   2.530 -0.5485  0.1551 -1.9421
 6023TIP3   OH242263   3.340   3.860   7.485  0.4520  0.4836 -0.4428
 6023TIP3    H142264   3.341   3.769   7.516 -1.5369  0.3178 -0.7190
 6023TIP3    H242265   3.330   3.912   7.564 -0.5661  0.3109 -0.4478
 6024TIP3   OH242266   4.806   6.031   0.188 -0.8605  0.1682 -0.4330
 6024TIP3    H142267   4.767   6.038   0.275 -2.1876 -0.5589 -0.9402
 6024TIP3    H242268   4.759   5.959   0.146  0.1131  0.1629 -1.5747
 6025TIP3   OH242269   6.562   7.435   8.830 -0.2433  0.4773 -0.0205
 6025TIP3    H142270   6.541   7.460   8.920  0.1416  0.3844  0.0947
 6025TIP3    H242271   6.656   7.452   8.821 -0.5140  1.7299 -0.8052
 6026TIP3   OH242272   4.760   4.990   8.820 -0.0186  0.1439  0.4882
 6026TIP3    H142273   4.806   5.040   8.888 -0.4755  1.2506  0.0077
 6026TIP3    H242274   4.826   4.974   8.753 -0.0106  0.6083  0.3830
 6027TIP3   OH242275   4.485   7.403   9.604 -0.0930 -0.3704 -0.2019
 6027TIP3    H142276   4.454   7.326   9.651 -1.7432  1.6611  2.3295
 6027TIP3    H242277   4.578   7.408   9.624 -0.3318 -0.7491  1.0847
 6028TIP3   OH242278   4.648   3.235   1.220 -0.3325 -0.5420  0.0173
 6028TIP3    H142279   4.667   3.166   1.283  1.2740  0.3264  0.5600
 6028TIP3    H242280   4.631   3.313   1.273  0.6602  0.1126 -0.5685
 6029TIP3   OH242281   0.246   3.739   7.831  0.5248  0.4943 -0.4580
 6029TIP3    H142282   0.278   3.759   7.918  1.6736  1.7731 -1.1368
 6029TIP3    H242283   0.158   3.778   7.829  1.2181  2.1586 -0.4541
 6030TIP3   OH242284   3.299   1.062   1.213 -0.5502  0.5066  0.0810
 6030TIP3    H142285   3.388   1.028   1.221 -0.0598  1.5505 -0.7074
 6030TIP3    H242286   3.305   1.153   1.240 -1.7613  0.1407  1.7613
 6031TIP3   OH242287   1.986   2.574   7.507 -0.0127 -0.4751  0.0309
 6031TIP3    H142288   2.005   2.487   7.473 -0.7295 -1.8795  2.9190
 6031TIP3    H242289   2.060   2.628   7.478 -0.4316 -1.4732 -3.3805
 6032TIP3   OH242290   7.010   7.274   2.490 -0.0233  0.5747 -0.5957
 6032TIP3    H142291   6.920   7.305   2.494  0.2332  1.2384  0.3811
 6032TIP3    H242292   7.062   7.344   2.529  0.5626 -1.0624  1.8362
 6033TIP3   OH242293   2.252   1.684   0.880 -0.0726  0.0824 -0.3104
 6033TIP3    H142294   2.214   1.636   0.954 -0.1183 -0.0609 -0.4268
 6033TIP3    H242295   2.185   1.747   0.855 -0.4914 -0.5891 -0.9184
 6034TIP3   OH242296   5.938   5.932   0.296  0.4089  0.2517  0.0048
 6034TIP3    H142297   5.879   5.932   0.371 -0.1406  0.1928 -0.4247
 6034TIP3    H242298   6.015   5.884   0.327 -0.4580 -1.1904  0.0379
 6035TIP3   OH242299   2.656   1.900   0.545 -0.3619  0.0181  0.5846
 6035TIP3    H142300   2.662   1.816   0.500 -0.0130  0.4021 -0.1065
 6035TIP3    H242301   2.743   1.912   0.585  0.1247  0.7727 -0.6558
 6036TIP3   OH242302   1.791   5.842   1.480  0.3058  0.3800 -0.5942
 6036TIP3    H142303   1.743   5.897   1.418  0.6716  0.0661 -1.1710
 6036TIP3    H242304   1.734   5.766   1.492  0.3094  0.3634 -0.6790
 6037TIP3   OH242305   1.826   1.440   1.341  0.2601  0.5001 -0.2740
 6037TIP3    H142306   1.761   1.411   1.277  0.1467  1.1209 -0.4432
 6037TIP3    H242307   1.901   1.468   1.288  1.0084 -0.9887 -0.0583
 6038TIP3   OH242308   7.013   1.739   1.483  0.5163 -0.2472  0.1870
 6038TIP3    H142309   6.982   1.719   1.395  0.0563  0.8961  0.0718
 6038TIP3    H242310   7.034   1.833   1.481 -0.2927 -0.0042  1.5011
 6039TIP3   OH242311   6.601   3.611   8.453 -0.2884 -0.0804 -0.9305
 6039TIP3    H142312   6.564   3.693   8.485  0.1454  0.3277 -1.4667
 6039TIP3    H242313   6.525   3.555   8.437 -0.5456 -0.1006  0.2675
 6040TIP3   OH242314   0.025   3.809   9.547 -0.2138 -0.1413 -0.4157
 6040TIP3    H142315   0.070   3.847   9.622 -0.2727 -0.3422 -0.2768
 6040TIP3    H242316  -0.005   3.723   9.578 -1.1122  0.1823 -0.3462
 6041TIP3   OH242317   0.498   7.281   7.457 -0.5420  0.0416  0.0695
 6041TIP3    H142318   0.551   7.360   7.465  0.4814 -0.7806  2.0560
 6041TIP3    H242319   0.418   7.299   7.507 -1.0116  0.3437 -0.7651
 6042TIP3   OH242320   5.671   4.314   8.413 -0.4619  0.0133 -0.1577
 6042TIP3    H142321   5.608   4.354   8.352  0.4636 -1.1995 -1.9850
 6042TIP3    H242322   5.617   4.266   8.475 -1.3856 -0.3194 -1.1927
 6043TIP3   OH242323   4.790   2.244   2.025  0.2399 -0.3860 -0.0539
 6043TIP3    H142324   4.867   2.202   2.063 -0.6356 -1.2736  0.8215
 6043TIP3    H242325   4.717   2.188   2.051 -1.0729  1.9247  1.6132
 6044TIP3   OH242326   4.497   0.216   9.549  0.6328  0.4489  0.5246
 6044TIP3    H142327   4.576   0.218   9.495  0.8348  1.6254  0.8316
 6044TIP3    H242328   4.470   0.125   9.548  0.9464  0.3344 -1.1053
 6045TIP3   OH242329   6.820   5.480   9.620  0.7032  0.0365  0.1298
 6045TIP3    H142330   6.747   5.496   9.679  1.2118 -0.0411  0.7900
 6045TIP3    H242331   6.835   5.565   9.578  0.2339  0.0515 -0.0175
 6046TIP3   OH242332   2.356   3.687   1.667 -0.3201 -0.4395  0.1939
 6046TIP3    H142333   2.287   3.720   1.609 -2.8450 -2.1232  2.0378
 6046TIP3    H242334   2.407   3.628   1.612 -0.7912  0.2411 -1.0281
 6047TIP3   OH242335   2.009   0.870   9.786  0.2457  0.1730 -0.2496
 6047TIP3    H142336   2.023   0.823   9.704  0.2426  2.3746 -1.5708
 6047TIP3    H242337   2.005   0.962   9.762  1.8551  1.0691  2.4109
 6048TIP3   OH242338   0.780   5.315   2.194  0.2511 -0.2589 -0.3696
 6048TIP3    H142339   0.819   5.384   2.248  3.1383 -0.7998 -1.5571
 6048TIP3    H242340   0.853   5.256   2.174 -1.0559 -1.0705 -3.2976
 6049TIP3   OH242341   5.051   1.676   9.647  0.2955  0.5226 -0.1884
 6049TIP3    H142342   5.124   1.719   9.601  1.7053  1.4920  2.7354
 6049TIP3    H242343   4.996   1.749   9.678 -0.0176 -0.0266  0.5794
 6050TIP3   OH242344   3.876   3.576   2.046 -0.0338  0.1914 -0.0424
 6050TIP3    H142345   3.828   3.520   2.107 -0.0143 -2.0125 -1.9408
 6050TIP3    H242346   3.897   3.654   2.097 -2.7525 -0.1635  1.8152
 6051TIP3   OH242347   6.660   6.818   1.026 -0.0929 -0.1837  0.1085
 6051TIP3    H142348   6.616   6.815   0.942 -1.3209  1.2478  0.6445
 6051TIP3    H242349   6.689   6.909   1.035  0.4759 -0.4307  1.0096
 6052TIP3   OH242350   0.128   2.327   1.910 -0.0699  0.9090  0.0039
 6052TIP3    H142351   0.071   2.403   1.899  1.6214  2.2701  0.2992
 6052TIP3    H242352   0.204   2.360   1.957  0.7216 -0.9841  0.1557
 6053TIP3   OH242353   2.986   0.599   8.010 -0.4494  0.6665 -0.6289
 6053TIP3    H142354   3.077   0.584   8.034 -0.7825 -1.1404 -0.3541
 6053TIP3    H242355   2.981   0.578   7.917 -0.6571  0.3682 -0.5525
 6054TIP3   OH242356   0.294   2.831   7.884 -0.1220 -0.1539  0.3678
 6054TIP3    H142357   0.367   2.846   7.823  0.2981 -0.1449  0.8602
 6054TIP3    H242358   0.276   2.917   7.921 -1.6932  0.2254 -1.1657
 6055TIP3   OH242359   2.947   3.870   2.035  0.3358  0.6597 -0.1760
 6055TIP3    H142360   2.907   3.784   2.027  0.6892  0.4998 -0.2421
 6055TIP3    H242361   3.015   3.871   1.967  1.3896  0.3954  0.8436
 6056TIP3   OH242362   3.478   0.696   8.053 -0.3391 -0.6750 -0.5791
 6056TIP3    H142363   3.545   0.631   8.075  0.9133  1.3850  2.3573
 6056TIP3    H242364   3.521   0.755   7.991 -1.2365 -2.0920 -2.6668
 6057TIP3   OH242365   4.103   6.229   1.640  0.1270 -0.0916 -0.1824
 6057TIP3    H142366   4.074   6.309   1.597  1.5304  0.4588 -0.1398
 6057TIP3    H242367   4.028   6.202   1.694 -1.0390  0.1439 -1.6027
 6058TIP3   OH242368   7.210   1.877   0.740 -0.3622  0.5888  0.1071
 6058TIP3    H142369   7.199   1.970   0.760  0.1363  0.6425  0.1369
 6058TIP3    H242370   7.225   1.836   0.825 -0.1628  0.5394  0.0472
 6059TIP3   OH242371   1.420   1.656   0.368 -0.2390  0.2192 -0.0704
 6059TIP3    H142372   1.427   1.584   0.306 -0.8050  1.0083 -1.0716
 6059TIP3    H242373   1.406   1.734   0.314 -0.0827  1.0250  1.0092
 6060TIP3   OH242374   6.580   1.285   0.321 -0.4263  0.3528 -0.1285
 6060TIP3    H142375   6.566   1.375   0.347 -2.1988  0.0161  0.1622
 6060TIP3    H242376   6.618   1.243   0.398 -0.4485  0.6379  0.0372
 6061TIP3   OH242377   3.366   3.593   2.404  0.3484 -0.4023  0.4908
 6061TIP3    H142378   3.404   3.505   2.402  0.3273 -0.4048 -0.3503
 6061TIP3    H242379   3.279   3.582   2.366  0.2911 -0.0425  0.5138
 6062TIP3   OH242380   5.599   7.169   8.762  0.3317 -0.5391 -0.4512
 6062TIP3    H142381   5.644   7.132   8.686  3.0265  0.6797  0.4445
 6062TIP3    H242382   5.630   7.117   8.836  0.9066  0.8079  0.2931
 6063TIP3   OH242383   2.756   5.589   6.203 -0.2500  0.1257 -0.0161
 6063TIP3    H142384   2.748   5.682   6.184 -0.2072  0.2645  0.6459
 6063TIP3    H242385   2.842   5.580   6.244  0.0483 -0.3157 -0.7035
 6064TIP3   OH242386   0.240   2.944   7.526 -0.2248  0.1574 -0.4602
 6064TIP3    H142387   0.240   2.919   7.434  1.1043  0.7571 -0.6440
 6064TIP3    H242388   0.310   2.892   7.565  0.9405  1.7577 -0.3394
 6065TIP3   OH242389   4.693   0.490   0.253 -1.0485 -0.6189 -0.0859
 6065TIP3    H142390   4.735   0.424   0.308 -1.3693 -0.7120  0.0492
 6065TIP3    H242391   4.648   0.439   0.185 -2.9628 -0.6882  1.1379
 6066TIP3   OH242392   1.454   5.990   1.178 -0.1992  0.4971 -0.5379
 6066TIP3    H142393   1.528   5.949   1.223  0.5184  0.8018 -1.4055
 6066TIP3    H242394   1.404   6.032   1.247 -0.4561 -1.0596  0.2657
 6067TIP3   OH242395   2.000   3.563   2.271 -0.2091 -0.5683 -0.5851
 6067TIP3    H142396   2.054   3.506   2.326 -0.1882  0.0386  0.0375
 6067TIP3    H242397   1.914   3.561   2.313 -0.1655 -0.0199 -0.4689
 6068TIP3   OH242398   4.302   0.962   9.900  0.1803  0.6733  0.1745
 6068TIP3    H142399   4.227   0.902   9.899 -0.1033  0.9915 -1.4958
 6068TIP3    H242400   4.360   0.928   9.832  1.1626  0.9167  0.8773
 6069TIP3   OH242401   0.857   1.375   1.010 -0.0970 -0.3633 -0.5568
 6069TIP3    H142402   0.953   1.384   1.010  0.0966 -2.0896  0.5261
 6069TIP3    H242403   0.840   1.301   0.952 -1.0963  1.8606 -3.3902
 6070TIP3   OH242404   2.874   5.193   9.386 -0.3092 -0.6231  1.0242
 6070TIP3    H142405   2.852   5.241   9.467 -1.4691  1.2848 -0.3153
 6070TIP3    H242406   2.792   5.195   9.336  0.7810 -0.4143 -0.8138
 6071TIP3   OH242407   0.921   2.869   8.312  0.1640 -0.6682  0.1828
 6071TIP3    H142408   0.962   2.955   8.302 -0.2118 -0.4023  0.8134
 6071TIP3    H242409   0.843   2.873   8.257 -0.9993  0.1825  1.8093
 6072TIP3   OH242410   0.858   5.302   0.068  0.1243  0.5121 -0.1952
 6072TIP3    H142411   0.781   5.245   0.071  0.2402  0.3974  0.8466
 6072TIP3    H242412   0.914   5.261   0.002 -0.7270  0.6353 -1.0142
 6073TIP3   OH242413   2.261   5.613   8.939  0.2881  0.2103 -0.9042
 6073TIP3    H142414   2.208   5.566   9.003  0.3187  1.6256  0.2210
 6073TIP3    H242415   2.201   5.632   8.867 -0.2407  0.1689 -0.4824
 6074TIP3   OH242416   6.769   6.766   7.411  0.0327  0.6661 -0.0500
 6074TIP3    H142417   6.795   6.820   7.337 -0.9886  1.0399 -0.1519
 6074TIP3    H242418   6.763   6.827   7.485 -2.6432  1.0606 -0.4901
 6075TIP3   OH242419   3.436   7.084   1.742 -0.2585 -0.2460 -0.0485
 6075TIP3    H142420   3.415   7.169   1.780  0.8165  0.0886 -0.1863
 6075TIP3    H242421   3.474   7.034   1.814  1.9357  0.4456 -0.6714
 6076TIP3   OH242422   4.436   2.176   8.420  0.0947 -0.5678  0.1825
 6076TIP3    H142423   4.486   2.240   8.471 -0.9497 -0.2929  0.8732
 6076TIP3    H242424   4.392   2.122   8.485  0.9173 -1.9830 -0.3910
 6077TIP3   OH242425   5.746   0.953   1.682 -0.2886  0.4480 -0.1855
 6077TIP3    H142426   5.755   1.021   1.750  1.0072 -0.0508  0.1670
 6077TIP3    H242427   5.656   0.963   1.651 -0.6727  1.1913  1.0737
 6078TIP3   OH242428   2.416   3.586   6.534  0.3679  0.0308 -0.3719
 6078TIP3    H142429   2.443   3.676   6.519 -1.7019  1.0082  1.2266
 6078TIP3    H242430   2.497   3.538   6.550  1.6273  1.2481 -2.7252
 6079TIP3   OH242431   5.422   7.410   0.524 -1.1181  0.5284  0.2499
 6079TIP3    H142432   5.495   7.364   0.564 -1.1192  0.6918  0.4398
 6079TIP3    H242433   5.379   7.344   0.470 -0.8561  0.4214  0.1709
 6080TIP3   OH242434   0.756   7.106   8.126 -0.2107 -0.2193 -0.1746
 6080TIP3    H142435   0.727   7.106   8.035 -1.5836  0.6484  0.2326
 6080TIP3    H242436   0.677   7.126   8.177  0.7706  0.5598  1.1156
 6081TIP3   OH242437   6.080   0.915   0.184 -0.3179 -0.3625 -0.2013
 6081TIP3    H142438   6.094   0.825   0.212  0.6213 -0.0965  0.2328
 6081TIP3    H242439   6.054   0.961   0.264  0.1813 -0.0585 -0.2055
 6082TIP3   OH242440   5.884   0.192   0.975  0.1523 -0.1852  0.1026
 6082TIP3    H142441   5.842   0.277   0.985  0.4058 -0.0341 -0.1220
 6082TIP3    H242442   5.903   0.164   1.064  2.0075  0.9546  0.1067
 6083TIP3   OH242443   1.279   1.130   8.925 -0.7663  0.4308 -0.4209
 6083TIP3    H142444   1.238   1.199   8.873 -0.2052  0.0314 -1.4171
 6083TIP3    H242445   1.226   1.052   8.908  1.4054 -0.5656 -3.2454
 6084TIP3   OH242446   4.203   0.237   8.221  0.2049 -0.5369 -0.1691
 6084TIP3    H142447   4.179   0.194   8.140  0.4517 -1.9929  0.5034
 6084TIP3    H242448   4.252   0.315   8.194 -0.2930 -0.6360 -1.4087
 6085TIP3   OH242449   3.320   5.591   3.083 -0.2375 -0.1958  0.3480
 6085TIP3    H142450   3.263   5.594   3.160  0.4262  3.5616  0.8870
 6085TIP3    H242451   3.263   5.618   3.011 -0.2499 -1.2181 -0.0366
 6086TIP3   OH242452   5.697   5.183   7.955  0.1600 -0.4210 -0.2147
 6086TIP3    H142453   5.781   5.228   7.952  0.7090 -1.3859  0.0389
 6086TIP3    H242454   5.647   5.220   7.882 -0.1154  1.8588  1.0308
 6087TIP3   OH242455   5.789   1.289   0.482  0.3527 -0.5632  0.0256
 6087TIP3    H142456   5.884   1.279   0.476  0.4316  0.0723  0.1681
 6087TIP3    H242457   5.755   1.237   0.409  0.8242 -0.5901 -0.1786
 6088TIP3   OH242458   6.393   4.467   1.424  0.1412  0.1217  1.1288
 6088TIP3    H142459   6.406   4.398   1.358  0.0827  1.0145  0.1656
 6088TIP3    H242460   6.480   4.505   1.436 -0.2606  1.5454 -0.2304
 6089TIP3   OH242461   5.136   1.813   9.385  0.1557 -0.0106 -0.1160
 6089TIP3    H142462   5.220   1.859   9.389  0.0972  0.0353  2.5515
 6089TIP3    H242463   5.071   1.881   9.371  0.4562  0.0613 -1.2639
 6090TIP3   OH242464   5.539   5.351   1.940  0.2348 -0.3664  0.7265
 6090TIP3    H142465   5.538   5.384   1.850  0.0989 -2.2551 -0.0216
 6090TIP3    H242466   5.529   5.429   1.994 -2.8712  0.6128 -0.9742
 6091TIP3   OH242467   7.226   1.914   0.395 -0.3119  0.4428  0.2916
 6091TIP3    H142468   7.233   1.990   0.453  0.2334  1.4841 -1.0720
 6091TIP3    H242469   7.134   1.890   0.398 -0.2762  0.3985  1.6567
 6092TIP3   OH242470   7.174   5.385   0.631  0.0068  0.1553 -0.0944
 6092TIP3    H142471   7.164   5.290   0.630  0.7276  0.0616 -1.9216
 6092TIP3    H242472   7.268   5.399   0.644 -0.3225  0.6988  2.0974
 6093TIP3   OH242473   3.822   3.424   2.277 -0.2530 -0.1581 -0.2983
 6093TIP3    H142474   3.811   3.471   2.360 -1.9768  0.3331 -0.7708
 6093TIP3    H242475   3.779   3.339   2.292  0.1555 -0.3933 -0.4400
 6094TIP3   OH242476   2.760   4.884   7.145 -0.0678  0.0151  0.5621
 6094TIP3    H142477   2.746   4.867   7.052  0.2801 -2.1811  0.8723
 6094TIP3    H242478   2.854   4.901   7.152 -0.0813  0.1024  0.5433
 6095TIP3   OH242479   1.790   2.915   1.519  0.2452  0.3600  0.0573
 6095TIP3    H142480   1.774   2.832   1.474  0.0439 -0.0482  0.8589
 6095TIP3    H242481   1.852   2.961   1.463  2.7282 -1.5845  0.9800
 6096TIP3   OH242482   0.558   4.272   8.193 -0.2215  0.0197  0.2789
 6096TIP3    H142483   0.589   4.238   8.277 -1.9997 -0.3435  0.8115
 6096TIP3    H242484   0.467   4.295   8.207 -0.3073  0.8475 -1.3115
 6097TIP3   OH242485   0.604   4.634   0.792 -0.6101 -0.7305  0.1344
 6097TIP3    H142486   0.693   4.609   0.816 -0.7655 -0.6642  0.7862
 6097TIP3    H242487   0.612   4.723   0.757 -0.0681 -1.5992 -2.1045
 6098TIP3   OH242488   4.409   5.268   8.113  0.4091 -0.6309  0.0308
 6098TIP3    H142489   4.420   5.360   8.137 -0.6608 -0.8557  1.5873
 6098TIP3    H242490   4.460   5.219   8.178  1.1142 -1.1449 -0.8890
 6099TIP3   OH242491   2.859   2.836   1.634  0.0975 -0.4170  0.2440
 6099TIP3    H142492   2.946   2.832   1.675  0.2641  0.9257  0.0832
 6099TIP3    H242493   2.803   2.783   1.691  0.6999 -0.0083  1.2490
 6100TIP3   OH242494   4.060   2.886   8.995  0.7599  0.0252 -0.0839
 6100TIP3    H142495   4.135   2.842   8.957 -1.0133 -1.1871 -2.4386
 6100TIP3    H242496   4.090   2.975   9.012  2.9721 -0.6849 -0.0100
 6101TIP3   OH242497   6.147   6.808   1.547 -0.2634 -0.4533 -0.2545
 6101TIP3    H142498   6.107   6.723   1.530 -0.8495 -0.2470  0.0718
 6101TIP3    H242499   6.076   6.871   1.538 -0.6956 -0.3238  2.8963
 6102TIP3   OH242500   1.942   4.502   9.303 -0.2510  0.6516 -0.3970
 6102TIP3    H142501   1.886   4.544   9.368 -0.5778  2.0885 -1.5733
 6102TIP3    H242502   1.908   4.531   9.218 -0.9197 -2.4847 -1.3634
 6103TIP3   OH242503   3.673   0.721   1.712 -0.3669  0.0485  0.5181
 6103TIP3    H142504   3.688   0.737   1.806 -0.7196 -1.5220  0.8632
 6103TIP3    H242505   3.596   0.664   1.710  0.4500 -1.0567 -0.6484
 6104TIP3   OH242506   0.113   6.273   0.792  0.4611 -0.2587  0.6165
 6104TIP3    H142507   0.130   6.274   0.698  0.5381 -1.7536  0.5923
 6104TIP3    H242508   0.068   6.356   0.809 -0.2188 -0.2843 -0.8713
 6105TIP3   OH242509   3.162   4.939   1.501 -0.1859 -0.0673  0.0613
 6105TIP3    H142510   3.178   4.981   1.586 -1.1761 -0.7101  0.5894
 6105TIP3    H242511   3.070   4.912   1.505  0.4758 -2.6547 -0.0482
 6106TIP3   OH242512   0.446   2.323   1.659  0.2275  0.5714 -0.3917
 6106TIP3    H142513   0.498   2.282   1.589  0.7894 -0.3943  0.5616
 6106TIP3    H242514   0.364   2.347   1.616  1.1554  1.4667 -1.7565
 6107TIP3   OH242515   0.715   5.545   0.193 -0.6786  0.5486  0.0505
 6107TIP3    H142516   0.750   5.498   0.118 -1.5288  0.1334 -0.1004
 6107TIP3    H242517   0.695   5.476   0.257 -0.8415  0.8107  0.2831
 6108TIP3   OH242518   4.271   6.009   8.562 -0.0270 -0.4964 -0.3703
 6108TIP3    H142519   4.358   6.032   8.594 -0.6045 -0.3518  1.1601
 6108TIP3    H242520   4.242   6.085   8.513 -0.2057  0.4122  1.0815
 6109TIP3   OH242521   6.257   0.038   1.141  0.4998  0.0059  0.3644
 6109TIP3    H142522   6.333  -0.013   1.170  1.4895  0.1846 -1.6674
 6109TIP3    H242523   6.250   0.109   1.205  2.4139  0.2786  0.3571
 6110TIP3   OH242524   0.519   3.381   9.158  0.4347  0.1771 -0.5700
 6110TIP3    H142525   0.436   3.355   9.119  0.5267  0.6671 -1.1031
 6110TIP3    H242526   0.495   3.426   9.239  0.1413  0.9558 -1.0818
 6111TIP3   OH242527   3.312   1.614   9.813 -0.3962  0.1731  0.0759
 6111TIP3    H142528   3.359   1.691   9.845 -0.0231  0.5163 -1.2261
 6111TIP3    H242529   3.220   1.638   9.819 -0.2667  1.1404 -1.2166
 6112TIP3   OH242530   3.308   5.826   6.384 -0.3191 -0.3709  0.3194
 6112TIP3    H142531   3.238   5.887   6.403  0.3100  0.4245  0.1445
 6112TIP3    H242532   3.264   5.747   6.352 -1.1692 -0.2902  1.2756
 6113TIP3   OH242533   2.434   2.428   2.696  0.1117  0.0476  0.6787
 6113TIP3    H142534   2.402   2.337   2.692  1.7339 -0.5598  0.9388
 6113TIP3    H242535   2.478   2.442   2.613 -1.1400  1.0339  0.1409
 6114TIP3   OH242536   2.048   4.619   9.977 -0.5378  0.0169 -0.6152
 6114TIP3    H142537   2.089   4.550   9.926  0.7771  1.0587 -1.0334
 6114TIP3    H242538   2.060   4.698   9.925  0.7129  1.1062  1.1868
 6115TIP3   OH242539   5.607   0.927   0.358  0.7942 -0.6319  0.3227
 6115TIP3    H142540   5.611   0.876   0.278  1.2352 -0.0611 -0.0335
 6115TIP3    H242541   5.604   1.018   0.328 -3.1744 -0.4327  0.8227
 6116TIP3   OH242542   5.667   0.342   1.323 -0.3390  0.0796 -0.3742
 6116TIP3    H142543   5.613   0.304   1.254 -1.4668 -1.1571  1.1168
 6116TIP3    H242544   5.747   0.290   1.322 -0.3618  0.0459 -0.7210
 6117TIP3   OH242545   1.761   2.498   0.477  0.8486 -0.2248  0.1023
 6117TIP3    H142546   1.708   2.576   0.489  0.9823 -0.1122 -0.0282
 6117TIP3    H242547   1.700   2.431   0.446  0.6447 -0.3104  0.6862
 6118TIP3   OH242548   3.645   0.017   9.871  0.0115  0.3190 -0.1182
 6118TIP3    H142549   3.682   0.042   9.956 -1.9545  1.0464  0.6021
 6118TIP3    H242550   3.635  -0.078   9.876  1.7057  0.1088 -0.3386
 6119TIP3   OH242551   1.585   2.443   1.489  0.2363  0.1110  0.0672
 6119TIP3    H142552   1.530   2.521   1.486 -0.8862 -0.5543  1.7725
 6119TIP3    H242553   1.523   2.370   1.494  1.2684 -0.8303 -0.4157
 6120TIP3   OH242554   0.539   0.248   2.241  0.4554 -0.1776  0.1050
 6120TIP3    H142555   0.573   0.276   2.326 -1.8439  2.9136  0.1780
 6120TIP3    H242556   0.512   0.157   2.254  1.6955 -0.3075  2.1473
 6121TIP3   OH242557   6.252   0.909   2.361 -0.4778 -0.3307 -0.4147
 6121TIP3    H142558   6.204   0.966   2.302 -0.8883 -0.6496 -0.3984
 6121TIP3    H242559   6.193   0.835   2.376  0.0372 -0.7556 -0.4316
 6122TIP3   OH242560   2.059   5.522   9.989 -0.1059  0.0168 -0.1586
 6122TIP3    H142561   2.149   5.492   9.984  0.1001  0.5198  0.5651
 6122TIP3    H242562   2.064   5.617   9.975 -0.4847  0.0949  0.2209
 6123TIP3   OH242563   5.486   4.040   2.458  0.2607  0.5928  0.3710
 6123TIP3    H142564   5.528   3.965   2.500  0.5268 -0.9477 -2.3925
 6123TIP3    H242565   5.556   4.084   2.411  0.0070  2.3691  1.5310
 6124TIP3   OH242566   6.666   0.042   0.743 -0.2459 -0.5962 -0.0497
 6124TIP3    H142567   6.754   0.017   0.715  0.3356 -0.7467  1.7574
 6124TIP3    H242568   6.628  -0.039   0.779 -0.9068 -0.4005 -0.2873
 6125TIP3   OH242569   4.423   7.103   1.783 -0.1320  0.5279 -0.2799
 6125TIP3    H142570   4.454   7.193   1.792  0.4445  0.1836  1.6948
 6125TIP3    H242571   4.344   7.100   1.838  0.6135 -0.4790  0.7830
 6126TIP3   OH242572   6.516   0.560   9.919  0.0051  0.8378  0.5115
 6126TIP3    H142573   6.601   0.557   9.875 -0.8194  0.9860 -1.1934
 6126TIP3    H242574   6.518   0.486   9.980  0.9849  0.2319 -0.2220
 6127TIP3   OH242575   2.710   1.736   8.769  0.7318  0.2496  0.2143
 6127TIP3    H142576   2.702   1.818   8.720 -0.6729 -0.0361 -0.0769
 6127TIP3    H242577   2.682   1.758   8.858 -2.1459 -0.3897 -0.4241
 6128TIP3   OH242578   7.350   0.112   0.685  0.4364 -0.0862 -0.9259
 6128TIP3    H142579   7.301   0.031   0.703 -1.1084  0.5561 -1.9686
 6128TIP3    H242580   7.428   0.106   0.739 -0.0920 -1.8642 -0.3003
 6129TIP3   OH242581   4.956   0.314   8.302  0.1368  0.3132 -0.0637
 6129TIP3    H142582   4.922   0.385   8.248 -1.3420  0.7433  1.3337
 6129TIP3    H242583   5.009   0.357   8.369 -1.9499  0.3652  1.6891
 6130TIP3   OH242584   2.433   0.563   1.480 -0.0334 -0.0138 -0.0552
 6130TIP3    H142585   2.391   0.548   1.565 -1.3657  1.9497 -0.2811
 6130TIP3    H242586   2.483   0.644   1.492  1.7946 -1.0225 -0.4963
 6131TIP3   OH242587   0.163   7.342   0.110 -0.2850  0.6098  0.3423
 6131TIP3    H142588   0.185   7.378   0.024 -0.8064 -1.1541 -0.5726
 6131TIP3    H242589   0.128   7.417   0.158  0.2306  1.6900 -0.8949
 6132TIP3   OH242590   3.751   5.711   1.075  0.3453 -0.6506  0.2842
 6132TIP3    H142591   3.742   5.716   0.980  1.4556 -1.4027  0.1215
 6132TIP3    H242592   3.741   5.617   1.095 -1.1720 -0.3492  1.0669
 6133TIP3   OH242593   1.296   0.761   1.042 -0.3788  0.4687 -0.3872
 6133TIP3    H142594   1.373   0.814   1.060  0.4668 -0.9521  0.3616
 6133TIP3    H242595   1.329   0.671   1.035 -1.7406  0.0025 -1.6409
 6134TIP3   OH242596   2.508   5.614   2.495  0.1837 -0.4163 -0.2342
 6134TIP3    H142597   2.450   5.691   2.489  0.8617  0.0966 -0.3297
 6134TIP3    H242598   2.593   5.646   2.465  0.7941 -0.8658  0.9651
 6135TIP3   OH242599   0.836   1.723   2.930 -0.5241  0.4618  0.1015
 6135TIP3    H142600   0.825   1.688   2.841  0.4375  0.8152 -0.1813
 6135TIP3    H242601   0.809   1.815   2.922 -0.7070  0.4172  0.2352
 6136TIP3   OH242602   7.417   5.160   9.378  0.2716 -0.1511 -0.2164
 6136TIP3    H142603   7.435   5.068   9.362 -1.6236 -0.5811 -0.0720
 6136TIP3    H242604   7.455   5.205   9.303 -2.2159 -1.4519 -2.4028
 6137TIP3   OH242605   3.141   0.938   7.525  0.5179  0.1300 -0.2830
 6137TIP3    H142606   3.078   0.866   7.528  0.1781  0.4468  0.5025
 6137TIP3    H242607   3.220   0.903   7.566  0.2812  0.2705  0.2946
 6138TIP3   OH242608   6.306   4.647   9.718  0.1021 -0.2419  0.1705
 6138TIP3    H142609   6.322   4.685   9.632  1.9421  2.2338  1.5012
 6138TIP3    H242610   6.216   4.673   9.738 -0.4987 -1.1997 -1.1157
 6139TIP3   OH242611   6.111   3.209   0.572 -0.0707 -0.5283 -0.3955
 6139TIP3    H142612   6.053   3.164   0.633 -1.0282  0.8954 -0.2189
 6139TIP3    H242613   6.145   3.284   0.621 -0.7943  0.6008 -1.5465
 6140TIP3   OH242614   1.316   2.227   1.682  0.1995  0.6558 -0.3754
 6140TIP3    H142615   1.242   2.287   1.689 -0.3397  0.3400 -2.6502
 6140TIP3    H242616   1.333   2.220   1.588  1.8392 -0.8437 -0.0271
 6141TIP3   OH242617   0.897   6.859   0.473  0.1153  0.0476 -0.1463
 6141TIP3    H142618   0.941   6.815   0.546 -1.2112 -0.3154  0.4684
 6141TIP3    H242619   0.804   6.853   0.495 -0.2019  1.5313 -0.9844
 6142TIP3   OH242620   1.935   7.094   2.395 -0.4384  0.3870  0.4345
 6142TIP3    H142621   1.870   7.024   2.402  1.0192 -1.0363  0.3791
 6142TIP3    H242622   1.900   7.164   2.450 -1.6916 -0.5967  0.9585
 6143TIP3   OH242623   3.242   2.954   9.559  0.1577 -0.3761 -0.0688
 6143TIP3    H142624   3.299   2.948   9.636 -0.3172  1.9322  0.5496
 6143TIP3    H242625   3.292   3.005   9.495 -0.2637 -0.4525 -0.4731
 6144TIP3   OH242626   0.462   3.947   1.079 -0.2882  0.5151 -0.0964
 6144TIP3    H142627   0.538   3.897   1.051 -0.1770  1.1684 -0.9889
 6144TIP3    H242628   0.461   4.024   1.022 -0.3053  1.6801  1.4112
 6145TIP3   OH242629   6.083   0.576   9.282  0.1257  0.3031 -0.3867
 6145TIP3    H142630   6.162   0.534   9.315 -0.2289 -0.7516 -0.8395
 6145TIP3    H242631   6.040   0.610   9.360 -0.3737 -1.5851  0.2063
 6146TIP3   OH242632   2.387   4.590   1.219 -0.3512  0.2548  0.3700
 6146TIP3    H142633   2.430   4.672   1.240  1.3193  0.0003 -1.6688
 6146TIP3    H242634   2.415   4.571   1.129 -2.1921 -1.6027  0.1057
 6147TIP3   OH242635   5.929   4.880   1.282  0.0002  0.1967 -0.1997
 6147TIP3    H142636   5.838   4.896   1.305 -0.8384 -0.1167 -2.8774
 6147TIP3    H242637   5.925   4.814   1.213  2.2626  0.1678 -0.3913
 6148TIP3   OH242638   0.355   6.074   9.534 -0.9660 -0.1316 -0.1751
 6148TIP3    H142639   0.352   6.143   9.468  0.0539 -0.5266 -0.6614
 6148TIP3    H242640   0.426   6.098   9.592  0.3717 -1.4578 -1.1810
 6149TIP3   OH242641   6.818   5.755   0.523 -0.4405 -0.3096  0.3378
 6149TIP3    H142642   6.871   5.690   0.477  0.4699 -1.5175  2.9378
 6149TIP3    H242643   6.874   5.788   0.592 -1.7094  1.5357  0.5561
 6150TIP3   OH242644   6.229   6.637   0.595  0.3347  0.2963  0.1162
 6150TIP3    H142645   6.310   6.686   0.583 -0.8405  2.2679 -0.2346
 6150TIP3    H242646   6.166   6.680   0.538 -0.9695 -1.2070  0.3519
 6151TIP3   OH242647   1.624   5.636   1.477  0.2730  0.3889  0.0667
 6151TIP3    H142648   1.619   5.541   1.471  1.8649  0.3698 -3.1724
 6151TIP3    H242649   1.557   5.668   1.416  2.1375  1.1924 -1.6509
 6152TIP3   OH242650   5.785   4.924   8.243  0.7796  0.9614 -0.0215
 6152TIP3    H142651   5.747   4.928   8.331 -1.1139 -0.3360 -0.7197
 6152TIP3    H242652   5.784   5.014   8.212 -0.5409  1.1533  0.5139
 6153TIP3   OH242653   1.006   1.757   6.799 -0.3663  0.5506  0.1674
 6153TIP3    H142654   1.092   1.790   6.825  0.0416  0.7217 -1.3146
 6153TIP3    H242655   0.944   1.805   6.855  0.4730  0.5745  1.1043
 6154TIP3   OH242656   2.713   6.200   1.528  0.0621 -0.1349 -0.2084
 6154TIP3    H142657   2.665   6.274   1.492 -0.0114  0.2234  0.6099
 6154TIP3    H242658   2.701   6.130   1.464 -1.6256 -0.0832  0.0241
 6155TIP3   OH242659   0.712   1.987   8.090 -0.2721  0.1990  0.3029
 6155TIP3    H142660   0.778   1.945   8.145 -0.5440 -0.0244  0.4548
 6155TIP3    H242661   0.762   2.050   8.038 -0.1273  1.0857  1.4617
 6156TIP3   OH242662   1.614   0.586   7.472  0.0904  0.0765  0.1086
 6156TIP3    H142663   1.688   0.526   7.469  1.6770  1.7939  2.1436
 6156TIP3    H242664   1.593   0.603   7.380  2.7260  0.1061 -0.5593
 6157TIP3   OH242665   4.635   2.497   8.011 -0.0051  0.1220 -0.0159
 6157TIP3    H142666   4.681   2.421   8.044 -1.1035 -0.5474  0.0234
 6157TIP3    H242667   4.626   2.555   8.086 -0.1323 -0.2057  0.2228
 6158TIP3   OH242668   4.546   7.203   9.333 -0.4549  0.9618 -0.1636
 6158TIP3    H142669   4.628   7.211   9.284 -1.8489  1.9928 -2.5385
 6158TIP3    H242670   4.565   7.238   9.419  1.2502  2.5652 -1.1188
 6159TIP3   OH242671   1.525   3.462   7.007  0.2519 -0.4282  0.0751
 6159TIP3    H142672   1.460   3.394   6.995 -0.2086  0.0819 -0.4236
 6159TIP3    H242673   1.606   3.416   7.029  0.3787 -1.2578 -1.9715
 6160TIP3   OH242674   5.451   1.758   7.817  0.0075 -0.1473 -0.2970
 6160TIP3    H142675   5.356   1.763   7.807 -0.0488 -0.8271 -0.1548
 6160TIP3    H242676   5.481   1.849   7.812 -0.3833 -0.0755 -2.9540
 6161TIP3   OH242677   3.090   1.567   6.928  0.0874  0.5209  0.0771
 6161TIP3    H142678   3.116   1.510   6.856  0.3483  0.1738  0.4438
 6161TIP3    H242679   2.995   1.577   6.917  0.1524  0.6058 -0.4111
 6162TIP3   OH242680   1.760   7.370   2.360 -0.0398 -0.8501 -0.2744
 6162TIP3    H142681   1.674   7.396   2.394 -0.2304 -1.3146 -0.4038
 6162TIP3    H242682   1.748   7.366   2.265 -0.1477 -1.9080 -0.2222
 6163TIP3   OH242683   3.814   3.214   1.372  0.2567 -0.6913  0.0538
 6163TIP3    H142684   3.842   3.222   1.281 -2.6861  2.5842 -0.7612
 6163TIP3    H242685   3.742   3.151   1.370 -1.8622  1.5754 -0.6336
 6164TIP3   OH242686   0.800   1.680   2.660  0.3102  0.4215 -0.4512
 6164TIP3    H142687   0.832   1.638   2.580 -1.2912  0.5401 -1.1714
 6164TIP3    H242688   0.708   1.656   2.665  0.7640 -1.2000  2.3894
 6165TIP3   OH242689   0.603   1.911   8.414  0.4887  0.0545  0.4768
 6165TIP3    H142690   0.622   2.001   8.391 -1.1593  0.6149  1.1037
 6165TIP3    H242691   0.526   1.917   8.472  0.2154 -1.7484  0.3679
 6166TIP3   OH242692   3.776   4.438   9.216 -0.1688 -0.2679  0.3266
 6166TIP3    H142693   3.727   4.357   9.227  0.1028 -0.2250  2.0279
 6166TIP3    H242694   3.709   4.505   9.200 -0.4679 -0.6108  0.1301
 6167TIP3   OH242695   2.176   1.710   1.787 -0.0777 -0.1105 -0.4856
 6167TIP3    H142696   2.132   1.794   1.779  0.6987  0.1936 -1.7369
 6167TIP3    H242697   2.268   1.729   1.772  0.2096 -1.0823 -0.0526
 6168TIP3   OH242698   4.473   1.904   0.937  0.2817  0.2429  0.4266
 6168TIP3    H142699   4.398   1.869   0.888 -0.2205 -2.5036  2.8788
 6168TIP3    H242700   4.433   1.952   1.010  0.9912  1.4928  0.0212
 6169TIP3   OH242701   4.301   7.171   8.213 -0.1681  0.4387 -0.5073
 6169TIP3    H142702   4.258   7.254   8.236  0.5222  0.9877 -1.1234
 6169TIP3    H242703   4.243   7.131   8.148 -1.5050 -0.5338  1.2135
 6170TIP3   OH242704   6.063   2.886   0.927 -0.5805  0.0952 -0.2856
 6170TIP3    H142705   6.120   2.883   0.849 -0.2498 -0.2985 -0.0317
 6170TIP3    H242706   6.025   2.974   0.924 -2.6339 -0.7700 -2.3291
 6171TIP3   OH242707   0.421   1.515   7.820 -0.1550  0.1471 -0.1552
 6171TIP3    H142708   0.440   1.465   7.900  1.7906  1.3966  0.2164
 6171TIP3    H242709   0.345   1.569   7.843 -1.8435 -2.0144 -0.3329
 6172TIP3   OH242710   2.768   5.961   2.473  0.4548  0.1341  0.6122
 6172TIP3    H142711   2.751   5.872   2.441 -0.4197  0.5653 -0.1458
 6172TIP3    H242712   2.859   5.957   2.504  0.4573 -1.0013  0.5265
 6173TIP3   OH242713   0.392   5.397   1.966 -0.0760 -0.5879 -0.8176
 6173TIP3    H142714   0.319   5.358   1.919 -0.7671  0.7898 -0.9378
 6173TIP3    H242715   0.455   5.420   1.898  0.4703 -1.7233 -0.7190
 6174TIP3   OH242716   0.910   3.435   2.609 -0.1510 -0.8048 -0.7851
 6174TIP3    H142717   0.985   3.400   2.658  1.1822  1.0019 -1.4115
 6174TIP3    H242718   0.877   3.360   2.560 -0.0299 -2.1081  0.9886
 6175TIP3   OH242719   2.675   0.480   9.870 -0.6653 -0.1479 -0.1635
 6175TIP3    H142720   2.726   0.524   9.938 -0.5395  1.2599 -1.1204
 6175TIP3    H242721   2.585   0.507   9.887 -0.8434 -1.0483  0.3549
 6176TIP3   OH242722   1.630   4.662   8.456  0.5360  0.1217  0.1066
 6176TIP3    H142723   1.593   4.677   8.368  0.5499 -1.6380 -0.2336
 6176TIP3    H242724   1.626   4.567   8.468  1.6265  0.2240  1.5499
 6177TIP3   OH242725   5.004   4.717   8.327 -0.0549 -0.4165 -0.4441
 6177TIP3    H142726   4.912   4.726   8.353  0.1317  2.0381 -0.3609
 6177TIP3    H242727   5.025   4.626   8.344 -3.0567 -1.6611 -2.5150
 6178TIP3   OH242728   2.444   4.440   2.114  0.0730 -0.4369  0.3783
 6178TIP3    H142729   2.508   4.467   2.047  0.0000  1.0645  0.8866
 6178TIP3    H242730   2.495   4.437   2.195 -0.6132  1.5364  0.9321
 6179TIP3   OH242731   1.292   5.642   9.381  0.1233  0.0009  0.1437
 6179TIP3    H142732   1.244   5.580   9.436  0.7535 -0.7523 -0.1304
 6179TIP3    H242733   1.225   5.685   9.329 -0.2669 -1.0360 -0.2373
 6180TIP3   OH242734   4.958   6.415   0.402 -1.1147 -0.0724 -0.2846
 6180TIP3    H142735   4.972   6.499   0.445 -3.2551 -0.6369  1.7144
 6180TIP3    H242736   5.008   6.421   0.321  0.7815  2.1629  0.9421
 6181TIP3   OH242737   4.014   7.262   2.413  0.4760  0.7682 -0.3126
 6181TIP3    H142738   3.949   7.226   2.354 -1.0520  1.8118  0.6690
 6181TIP3    H242739   4.016   7.200   2.487  0.7089  0.6652 -0.4042
 6182TIP3   OH242740   4.403   2.909   8.881 -0.2409 -0.5929  0.5491
 6182TIP3    H142741   4.412   2.821   8.919  0.8242 -0.9533 -0.4792
 6182TIP3    H242742   4.491   2.933   8.854 -0.5441  0.7443  0.6732
 6183TIP3   OH242743   1.041   5.466   1.094  0.3702  0.0843 -0.2275
 6183TIP3    H142744   1.047   5.536   1.159  2.3681 -1.4063  1.3698
 6183TIP3    H242745   1.061   5.507   1.011  0.5354  1.5690  0.5217
 6184TIP3   OH242746   6.029   0.034   0.417  0.1972  0.4644 -0.3416
 6184TIP3    H142747   6.095   0.081   0.468  1.7748 -1.1585 -0.7964
 6184TIP3    H242748   6.078  -0.006   0.346 -1.6296  0.9089 -1.9326
 6185TIP3   OH242749   2.871   2.096   1.651  0.3665 -0.1539  0.2291
 6185TIP3    H142750   2.785   2.136   1.636 -0.3034 -1.7307 -0.3364
 6185TIP3    H242751   2.933   2.158   1.613 -0.5264  0.8780  0.3853
 6186TIP3   OH242752   0.056   0.055   1.950 -0.4051 -0.3226 -0.1018
 6186TIP3    H142753  -0.019   0.087   1.901 -0.9045 -1.0652  0.1568
 6186TIP3    H242754   0.046   0.093   2.038  0.1869  0.5533 -0.3975
 6187TIP3   OH242755   4.183   3.795   0.111  0.6539 -0.1117  0.2681
 6187TIP3    H142756   4.097   3.829   0.137 -0.4454  1.4025 -4.3780
 6187TIP3    H242757   4.164   3.729   0.044  3.1065 -0.4399 -0.2064
 6188TIP3   OH242758   6.922   6.657   0.015 -0.2406 -0.3107  0.2321
 6188TIP3    H142759   6.840   6.618   0.046 -0.3806  0.0694  0.3447
 6188TIP3    H242760   6.926   6.631  -0.077 -1.6966  1.5879 -0.4557
 6189TIP3   OH242761   6.948   5.864   7.899 -0.5663  1.0006 -0.2573
 6189TIP3    H142762   6.918   5.955   7.909  0.5353  1.6012 -1.9372
 6189TIP3    H242763   6.872   5.817   7.865 -1.0713  1.3352  0.3738
 6190TIP3   OH242764   3.452   5.812   1.097 -0.4251 -0.3230  0.1103
 6190TIP3    H142765   3.464   5.845   1.186  0.3872  0.0434 -0.1236
 6190TIP3    H242766   3.524   5.750   1.085  0.3730  0.7466 -0.7979
 6191TIP3   OH242767   0.306   1.636   9.501  0.7785 -0.3155 -0.5467
 6191TIP3    H142768   0.247   1.668   9.569 -1.7479  0.2032 -2.7986
 6191TIP3    H242769   0.393   1.636   9.541 -0.4509  0.8384  2.3158
 6192TIP3   OH242770   5.932   4.501   8.854  0.0108 -0.2813 -0.0731
 6192TIP3    H142771   5.895   4.454   8.779 -2.4523  0.9656  0.2507
 6192TIP3    H242772   5.957   4.586   8.820 -3.6311  1.3448  0.8444
 6193TIP3   OH242773   5.588   1.385   2.677 -0.0636  0.3415 -0.7950
 6193TIP3    H142774   5.548   1.376   2.591 -0.1365  0.1121 -0.7373
 6193TIP3    H242775   5.516   1.375   2.739  0.4024 -2.6188 -0.5842
 6194TIP3   OH242776   6.135   5.369   9.888 -0.0406  0.1941 -0.2845
 6194TIP3    H142777   6.219   5.340   9.923 -0.2044 -1.3194 -1.0534
 6194TIP3    H242778   6.117   5.451   9.934  1.6125  0.3037  0.2395
 6195TIP3   OH242779   5.662   4.150   9.754  0.5696  0.2924 -0.5051
 6195TIP3    H142780   5.676   4.084   9.686  2.8438  1.4134 -1.2330
 6195TIP3    H242781   5.730   4.216   9.737  0.5462  1.1277  2.2371
 6196TIP3   OH242782   4.874   1.192   7.857  0.2064  0.2093  0.4016
 6196TIP3    H142783   4.893   1.233   7.772  1.5352  0.2023  0.6751
 6196TIP3    H242784   4.947   1.217   7.912 -0.1855 -0.5518  1.2898
 6197TIP3   OH242785   1.219   4.633   0.602  0.4983  0.3996 -0.4238
 6197TIP3    H142786   1.151   4.700   0.599 -2.2188 -1.9333  2.0045
 6197TIP3    H242787   1.180   4.558   0.558  1.5575 -0.9345  0.8179
 6198TIP3   OH242788   6.854   6.888   7.200 -0.1123  0.1472  0.0136
 6198TIP3    H142789   6.946   6.871   7.178 -0.5797 -2.5418 -0.1735
 6198TIP3    H242790   6.823   6.944   7.128  0.9680 -0.2319 -0.7831
 6199TIP3   OH242791   1.715   7.414   9.753  0.0670 -0.2793  0.1921
 6199TIP3    H142792   1.729   7.363   9.673  1.0704 -0.7832  0.6746
 6199TIP3    H242793   1.797   7.462   9.766 -1.0337  1.9405 -0.5492
 6200TIP3   OH242794   3.861   7.044   7.682  0.2021  0.1736  0.0569
 6200TIP3    H142795   3.946   7.084   7.666 -0.1768  0.5596 -1.0253
 6200TIP3    H242796   3.805   7.117   7.708 -0.1269  0.1152 -0.4985
 6201TIP3   OH242797   6.080   2.131   9.813 -0.1439 -0.1526 -0.0328
 6201TIP3    H142798   6.111   2.159   9.900  0.4460  2.3010 -0.9543
 6201TIP3    H242799   6.141   2.061   9.788  0.4170 -0.0736  1.0286
 6202TIP3   OH242800   1.187   4.951   9.712  0.2338 -0.1866 -0.2504
 6202TIP3    H142801   1.107   4.915   9.752 -0.5673  0.5033 -1.1899
 6202TIP3    H242802   1.155   5.017   9.650  1.5803  0.7198 -0.0145
 6203TIP3   OH242803   0.813   4.048   0.464 -0.1671 -0.3791  0.2520
 6203TIP3    H142804   0.869   3.988   0.512  0.9890  0.4714  0.0323
 6203TIP3    H242805   0.846   4.044   0.374  0.5666  1.2216  0.4007
 6204TIP3   OH242806   6.506   3.725   8.917  0.2216  0.9859 -0.0410
 6204TIP3    H142807   6.477   3.812   8.891 -0.9068  0.8771  0.7862
 6204TIP3    H242808   6.505   3.727   9.013 -5.3048 -1.5277  0.3288
 6205TIP3   OH242809   6.680   4.836   1.917 -0.2368  0.4767  0.4279
 6205TIP3    H142810   6.632   4.754   1.910 -1.3125  1.1668 -0.5982
 6205TIP3    H242811   6.632   4.887   1.982  0.7809  0.0982  1.5292
 6206TIP3   OH242812   0.659   5.042   8.682  0.0338 -0.7671 -0.4833
 6206TIP3    H142813   0.744   5.008   8.653 -0.5559 -1.5481 -1.3443
 6206TIP3    H242814   0.598   5.013   8.615 -1.2303 -1.7507  1.0350
 6207TIP3   OH242815   3.133   3.247   0.323 -0.4259  0.4088  0.4379
 6207TIP3    H142816   3.053   3.272   0.275 -0.0486  0.4294 -0.1894
 6207TIP3    H242817   3.122   3.154   0.340 -1.8092  0.8921  2.7244
 6208TIP3   OH242818   3.403   0.998   0.063 -0.2463  0.4107 -0.1713
 6208TIP3    H142819   3.438   0.970  -0.021  0.5430  0.7752  0.0305
 6208TIP3    H242820   3.346   1.072   0.043 -1.0224 -0.2744 -0.5175
 6209TIP3   OH242821   1.355   5.588   7.416 -0.0540 -0.1257 -0.2408
 6209TIP3    H142822   1.278   5.636   7.387 -1.0215 -2.0835 -1.0981
 6209TIP3    H242823   1.343   5.578   7.511 -0.4754  0.2090 -0.2566
 6210TIP3   OH242824   5.596   5.277   8.556  0.0162 -0.1857 -0.4886
 6210TIP3    H142825   5.678   5.326   8.546  1.1395 -1.8354  0.1743
 6210TIP3    H242826   5.566   5.297   8.644  0.0772 -0.1325 -0.4801
 6211TIP3   OH242827   6.473   5.335   8.657  0.2287 -0.7229 -0.1147
 6211TIP3    H142828   6.555   5.382   8.670 -0.4875  0.4761  0.1925
 6211TIP3    H242829   6.428   5.383   8.587 -0.7351 -0.6323  0.5425
 6212TIP3   OH242830   4.364   2.331   7.575  0.1410  0.0778  0.2871
 6212TIP3    H142831   4.351   2.237   7.591  2.8544 -0.2663  0.9507
 6212TIP3    H242832   4.383   2.337   7.481 -0.6889  0.0761  0.1110
 6213TIP3   OH242833   6.248   2.143   0.899 -0.0050  0.4460  0.0872
 6213TIP3    H142834   6.301   2.211   0.942 -0.6960  0.7196  0.5380
 6213TIP3    H242835   6.243   2.073   0.964  0.8776 -0.1442 -0.4565
 6214TIP3   OH242836   4.549   1.510   0.049  0.3481  0.3351 -0.0754
 6214TIP3    H142837   4.589   1.467   0.125  0.0979  2.1203  1.1128
 6214TIP3    H242838   4.461   1.474   0.044  0.6776 -0.4972 -0.1354
 6215TIP3   OH242839   6.146   5.763   1.218  0.2704  0.1233  0.0801
 6215TIP3    H142840   6.223   5.805   1.180  0.1534  0.3194  0.0567
 6215TIP3    H242841   6.116   5.825   1.284  0.0727  0.0926  0.0178
 6216TIP3   OH242842   7.440   5.541   7.498 -0.3269 -0.8073  0.4794
 6216TIP3    H142843   7.360   5.589   7.478  0.4215  0.5703  0.6411
 6216TIP3    H242844   7.481   5.590   7.569  1.7202 -0.1628 -1.0141
 6217TIP3   OH242845   3.911   0.588   6.909  0.1503  0.1482  0.0401
 6217TIP3    H142846   3.852   0.537   6.964 -1.0446  0.1444 -1.1664
 6217TIP3    H242847   3.980   0.618   6.968 -0.7113 -0.4031  1.3777
 6218TIP3   OH242848   5.020   0.318   0.071 -1.0708 -0.2571  0.0795
 6218TIP3    H142849   4.940   0.266   0.066 -0.6135 -0.9633  0.0360
 6218TIP3    H242850   5.062   0.289   0.152 -0.0748 -1.0368 -0.6959
 6219TIP3   OH242851   1.638   5.376   1.377 -0.8142 -0.2493  0.2536
 6219TIP3    H142852   1.560   5.351   1.327 -1.9003  4.3851 -0.8109
 6219TIP3    H242853   1.707   5.384   1.311 -1.1394  1.7099  0.1064
 6220TIP3   OH242854   6.234   5.193   2.432 -0.7334 -0.6922  0.1441
 6220TIP3    H142855   6.192   5.274   2.403 -1.4208 -1.4400 -1.0090
 6220TIP3    H242856   6.328   5.211   2.426 -0.8775  0.1642  0.3322
 6221TIP3   OH242857   4.606   2.063   8.024  0.7649  0.0508  0.2707
 6221TIP3    H142858   4.526   2.112   8.005  1.1983  0.5446 -0.3054
 6221TIP3    H242859   4.604   2.049   8.119 -1.4050 -2.3853 -0.0290
 6222TIP3   OH242860   4.371   6.509   9.277  0.0022  0.0143  0.4227
 6222TIP3    H142861   4.450   6.518   9.330 -0.4190  1.5008  0.8565
 6222TIP3    H242862   4.400   6.469   9.195  1.3149  1.1633  0.3074
 6223TIP3   OH242863   5.498   0.632   9.970 -0.0359 -0.3312  0.3882
 6223TIP3    H142864   5.454   0.548   9.974 -3.3749  0.9428 -2.9235
 6223TIP3    H242865   5.550   0.628   9.889  0.3261  0.5070  0.5618
 6224TIP3   OH242866   4.766   0.491   1.507 -0.0051  0.1306  0.0501
 6224TIP3    H142867   4.725   0.493   1.593 -2.3430  0.5106 -1.0146
 6224TIP3    H242868   4.698   0.521   1.447  1.4846 -0.3589 -1.9732
 6225TIP3   OH242869   6.578   1.146   9.288  0.0893  0.0938 -0.1270
 6225TIP3    H142870   6.554   1.221   9.233  0.8978  0.9487  0.6537
 6225TIP3    H242871   6.658   1.174   9.333 -0.4709 -0.6327  1.3859
 6226TIP3   OH242872   6.883   3.891   9.948 -0.4748  0.4866  0.4297
 6226TIP3    H142873   6.965   3.934   9.975  2.7350 -3.0286 -2.5254
 6226TIP3    H242874   6.866   3.927   9.860  0.4748 -1.7334 -0.7472
 6227TIP3   OH242875   4.352   2.337   9.503 -0.4408 -0.0377 -0.1644
 6227TIP3    H142876   4.403   2.265   9.539 -1.1225  0.2815  1.5539
 6227TIP3    H242877   4.417   2.394   9.461  0.2735 -0.9111 -0.2814
 6228TIP3   OH242878   6.908   1.944   1.318 -0.0542  0.2720 -0.1598
 6228TIP3    H142879   6.823   1.973   1.285  0.5668  1.4659 -0.7573
 6228TIP3    H242880   6.954   2.024   1.340  0.2228 -0.4157  2.0301
 6229TIP3   OH242881   0.498   6.849   7.721 -0.1202  0.3274 -0.2282
 6229TIP3    H142882   0.572   6.789   7.727  2.5273  3.1192 -1.7781
 6229TIP3    H242883   0.497   6.876   7.629 -3.0794  0.5126 -0.2478
 6230TIP3   OH242884   1.336   6.912   9.873 -0.2298  0.1039 -0.5473
 6230TIP3    H142885   1.289   6.967   9.936  0.4965 -0.5880  0.6282
 6230TIP3    H242886   1.421   6.955   9.862  0.6876 -1.1828  1.0557
 6231TIP3   OH242887   7.418   1.243   0.582  0.2410  0.1905 -0.2746
 6231TIP3    H142888   7.468   1.301   0.640  0.4967 -0.2242 -0.0722
 6231TIP3    H242889   7.486   1.197   0.531  0.0526 -0.1455 -0.2231
 6232TIP3   OH242890   5.945   7.158   0.198  0.4085 -0.6106  0.0691
 6232TIP3    H142891   5.991   7.198   0.124  0.9064  2.0278  1.6837
 6232TIP3    H242892   5.873   7.218   0.217 -0.3369 -1.7746  1.0931
 6233TIP3   OH242893   3.638   4.757   1.939 -0.2265  0.1797  0.2729
 6233TIP3    H142894   3.546   4.732   1.935 -0.5687  1.1427  1.5202
 6233TIP3    H242895   3.682   4.697   1.878 -2.0159  1.3850 -2.3885
 6234TIP3   OH242896   3.162   4.599   1.297  0.0769  0.0911 -0.2123
 6234TIP3    H142897   3.073   4.633   1.287 -0.0667 -0.3817 -0.5615
 6234TIP3    H242898   3.183   4.563   1.211  0.4198 -0.2511  0.0162
 6235TIP3   OH242899   2.065   4.791   2.944 -0.5806  0.5799  0.9230
 6235TIP3    H142900   2.110   4.855   2.999 -0.0253  0.9542  0.0494
 6235TIP3    H242901   2.133   4.728   2.919 -1.1096 -0.3613  1.7439
 6236TIP3   OH242902   1.825   0.130   2.620 -0.6481 -0.0177  0.5868
 6236TIP3    H142903   1.858   0.158   2.706  2.7167 -1.2892 -0.1566
 6236TIP3    H242904   1.782   0.208   2.585 -1.2092  0.8442  2.9520
 6237TIP3   OH242905   2.904   6.686   1.510 -0.1082 -0.5012  0.3643
 6237TIP3    H142906   2.988   6.646   1.486  0.0666 -0.3856  0.7652
 6237TIP3    H242907   2.908   6.774   1.472 -1.5425 -1.6393 -2.7316
 6238TIP3   OH242908   0.879   0.301   0.959  0.3150  0.2548 -0.4849
 6238TIP3    H142909   0.964   0.334   0.988 -0.2132  1.2348 -0.0069
 6238TIP3    H242910   0.900   0.238   0.891  1.4706 -0.2126  0.2753
 6239TIP3   OH242911   3.998   4.011   1.990 -0.5961  0.1906 -0.2170
 6239TIP3    H142912   3.945   4.030   1.913 -2.5124  0.1207  1.0257
 6239TIP3    H242913   4.021   4.097   2.025 -1.2743  0.2326  0.1380
 6240TIP3   OH242914   5.646   1.276   2.336  0.2513  1.0217 -0.4443
 6240TIP3    H142915   5.689   1.358   2.312 -1.5953  1.2832 -3.1739
 6240TIP3    H242916   5.574   1.302   2.393 -0.1694  1.2796 -1.0893
 6241TIP3   OH242917   3.824   2.760   0.617 -0.5428  0.3024 -0.2523
 6241TIP3    H142918   3.789   2.839   0.659  0.9503  0.0192  1.6100
 6241TIP3    H242919   3.888   2.793   0.554  1.9774  0.6084  2.3020
 6242TIP3   OH242920   0.297   2.946   9.730  0.3028  0.4945  0.0800
 6242TIP3    H142921   0.214   2.898   9.720 -0.4275  1.1395  2.4186
 6242TIP3    H242922   0.349   2.891   9.788  1.4159  0.2709 -1.0933
 6243TIP3   OH242923   4.301   0.724   8.814  0.5352  0.3771  0.1661
 6243TIP3    H142924   4.359   0.710   8.888  0.1382  1.0656  0.6126
 6243TIP3    H242925   4.217   0.689   8.842  0.7335 -0.6986 -0.5117
 6244TIP3   OH242926   3.174   3.724   2.216  0.4220 -0.1045 -0.7162
 6244TIP3    H142927   3.139   3.689   2.135 -0.6055  0.4778 -0.5541
 6244TIP3    H242928   3.151   3.817   2.213 -2.5680 -0.6162  1.6414
 6245TIP3   OH242929   0.759   0.626   1.604  0.2269 -0.1807  0.7752
 6245TIP3    H142930   0.709   0.707   1.608 -0.8850 -0.7927 -0.2031
 6245TIP3    H242931   0.850   0.655   1.613 -0.2646  0.9160  2.8938
 6246TIP3   OH242932   3.240   6.362   8.611  0.4840  0.3407  0.2613
 6246TIP3    H142933   3.318   6.307   8.622  0.3566  0.1385  0.1611
 6246TIP3    H242934   3.174   6.303   8.576  0.4376  0.6358 -0.1511
 6247TIP3   OH242935   6.328   4.762   1.702 -0.2372 -0.3320  0.8449
 6247TIP3    H142936   6.294   4.697   1.763 -1.0607 -0.8112 -0.1194
 6247TIP3    H242937   6.338   4.841   1.755 -0.4595 -0.8809  1.7188
 6248TIP3   OH242938   3.724   3.788   8.839  0.3707 -0.3505 -0.0957
 6248TIP3    H142939   3.764   3.787   8.925  1.7682 -1.3380 -0.7143
 6248TIP3    H242940   3.797   3.787   8.778 -0.5899 -0.2421 -1.2963
 6249TIP3   OH242941   0.905   2.437   0.407 -0.3078  0.0719 -0.1100
 6249TIP3    H142942   0.826   2.426   0.461  0.2560  1.4527  1.0559
 6249TIP3    H242943   0.977   2.435   0.470  0.4505  0.5427 -0.9550
 6250TIP3   OH242944   2.565   4.267   2.503  0.1001 -0.0434 -0.0855
 6250TIP3    H142945   2.485   4.240   2.459 -0.1519 -0.1539  0.4310
 6250TIP3    H242946   2.635   4.218   2.458  0.0402  1.0256 -1.3880
 6251TIP3   OH242947   3.728   3.911   9.552 -0.0299 -0.1740  0.0096
 6251TIP3    H142948   3.640   3.891   9.584 -0.1949  1.2629  0.5298
 6251TIP3    H242949   3.783   3.913   9.631  0.2723 -0.0962 -0.1977
 6252TIP3   OH242950   0.874   6.127   8.568  0.3394 -0.4764  0.0883
 6252TIP3    H142951   0.814   6.052   8.571 -0.6748  0.3478  1.4452
 6252TIP3    H242952   0.930   6.115   8.644  0.5476 -0.1555 -0.0138
 6253TIP3   OH242953   0.378   5.089   7.019 -0.1352 -0.5263 -0.2410
 6253TIP3    H142954   0.433   5.088   6.941  1.1565 -0.2446  0.6273
 6253TIP3    H242955   0.296   5.048   6.992 -0.2580  0.8268 -2.1259
 6254TIP3   OH242956   4.539   1.722   8.169  0.0080  0.4661  0.0496
 6254TIP3    H142957   4.471   1.657   8.152  0.1978 -0.0254  1.0859
 6254TIP3    H242958   4.491   1.804   8.183 -0.3228  0.2675  0.0949
 6255TIP3   OH242959   4.817   7.213   0.835  0.4671 -0.4177  0.4683
 6255TIP3    H142960   4.754   7.232   0.905  1.1670  0.9301  0.7736
 6255TIP3    H242961   4.846   7.124   0.853 -0.6073 -0.7005  0.9021
 6256TIP3   OH242962   3.343   3.110   9.813  0.0292 -0.1046  0.6574
 6256TIP3    H142963   3.364   3.083   9.903 -1.0498  0.7067  1.1839
 6256TIP3    H242964   3.261   3.064   9.793  1.2092 -1.7540 -0.6496
 6257TIP3   OH242965   1.294   1.010   7.949 -0.3948  0.2220 -0.2112
 6257TIP3    H142966   1.304   1.057   8.031 -1.2665  0.2808 -0.1325
 6257TIP3    H242967   1.373   1.032   7.899 -0.5321  1.3281  0.0381
 6258TIP3   OH242968   6.322   4.305   2.233 -0.4698 -0.6892  0.1114
 6258TIP3    H142969   6.391   4.246   2.265  0.3500  1.1514  1.9222
 6258TIP3    H242970   6.252   4.299   2.299  0.4155  1.6739  1.3870
 6259TIP3   OH242971   3.445   0.421   0.973  0.3192  0.3307  0.0546
 6259TIP3    H142972   3.396   0.430   0.891 -0.8815  2.4670  0.9086
 6259TIP3    H242973   3.380   0.434   1.041  1.3419 -1.1407  1.3747
 6260TIP3   OH242974   0.085   4.240   9.987 -0.4414 -0.0464 -0.0183
 6260TIP3    H142975   0.041   4.155  10.000 -0.9957  0.4539  1.7083
 6260TIP3    H242976   0.174   4.217   9.964 -0.0258 -1.2018  2.3490
 6261TIP3   OH242977   1.779   0.275   6.445  0.3912  0.6148  0.3506
 6261TIP3    H142978   1.770   0.265   6.540 -0.9430  1.0865  0.2921
 6261TIP3    H242979   1.824   0.196   6.417 -0.3818 -0.1497  1.2168
 6262TIP3   OH242980   4.056   3.771   7.998  0.3877 -0.0275 -0.5378
 6262TIP3    H142981   4.138   3.724   7.988  0.7992  0.3627  0.7372
 6262TIP3    H242982   4.048   3.824   7.918  3.1713  2.5820  0.7075
 6263TIP3   OH242983   2.163   5.575   1.918 -0.0676  0.0482  0.3339
 6263TIP3    H142984   2.257   5.561   1.929 -0.3281 -0.8498  1.6493
 6263TIP3    H242985   2.128   5.574   2.007 -1.1067  2.1314  0.0238
 6264TIP3   OH242986   3.778   1.524   8.822 -0.3607 -0.3152  0.2371
 6264TIP3    H142987   3.740   1.612   8.834  0.3048 -0.1057  0.8514
 6264TIP3    H242988   3.736   1.491   8.742  1.3029  1.6156 -1.5744
 6265TIP3   OH242989   5.744   7.248   2.235  0.8064  0.0736  0.2318
 6265TIP3    H142990   5.763   7.174   2.293  1.7535 -0.4349 -0.6926
 6265TIP3    H242991   5.809   7.240   2.165  0.4089  1.3326 -0.2946
 6266TIP3   OH242992   6.529   1.266   7.754  0.4959  0.0554 -0.0046
 6266TIP3    H142993   6.538   1.176   7.724  1.5678 -0.1733  0.9508
 6266TIP3    H242994   6.491   1.258   7.842  0.9197  0.5084  0.2237
 6267TIP3   OH242995   4.554   2.899   1.141 -0.0656  0.2680  0.0348
 6267TIP3    H142996   4.599   2.834   1.088  0.0300 -0.0435  0.4915
 6267TIP3    H242997   4.496   2.849   1.198 -0.4679  0.6230 -0.0588
 6268TIP3   OH242998   4.069   1.594   1.079 -0.6014  0.0820  0.8354
 6268TIP3    H142999   4.071   1.631   1.167 -0.0341  0.5118  0.6496
 6268TIP3    H243000   4.104   1.663   1.023  1.9119 -1.2186  0.6741
 6269TIP3   OH243001   1.762   6.509   1.210  0.3020 -0.3717  0.6463
 6269TIP3    H143002   1.723   6.442   1.154  2.4375 -1.3454  0.2369
 6269TIP3    H243003   1.732   6.592   1.171  0.5905 -1.0434 -1.1180
 6270TIP3   OH243004   6.713   3.430   2.091 -0.7529  0.5585 -0.4393
 6270TIP3    H143005   6.744   3.505   2.140 -0.8019  0.1565  0.2282
 6270TIP3    H243006   6.790   3.375   2.080 -1.2276 -0.6599  1.6207
 6271TIP3   OH243007   3.232   3.741   9.145  0.1932  0.1140  0.4885
 6271TIP3    H143008   3.314   3.708   9.107 -0.1305 -0.9099  0.6715
 6271TIP3    H243009   3.180   3.663   9.162 -1.6770  0.8151 -1.5150
 6272TIP3   OH243010   2.234   2.806   0.919  0.1142  0.1157 -0.6424
 6272TIP3    H143011   2.148   2.837   0.947 -1.0278 -2.4952 -0.9762
 6272TIP3    H243012   2.223   2.784   0.826  1.1010 -0.3715 -0.6621
 6273TIP3   OH243013   3.123   4.586   7.364 -0.2349  0.0187  0.5638
 6273TIP3    H143014   3.091   4.658   7.417 -1.6752  0.4631 -0.8245
 6273TIP3    H243015   3.162   4.525   7.426 -0.7791  1.0659  1.9730
 6274TIP3   OH243016   1.219   6.925   8.402  0.5400 -0.1329 -0.1590
 6274TIP3    H143017   1.288   6.917   8.336  1.8610  2.4002  0.7549
 6274TIP3    H243018   1.165   6.999   8.372  1.1415  1.0380  1.4709
 6275TIP3   OH243019   4.466   2.565   7.050  0.5449  0.1773  0.2387
 6275TIP3    H143020   4.484   2.627   7.121  2.8429 -0.9708  0.7618
 6275TIP3    H243021   4.378   2.532   7.068  0.2672  1.4309  1.3602
 6276TIP3   OH243022   1.891   6.209   7.928 -0.1467  0.0007 -0.2430
 6276TIP3    H143023   1.803   6.200   7.891 -0.6202  1.6280  0.3741
 6276TIP3    H243024   1.913   6.122   7.959 -1.4528 -0.4931 -0.6229
 6277TIP3   OH243025   4.720   3.458   9.737 -0.0004 -0.2538  0.5726
 6277TIP3    H143026   4.638   3.478   9.782  0.0376 -0.5538  0.7751
 6277TIP3    H243027   4.695   3.436   9.648 -0.0498  0.6532  0.3550
 6278TIP3   OH243028   6.013   0.096   9.418  0.0229  0.8483  0.0785
 6278TIP3    H143029   5.967   0.077   9.499  1.5369  0.2987  0.8261
 6278TIP3    H243030   6.064   0.175   9.437  0.8430  0.3780 -0.1531
 6279TIP3   OH243031   2.223   1.257   2.506 -0.2199 -0.4971 -0.0674
 6279TIP3    H143032   2.189   1.345   2.489 -0.5733 -0.1626  2.0588
 6279TIP3    H243033   2.145   1.202   2.510 -0.2417 -0.4147  1.0779
 6280TIP3   OH243034   5.351   0.849   0.878  0.3059  0.4108 -0.3484
 6280TIP3    H143035   5.296   0.800   0.817  0.0113 -0.5539  0.6680
 6280TIP3    H243036   5.330   0.941   0.861  1.1078  0.2557 -2.5218
 6281TIP3   OH243037   1.355   5.414   2.380  0.1203 -0.2651 -0.3937
 6281TIP3    H143038   1.281   5.383   2.432 -0.7542 -0.4567 -1.6988
 6281TIP3    H243039   1.360   5.508   2.399  0.0295 -0.3929  0.2803
 6282TIP3   OH243040   3.254   0.738   0.232 -0.1419 -0.4122 -0.3363
 6282TIP3    H143041   3.332   0.757   0.283  0.0750 -2.0191 -0.0167
 6282TIP3    H243042   3.252   0.806   0.165  0.8424  0.3721  0.3994
 6283TIP3   OH243043   2.460   1.743   1.714  0.5352 -0.3111  0.1414
 6283TIP3    H143044   2.552   1.766   1.701  1.1499 -1.2686  2.2987
 6283TIP3    H243045   2.460   1.648   1.725 -0.8882 -0.4656 -0.9332
 6284TIP3   OH243046   5.504   4.073   2.139  0.5656 -0.7165  0.1057
 6284TIP3    H143047   5.531   4.102   2.051 -2.1290  2.2007  0.0679
 6284TIP3    H243048   5.483   3.980   2.128  0.9456 -0.5912 -2.1795
 6285TIP3   OH243049   5.895   2.753   0.297  0.0232  0.3343 -0.3697
 6285TIP3    H143050   5.974   2.796   0.328 -0.0271 -0.5549  1.1081
 6285TIP3    H243051   5.824   2.799   0.342 -0.1968  0.2349 -0.6124
 6286TIP3   OH243052   3.637   2.394   1.959 -0.4028 -0.2325  0.2344
 6286TIP3    H143053   3.589   2.335   1.900 -0.5521  0.4273 -0.3082
 6286TIP3    H243054   3.609   2.482   1.933  1.2392  0.1870 -0.2313
 6287TIP3   OH243055   5.426   7.109   9.691  0.1045 -0.6916 -0.6610
 6287TIP3    H143056   5.503   7.086   9.639 -0.2633  1.0128 -2.0109
 6287TIP3    H243057   5.372   7.163   9.634 -1.1589 -0.1959  0.9087
 6288TIP3   OH243058   0.982   3.617   7.283  0.3650  0.3946  0.5292
 6288TIP3    H143059   1.007   3.646   7.195 -0.1344  1.4109  0.6978
 6288TIP3    H243060   0.945   3.530   7.271  0.2120  0.5651 -0.2849
 6289TIP3   OH243061   3.368   5.779   8.605 -0.1152  0.4327 -0.2030
 6289TIP3    H143062   3.425   5.704   8.620  0.1653  0.7263  0.2237
 6289TIP3    H243063   3.308   5.750   8.536 -2.0844 -1.3327  2.0553
 6290TIP3   OH243064   3.812   1.138   1.240  0.6738 -0.3291  0.2937
 6290TIP3    H143065   3.852   1.054   1.262  2.1677  0.3278  0.2061
 6290TIP3    H243066   3.866   1.203   1.284 -1.7378  0.5490  2.2126
 6291TIP3   OH243067   2.648   6.627   0.085  0.2775 -0.0861  0.1354
 6291TIP3    H143068   2.610   6.632   0.172  0.2206  1.8078  0.0351
 6291TIP3    H243069   2.592   6.565   0.038 -1.3464  0.9376  0.6482
 6292TIP3   OH243070   4.015   2.369   0.591 -0.0630  0.2597  1.1362
 6292TIP3    H143071   4.002   2.343   0.682 -1.3629  0.1426  0.9351
 6292TIP3    H243072   3.931   2.406   0.564  0.2608  0.1797 -0.0536
 6293TIP3   OH243073   2.592   6.104   7.646 -0.0158 -0.9450 -0.6230
 6293TIP3    H143074   2.678   6.145   7.659 -0.3767 -0.0267 -1.0607
 6293TIP3    H243075   2.612   6.012   7.632  0.7287 -1.2224  1.7964
 6294TIP3   OH243076   6.345   5.531   1.940  0.3655 -0.2129  0.2264
 6294TIP3    H143077   6.282   5.470   1.900  1.3735 -2.1676  1.4797
 6294TIP3    H243078   6.329   5.524   2.034  0.3414  1.7011  0.3949
 6295TIP3   OH243079   3.026   5.451   9.470 -0.2457 -0.0983 -0.0691
 6295TIP3    H143080   3.024   5.546   9.456  0.9445 -0.1028 -0.3360
 6295TIP3    H243081   2.941   5.421   9.439 -0.7646  0.9214  0.3090
 6296TIP3   OH243082   2.705   0.560   0.440  0.3162  0.1736  0.1591
 6296TIP3    H143083   2.796   0.532   0.451  0.0702 -0.3063  1.0695
 6296TIP3    H243084   2.658   0.515   0.509 -0.7375 -0.1152 -0.7334
 6297TIP3   OH243085   4.332   3.965   7.920  0.4177 -0.2972  0.1702
 6297TIP3    H143086   4.242   3.975   7.887  1.1728  0.0599 -1.9778
 6297TIP3    H243087   4.384   3.949   7.841  2.3039 -0.1316  1.3255
 6298TIP3   OH243088   6.481   4.209   1.598  0.0421  0.0430  0.8637
 6298TIP3    H143089   6.544   4.179   1.532 -0.2364 -1.6384  1.3163
 6298TIP3    H243090   6.464   4.131   1.652 -1.0405  0.9392  1.8659
 6299TIP3   OH243091   3.157   5.021   1.779 -0.2288  0.0683  0.3421
 6299TIP3    H143092   3.123   5.107   1.806 -0.6414 -0.5983  2.0254
 6299TIP3    H243093   3.252   5.033   1.775 -0.2550  0.5201  0.9113
 6300TIP3   OH243094   0.757   2.407   0.786 -0.5402 -0.0661 -0.2082
 6300TIP3    H143095   0.790   2.331   0.739 -1.4731  0.3423 -1.5898
 6300TIP3    H243096   0.665   2.388   0.802 -0.6590  0.5599 -0.1059
 6301TIP3   OH243097   3.468   0.698   1.979  0.1042 -0.1519  0.5874
 6301TIP3    H143098   3.462   0.622   2.037  1.0388 -1.0501 -0.4703
 6301TIP3    H243099   3.395   0.688   1.918 -0.1475  0.1540  0.8289
 6302TIP3   OH243100   2.698   6.308   0.811  0.0781 -0.8639  0.5394
 6302TIP3    H143101   2.774   6.288   0.864  1.1464  2.4549  0.5048
 6302TIP3    H243102   2.657   6.383   0.854 -2.6984 -1.9382  0.0322
 6303TIP3   OH243103   0.089   0.373   0.800 -0.4619  0.0258  0.1936
 6303TIP3    H143104   0.090   0.312   0.727 -3.8903  0.4260 -0.3881
 6303TIP3    H243105   0.160   0.434   0.782  0.4008 -1.3818 -1.4099
 6304TIP3   OH243106   6.593   5.888   0.644  0.4710 -0.1912 -0.8953
 6304TIP3    H143107   6.665   5.842   0.600  1.5859  0.8499 -0.1945
 6304TIP3    H243108   6.557   5.946   0.577 -1.4869 -2.5446 -2.0505
 6305TIP3   OH243109   1.952   6.480   2.375 -0.3652  0.3189 -0.5046
 6305TIP3    H143110   1.984   6.427   2.447 -0.1302  2.7628  1.3198
 6305TIP3    H243111   2.009   6.457   2.301  0.1760 -1.3633  0.3939
 6306TIP3   OH243112   2.316   0.857   9.161 -0.0181  0.2978  0.1934
 6306TIP3    H143113   2.380   0.866   9.232 -0.2945  1.0607  0.3597
 6306TIP3    H243114   2.231   0.874   9.203 -0.5238 -2.1643  0.2925
 6307TIP3   OH243115   5.678   2.014   0.226 -0.3539 -0.3840  0.8016
 6307TIP3    H143116   5.754   2.036   0.279 -1.2654  0.3809  1.8396
 6307TIP3    H243117   5.624   2.093   0.228 -0.7270 -0.5733 -0.7352
 6308TIP3   OH243118   1.260   3.865   2.015 -0.0311  0.4081  0.2423
 6308TIP3    H143119   1.247   3.882   1.922 -0.2842 -0.6811  0.0590
 6308TIP3    H243120   1.306   3.780   2.018  0.6825  0.8017  1.0904
 6309TIP3   OH243121   7.452   5.151   2.615 -0.3763 -0.1342 -0.2641
 6309TIP3    H143122   7.516   5.216   2.643 -0.5438 -0.1371  0.1311
 6309TIP3    H243123   7.412   5.120   2.696  1.2282 -2.3128 -0.2085
 6310TIP3   OH243124   0.169   0.263   8.651 -0.0803 -0.1376  0.0801
 6310TIP3    H143125   0.177   0.259   8.747 -2.0073  0.5084  0.3235
 6310TIP3    H243126   0.255   0.289   8.620  0.7771 -1.0237  1.5791
 6311TIP3   OH243127   1.437   4.342   2.107  0.1440 -0.1034  0.1730
 6311TIP3    H143128   1.379   4.398   2.054  0.5442  0.0167 -0.1418
 6311TIP3    H243129   1.489   4.294   2.043  0.0467 -0.5856  0.4487
 6312TIP3   OH243130   4.296   4.588   0.404 -0.3229  0.2938 -0.2662
 6312TIP3    H143131   4.359   4.531   0.361 -0.8688  0.7488 -1.7181
 6312TIP3    H243132   4.338   4.674   0.404  0.0794  0.1126  1.0139
 6313TIP3   OH243133   1.837   1.041   9.301 -0.4341 -0.5389 -0.3094
 6313TIP3    H143134   1.748   1.022   9.333 -0.4078 -1.3127 -0.6822
 6313TIP3    H243135   1.847   0.986   9.223  0.4249 -0.5638 -0.1913
 6314TIP3   OH243136   2.445   2.817   8.260 -0.0613  0.1753  0.2133
 6314TIP3    H143137   2.499   2.739   8.243 -2.8166 -1.8389 -0.0675
 6314TIP3    H243138   2.493   2.866   8.327  1.6933 -1.8750  0.5662
 6315TIP3   OH243139   0.257   6.728   0.805  0.3536  0.3286  0.0645
 6315TIP3    H143140   0.198   6.683   0.866 -0.7729  1.6054 -0.0516
 6315TIP3    H243141   0.256   6.673   0.727 -0.3945  0.1281  0.2038
 6316TIP3   OH243142   3.866   0.911   7.332 -0.3175 -0.2986 -0.2736
 6316TIP3    H143143   3.941   0.856   7.356  0.7144  1.9038  2.0960
 6316TIP3    H243144   3.890   0.950   7.248  1.5807  0.8387  0.7267
 6317TIP3   OH243145   3.691   1.136   1.607 -0.2800 -0.2177  0.3701
 6317TIP3    H143146   3.766   1.118   1.549 -1.0535 -1.8430 -0.1733
 6317TIP3    H243147   3.731   1.173   1.686  1.0812 -0.7543 -0.0280
 6318TIP3   OH243148   2.316   4.879   7.846  0.2354 -0.2631 -0.8547
 6318TIP3    H143149   2.336   4.861   7.754  0.6386 -0.5799 -0.7029
 6318TIP3    H243150   2.386   4.937   7.875  0.2363 -0.3500 -0.6832
 6319TIP3   OH243151   3.460   2.307   7.234  0.1119  0.0960 -0.0684
 6319TIP3    H143152   3.534   2.340   7.183  0.5081  1.2496  1.2204
 6319TIP3    H243153   3.406   2.261   7.169  0.8048  1.1488 -1.4531
 6320TIP3   OH243154   2.526   4.867   9.361  0.2012 -0.4746  0.8358
 6320TIP3    H143155   2.442   4.887   9.320  0.7486 -0.3327 -0.2456
 6320TIP3    H243156   2.531   4.927   9.435 -0.1846  0.2489  0.2862
 6321TIP3   OH243157   3.892   2.371   9.375 -0.2049  0.2182  0.2421
 6321TIP3    H143158   3.982   2.368   9.343  0.4034  0.1039  1.8884
 6321TIP3    H243159   3.862   2.281   9.371 -0.4327  0.3278 -0.7671
 6322TIP3   OH243160   3.604   0.555   7.620 -0.1158  0.4502 -0.1640
 6322TIP3    H143161   3.587   0.463   7.602 -2.1691  1.3424 -3.5191
 6322TIP3    H243162   3.689   0.573   7.580  0.0820  0.1545  0.1167
 6323TIP3   OH243163   2.902   6.317   7.246  0.2150 -0.3095  0.3039
 6323TIP3    H143164   2.960   6.355   7.180 -1.1777  2.0231  0.3214
 6323TIP3    H243165   2.831   6.277   7.196 -0.1893  0.3294  0.3713
 6324TIP3   OH243166   1.122   0.887   0.282  0.0480 -0.6676 -0.4510
 6324TIP3    H143167   1.216   0.877   0.299  0.5217  1.0729 -1.8278
 6324TIP3    H243168   1.105   0.828   0.209  0.0978 -0.8559 -0.3127
 6325TIP3   OH243169   2.294   3.279   9.098 -0.1886 -0.5489  0.6315
 6325TIP3    H143170   2.280   3.349   9.162  0.4955 -0.9132  1.1920
 6325TIP3    H243171   2.300   3.324   9.014  0.2918  0.0716  0.9907
 6326TIP3   OH243172   7.285   6.875   8.689  1.4011 -0.5007 -0.1201
 6326TIP3    H143173   7.286   6.779   8.683 -0.2812 -0.5873  0.2702
 6326TIP3    H243174   7.366   6.897   8.734  1.5648 -1.7964  0.2790
 6327TIP3   OH243175   5.146   6.349   7.462 -0.2001  0.1803 -0.1181
 6327TIP3    H143176   5.236   6.374   7.485  1.2370 -1.1435 -3.7054
 6327TIP3    H243177   5.144   6.254   7.474 -1.2168  0.2265  0.1322
 6328TIP3   OH243178   2.064   2.926   1.652 -0.4827 -0.6041  0.7466
 6328TIP3    H143179   2.090   2.974   1.731  0.9782 -2.3107  1.3800
 6328TIP3    H243180   1.972   2.901   1.668 -1.0480  1.3093  0.6909
 6329TIP3   OH243181   7.145   6.911   1.343  0.2684 -0.0186  0.5381
 6329TIP3    H143182   7.218   6.867   1.299 -0.1525 -0.5210  0.3218
 6329TIP3    H243183   7.078   6.919   1.275 -0.3190 -0.6295  1.0234
 6330TIP3   OH243184   6.460   5.641   8.741 -0.4101 -0.1742 -0.0991
 6330TIP3    H143185   6.397   5.569   8.741  1.1746 -1.6761  1.6711
 6330TIP3    H243186   6.499   5.639   8.828  1.3181  1.3711 -0.7544
 6331TIP3   OH243187   1.337   3.859   9.504  0.2515  0.0251  0.3894
 6331TIP3    H143188   1.260   3.806   9.524  1.0945 -1.1379  0.6387
 6331TIP3    H243189   1.372   3.821   9.423  0.0729  1.1068 -0.2094
 6332TIP3   OH243190   1.423   4.453   7.030 -0.3272 -0.1845 -0.4482
 6332TIP3    H143191   1.470   4.536   7.020  1.6453 -1.1188  0.4535
 6332TIP3    H243192   1.400   4.427   6.941  1.6111 -0.0604 -1.0170
 6333TIP3   OH243193   2.062   5.141   8.806 -0.2674  0.7583 -0.7234
 6333TIP3    H143194   1.978   5.099   8.788  0.6685 -1.1976 -0.7555
 6333TIP3    H243195   2.119   5.114   8.734  0.2241  2.6859 -1.1297
 6334TIP3   OH243196   6.602   1.587   7.388 -0.6778  0.1660  0.3263
 6334TIP3    H143197   6.581   1.572   7.480 -0.7537 -0.9541  0.1450
 6334TIP3    H243198   6.622   1.680   7.382 -1.0064  0.3137  1.4085
 6335TIP3   OH243199   5.661   3.378   9.331  0.3736 -0.4192 -0.3032
 6335TIP3    H143200   5.603   3.412   9.263 -1.3565 -3.1501 -0.3686
 6335TIP3    H243201   5.627   3.415   9.412 -0.6082 -0.8770 -0.4865
 6336TIP3   OH243202   1.601   2.005   8.147 -0.1010  0.2358 -0.5057
 6336TIP3    H143203   1.663   2.049   8.205 -0.6047  1.1933 -0.6757
 6336TIP3    H243204   1.632   1.914   8.143 -0.3922 -0.0073  1.7088
 6337TIP3   OH243205   1.112   2.573   9.387  0.2670  0.1650 -0.1369
 6337TIP3    H143206   1.190   2.537   9.345  0.0404 -0.4271 -0.0647
 6337TIP3    H243207   1.073   2.498   9.432  0.2617  0.6867  0.7518
 6338TIP3   OH243208   1.477   4.343   1.393 -0.4914 -0.0417 -0.7670
 6338TIP3    H143209   1.398   4.331   1.446 -0.6326 -1.3362 -1.2299
 6338TIP3    H243210   1.534   4.398   1.447 -2.3491  2.4070 -1.1134
 6339TIP3   OH243211   6.427   1.006   8.315  0.3529 -0.1274  0.0550
 6339TIP3    H143212   6.436   0.973   8.404  1.7053 -1.7204 -0.6203
 6339TIP3    H243213   6.474   1.089   8.315 -0.4025  0.3152  1.0210
 6340TIP3   OH243214   1.118   0.877   9.692  0.2968  0.1521  0.4408
 6340TIP3    H143215   1.181   0.942   9.724  0.1587  0.3636  0.2920
 6340TIP3    H243216   1.165   0.832   9.621  0.1318  0.6166  0.0244
 6341TIP3   OH243217   3.893   5.533   9.468 -0.0653  0.0646 -0.1043
 6341TIP3    H143218   3.815   5.582   9.443 -0.2650 -0.3115 -0.2198
 6341TIP3    H243219   3.903   5.467   9.399 -0.4094 -0.7439  0.6095
 6342TIP3   OH243220   6.671   6.372   1.714 -0.1074 -0.3998  0.3393
 6342TIP3    H143221   6.581   6.395   1.692 -0.1327 -0.7475  0.0813
 6342TIP3    H243222   6.712   6.456   1.734 -1.0109 -0.4287  2.4879
 6343TIP3   OH243223   1.402   4.890   9.534 -0.5756  0.1415  0.0762
 6343TIP3    H143224   1.474   4.939   9.574 -0.0240  1.7284 -2.5680
 6343TIP3    H243225   1.330   4.952   9.529 -0.7799 -0.1425 -0.8346
 6344TIP3   OH243226   1.521   3.016   9.104  0.4804 -0.2469 -0.2054
 6344TIP3    H143227   1.615   3.017   9.120  0.3803 -1.2768  0.5447
 6344TIP3    H243228   1.489   3.098   9.142  0.8112 -0.7939  1.3160
 6345TIP3   OH243229   4.582   3.898   0.886 -0.1022  0.2258  0.3998
 6345TIP3    H143230   4.543   3.936   0.807  0.0937  0.3066  0.3425
 6345TIP3    H243231   4.508   3.856   0.931 -0.1370 -0.2143 -0.0522
 6346TIP3   OH243232   3.914   2.810   9.357 -0.1334  0.2271 -0.7168
 6346TIP3    H143233   3.938   2.730   9.405  0.1620  0.5916 -0.2429
 6346TIP3    H243234   3.819   2.815   9.366 -0.0439  0.5246  0.2361
 6347TIP3   OH243235   6.496   6.757   7.411  0.2588 -0.0447 -0.1837
 6347TIP3    H143236   6.588   6.768   7.388  0.6175  0.1137  1.2715
 6347TIP3    H243237   6.485   6.662   7.420  0.3739 -0.0349  0.0463
 6348TIP3   OH243238   0.181   4.142   0.807 -0.5215 -0.5968 -0.7195
 6348TIP3    H143239   0.156   4.233   0.820  1.2734 -0.3808  1.8387
 6348TIP3    H243240   0.273   4.146   0.781 -0.4717 -1.6900 -0.7454
 6349TIP3   OH243241   5.714   3.605   0.985 -0.3499 -0.5403 -0.6314
 6349TIP3    H143242   5.660   3.684   0.993  0.5760  0.1000 -0.4251
 6349TIP3    H243243   5.804   3.636   1.000 -0.1914 -2.0667  2.3443
 6350TIP3   OH243244   4.136   6.074   2.528  0.2876  0.1325 -0.1942
 6350TIP3    H143245   4.068   6.012   2.554  0.1318  1.0235  1.7341
 6350TIP3    H243246   4.165   6.043   2.443 -2.6561 -0.1899 -1.2230
 6351TIP3   OH243247   4.426   5.125   2.584  0.2885 -0.3514  0.1761
 6351TIP3    H143248   4.389   5.054   2.636  1.0635  0.1301  1.4489
 6351TIP3    H243249   4.518   5.101   2.572  0.0056 -0.7231 -1.5031
 6352TIP3   OH243250   7.089   1.723   9.781 -0.1088  0.3039 -0.1341
 6352TIP3    H143251   7.020   1.715   9.847 -0.3842  0.0226 -0.4495
 6352TIP3    H243252   7.126   1.635   9.776  0.9607  0.6782  0.7575
 6353TIP3   OH243253   4.060   4.149   9.759 -0.8089 -0.0541  0.5082
 6353TIP3    H143254   3.969   4.177   9.752 -1.4857 -1.8039  1.7341
 6353TIP3    H243255   4.104   4.222   9.802 -1.7236  0.6123  0.3570
 6354TIP3   OH243256   6.298   5.518   1.267  0.2255 -0.5437  0.4547
 6354TIP3    H143257   6.254   5.515   1.352 -0.2641 -1.6811  0.1750
 6354TIP3    H243258   6.261   5.595   1.224 -0.0894 -0.3994  0.9668
 6355TIP3   OH243259   0.437   4.407   9.575 -0.3437 -0.1378 -0.0528
 6355TIP3    H143260   0.356   4.438   9.616  0.1738  0.2097  0.7299
 6355TIP3    H243261   0.506   4.453   9.622  0.2581  2.4317 -3.0417
 6356TIP3   OH243262   0.028   0.666   1.987 -0.4712  0.4538  0.1350
 6356TIP3    H143263   0.018   0.756   1.955 -1.5295  0.3073  0.0252
 6356TIP3    H243264  -0.034   0.659   2.059  1.4187  0.5767  1.8503
 6357TIP3   OH243265   4.079   0.735   2.099 -0.2870 -0.3675  0.2565
 6357TIP3    H143266   4.051   0.818   2.137  1.4312  0.8544 -0.9882
 6357TIP3    H243267   4.165   0.754   2.060 -0.2646 -2.4889 -0.8862
 6358TIP3   OH243268   0.723   5.354   7.819 -0.2515 -0.6031 -0.2043
 6358TIP3    H143269   0.722   5.288   7.750  0.0627 -0.8846  0.0555
 6358TIP3    H243270   0.658   5.324   7.882  0.9334 -1.4944  0.6591
 6359TIP3   OH243271   1.741   0.107   1.274 -0.2068  0.0753  0.1268
 6359TIP3    H143272   1.823   0.090   1.320 -1.3614 -2.0708  1.5671
 6359TIP3    H243273   1.673   0.088   1.338 -1.8877  2.5473 -0.7748
 6360TIP3   OH243274   0.325   7.250   7.856  0.2428 -0.0548 -0.2973
 6360TIP3    H143275   0.251   7.209   7.811  0.4689 -0.2615 -0.4848
 6360TIP3    H243276   0.289   7.329   7.895  0.7648  2.2300 -3.9882
 6361TIP3   OH243277   6.571   5.185   9.397 -0.2086 -0.7224 -0.5747
 6361TIP3    H143278   6.565   5.170   9.303  0.7814  1.2944 -1.0295
 6361TIP3    H243279   6.594   5.100   9.434 -0.2285 -1.4688 -2.1992
 6362TIP3   OH243280   1.185   5.254   7.874  0.3970  0.1035  0.0720
 6362TIP3    H143281   1.209   5.306   7.797 -1.0357 -1.3879 -1.4589
 6362TIP3    H243282   1.089   5.251   7.871  0.2856  0.3569  2.1876
 6363TIP3   OH243283   5.096   0.592   9.248  0.5097 -0.8763 -0.7136
 6363TIP3    H143284   5.090   0.510   9.298  2.0555 -0.4314  0.2763
 6363TIP3    H243285   5.097   0.565   9.157 -1.6171 -1.7728 -0.5227
 6364TIP3   OH243286   1.291   6.717   0.197 -0.1536 -0.1582 -0.1616
 6364TIP3    H143287   1.269   6.808   0.176 -0.0523 -0.4638 -1.7128
 6364TIP3    H243288   1.272   6.669   0.117 -0.7746 -1.6208  0.8237
 6365TIP3   OH243289   5.405   0.857   8.003  0.4673  0.2385  0.1577
 6365TIP3    H143290   5.350   0.935   7.991 -1.7182 -1.0174  1.3048
 6365TIP3    H243291   5.426   0.828   7.914  1.7836  2.3805 -0.2897
 6366TIP3   OH243292   2.322   1.900   0.537 -0.0220  0.4938 -0.2057
 6366TIP3    H143293   2.411   1.880   0.568 -0.3739 -0.6409  0.1144
 6366TIP3    H243294   2.296   1.821   0.488 -0.4424  1.2505 -1.2446
 6367TIP3   OH243295   0.982   3.861   1.976  0.5168  0.2925 -0.3526
 6367TIP3    H143296   1.033   3.849   2.056 -1.5020 -0.2747  0.9447
 6367TIP3    H243297   0.967   3.772   1.943 -1.1834  0.2611  0.3823
 6368TIP3   OH243298   0.573   2.105   0.918 -0.2107  0.0584 -0.1640
 6368TIP3    H143299   0.641   2.056   0.872 -1.3561 -1.7190 -0.0569
 6368TIP3    H243300   0.605   2.112   1.008 -0.0093 -0.4470 -0.1944
 6369TIP3   OH243301   3.108   3.535   9.296 -0.2848 -0.1752 -0.5610
 6369TIP3    H143302   3.178   3.544   9.361  0.3900 -0.1955 -1.2658
 6369TIP3    H243303   3.109   3.442   9.273 -0.6659 -0.2095 -0.4521
 6370TIP3   OH243304   0.656   2.081   9.385  0.1095  0.4303  0.3388
 6370TIP3    H143305   0.566   2.056   9.407 -0.5348  1.7598 -0.6070
 6370TIP3    H243306   0.707   2.058   9.462 -1.3914  1.4284  1.7063
 6371TIP3   OH243307   5.975   5.145   9.520 -0.1085  0.4780  0.5113
 6371TIP3    H143308   5.954   5.234   9.549 -0.4263  0.1808  1.2139
 6371TIP3    H243309   5.970   5.092   9.600 -1.3048 -0.4300 -0.1324
 6372TIP3   OH243310   6.869   3.232   1.345 -0.0395 -0.3693  0.2123
 6372TIP3    H143311   6.824   3.184   1.414  1.5837 -1.7940  0.3555
 6372TIP3    H243312   6.833   3.198   1.264  1.0483 -1.8831  0.3140
 6373TIP3   OH243313   4.703   6.988   1.410  0.4892 -0.2907 -0.5748
 6373TIP3    H143314   4.743   6.912   1.368  0.4493 -0.9673  0.5786
 6373TIP3    H243315   4.619   6.998   1.366  1.2071  0.1572 -1.9100
 6374TIP3   OH243316   3.320   5.357   1.920 -0.0372 -0.6129 -0.0097
 6374TIP3    H143317   3.365   5.295   1.978  0.4931  0.1702  0.4354
 6374TIP3    H243318   3.248   5.391   1.972  1.0797  0.9055  0.6187
 6375TIP3   OH243319   5.708   3.807   1.935  0.6644 -0.1809  0.0619
 6375TIP3    H143320   5.668   3.775   2.016  0.3643  1.6391  0.6816
 6375TIP3    H243321   5.799   3.781   1.941  0.0795 -2.6006 -0.4098
 6376TIP3   OH243322   2.636   5.506   9.758  0.1016 -0.3349  0.2441
 6376TIP3    H143323   2.655   5.518   9.851  0.4387 -0.5899  0.2129
 6376TIP3    H243324   2.587   5.584   9.733  1.4802  0.5575  0.2342
 6377TIP3   OH243325   2.134   7.393   7.606 -0.2430  0.3844  0.6498
 6377TIP3    H143326   2.083   7.336   7.664 -1.4701  0.4065 -0.3683
 6377TIP3    H243327   2.082   7.400   7.527  1.9505 -0.5988 -0.9744
 6378TIP3   OH243328   3.961   5.214   2.485  0.0837  0.2049 -0.0487
 6378TIP3    H143329   4.017   5.285   2.455  0.7148  1.3203  3.3201
 6378TIP3    H243330   4.004   5.134   2.454  1.7998  1.1665 -0.2567
 6379TIP3   OH243331   0.352   3.395   2.436 -0.4634  0.2366  0.3623
 6379TIP3    H143332   0.381   3.315   2.480 -1.0013  0.6355  1.4627
 6379TIP3    H243333   0.433   3.439   2.410 -0.1180 -1.6313 -2.1403
 6380TIP3   OH243334   3.577   7.038   2.397 -0.0474 -0.0299  0.5965
 6380TIP3    H143335   3.501   7.095   2.393  0.6353  0.8591 -0.6632
 6380TIP3    H243336   3.547   6.954   2.362 -0.3079  0.5158 -0.5347
 6381TIP3   OH243337   6.413   2.833   0.504 -0.5212  0.2381  0.1261
 6381TIP3    H143338   6.453   2.917   0.480 -1.0700  0.4814  0.0650
 6381TIP3    H243339   6.438   2.774   0.433  0.4708  0.1556  0.5213
 6382TIP3   OH243340   0.946   0.095   8.774  0.0948  0.0915  0.4472
 6382TIP3    H143341   0.894   0.148   8.835  0.8979 -1.1534  2.3002
 6382TIP3    H243342   0.901   0.011   8.771  0.6608 -0.2064  0.1599
 6383TIP3   OH243343   5.890   5.469   0.415 -0.2844 -0.5550 -0.4131
 6383TIP3    H143344   5.891   5.513   0.331 -1.5668 -0.2160 -0.2711
 6383TIP3    H243345   5.964   5.409   0.412  0.4931  0.4185 -1.2472
 6384TIP3   OH243346   1.770   2.970   7.110  0.1871  0.2195  0.1441
 6384TIP3    H143347   1.710   2.955   7.038 -0.0416  0.1590  0.3450
 6384TIP3    H243348   1.829   2.895   7.110 -0.1162 -0.0182  0.3202
 6385TIP3   OH243349   1.714   3.740   6.737 -0.4525 -0.0080  0.2276
 6385TIP3    H143350   1.648   3.686   6.693 -1.4973  1.6242 -0.2949
 6385TIP3    H243351   1.757   3.787   6.666 -1.3222  1.7419  0.7992
 6386TIP3   OH243352   7.350   4.612   8.196 -0.4543  0.2495 -0.5975
 6386TIP3    H143353   7.274   4.667   8.213 -1.6729 -1.4835 -0.0776
 6386TIP3    H243354   7.377   4.582   8.283 -0.5482 -0.8388 -0.9251
 6387TIP3   OH243355   2.753   1.150   9.640  0.1355 -0.0289 -0.5313
 6387TIP3    H143356   2.732   1.062   9.673  0.2490 -0.3726 -1.3557
 6387TIP3    H243357   2.841   1.141   9.604  0.0302  0.3491 -0.8836
 6388TIP3   OH243358   0.957   1.467   7.718 -0.0063  0.0300 -0.9054
 6388TIP3    H143359   0.872   1.501   7.747  0.5506  0.5141  0.1805
 6388TIP3    H243360   0.935   1.387   7.670 -0.9417 -1.1160  1.2881
 6389TIP3   OH243361   6.051   6.129   7.973 -0.4795 -0.3897  0.1033
 6389TIP3    H143362   6.119   6.063   7.985 -0.4247 -0.4130 -0.3126
 6389TIP3    H243363   6.079   6.179   7.896  0.1339  0.9481  1.1515
 6390TIP3   OH243364   1.091   2.741   0.488 -0.2725  0.8844  0.1535
 6390TIP3    H143365   1.156   2.688   0.442 -0.6700  0.9122 -0.4391
 6390TIP3    H243366   1.117   2.735   0.580  0.0844  0.2146  0.0165
 6391TIP3   OH243367   0.694   6.554   0.477  0.1328  0.0475  0.0681
 6391TIP3    H143368   0.650   6.487   0.425 -2.2711  1.7042 -0.1955
 6391TIP3    H243369   0.693   6.520   0.567 -1.1560 -0.2602 -0.0408
 6392TIP3   OH243370   5.374   2.409   0.497 -0.3538 -0.2837  0.1037
 6392TIP3    H143371   5.453   2.384   0.449 -0.0796  0.5229  0.1304
 6392TIP3    H243372   5.351   2.330   0.548  0.5866 -0.4372  0.3050
 6393TIP3   OH243373   3.208   4.622   8.350 -0.2219  0.4050 -0.2376
 6393TIP3    H143374   3.143   4.682   8.385 -0.4419 -1.3995  2.8159
 6393TIP3    H243375   3.158   4.543   8.328  0.7789 -1.1402  2.4748
 6394TIP3   OH243376   3.790   5.090   0.203  0.2353 -0.3617 -0.2168
 6394TIP3    H143377   3.770   5.184   0.206 -1.9880 -0.7056 -2.0370
 6394TIP3    H243378   3.843   5.079   0.124  0.2358 -0.6926 -0.1710
 6395TIP3   OH243379   2.408   5.448   1.844 -0.0024  0.0101  0.0958
 6395TIP3    H143380   2.453   5.458   1.760 -1.2044 -0.7788 -0.6781
 6395TIP3    H243381   2.424   5.356   1.868 -0.8609 -0.1625  0.0096
 6396TIP3   OH243382   1.428   2.809   8.656 -0.3724 -0.4712  0.6351
 6396TIP3    H143383   1.471   2.889   8.623  0.7391 -1.3305 -0.0879
 6396TIP3    H243384   1.425   2.821   8.751  1.8953 -0.5402  0.7671
 6397TIP3   OH243385   1.521   5.793   8.052  0.0365  0.0975  0.1850
 6397TIP3    H143386   1.584   5.864   8.063  0.1591 -0.1082  0.8281
 6397TIP3    H243387   1.492   5.772   8.140  0.1226 -0.7550  0.0255
 6398TIP3   OH243388   2.283   2.772   0.656  0.0008  0.9182  0.3465
 6398TIP3    H143389   2.309   2.681   0.672 -0.9594  1.0839  3.5856
 6398TIP3    H243390   2.286   2.781   0.561  1.2986 -2.1222 -0.0331
 6399TIP3   OH243391   4.891   3.219   9.087  0.1558  0.4453  0.2126
 6399TIP3    H143392   4.889   3.309   9.121  0.3696  0.8855 -0.8839
 6399TIP3    H243393   4.799   3.197   9.074  0.0754  0.2886  1.0193
 6400TIP3   OH243394   0.433   0.320   8.600 -0.1186  0.0865  0.4578
 6400TIP3    H143395   0.490   0.385   8.641  0.4108  1.1549 -1.7942
 6400TIP3    H243396   0.473   0.235   8.622 -0.2073  0.5359  2.5413
 6401TIP3   OH243397   3.777   1.717   1.013  0.4198  0.3655 -0.1515
 6401TIP3    H143398   3.758   1.727   0.920  1.1320 -0.1782 -0.3639
 6401TIP3    H243399   3.721   1.782   1.056  0.3670  0.8879 -0.9848
 6402TIP3   OH243400   2.372   6.202   0.780  0.1875 -0.2863 -0.4366
 6402TIP3    H143401   2.412   6.167   0.860  0.2992 -1.5860 -1.0327
 6402TIP3    H243402   2.403   6.292   0.776 -1.1934  0.3725  1.8743
 6403TIP3   OH243403   6.713   2.160   0.540 -0.0082  0.7346 -0.5111
 6403TIP3    H143404   6.641   2.131   0.484 -0.6928  2.5808 -0.6439
 6403TIP3    H243405   6.735   2.083   0.593 -0.6677 -0.4616 -1.9173
 6404TIP3   OH243406   2.308   3.871   6.768  0.5057  0.2200 -0.2057
 6404TIP3    H143407   2.373   3.936   6.798  0.9067  0.5527 -1.7007
 6404TIP3    H243408   2.287   3.898   6.678 -1.7406  0.1246  0.2346
 6405TIP3   OH243409   6.105   1.337   8.805  0.1382 -0.1560 -0.0879
 6405TIP3    H143410   6.096   1.432   8.811  1.1307 -0.0256 -0.4870
 6405TIP3    H243411   6.193   1.323   8.770 -0.1379 -1.2174 -0.3974
 6406TIP3   OH243412   2.017   0.680   9.593  0.8457 -0.6027  0.0636
 6406TIP3    H143413   1.965   0.629   9.655  0.6436 -1.1588 -0.5512
 6406TIP3    H243414   2.066   0.614   9.543 -0.2593 -0.3004 -1.5024
 6407TIP3   OH243415   3.779   3.631   2.438 -0.1658  0.4462 -0.5394
 6407TIP3    H143416   3.819   3.717   2.425  0.7570 -0.0052 -0.7976
 6407TIP3    H243417   3.703   3.647   2.494  0.7614  1.2409  0.5271
 6408TIP3   OH243418   4.874   5.806   8.280  0.7115  0.4519  0.5165
 6408TIP3    H143419   4.890   5.712   8.272  1.3990  0.3213  2.7457
 6408TIP3    H243420   4.928   5.833   8.355  0.9406  2.7366 -0.4020
 6409TIP3   OH243421   0.728   1.675   9.269 -0.1696  0.8027 -0.2391
 6409TIP3    H143422   0.804   1.728   9.293  0.0011  1.2707 -1.6954
 6409TIP3    H243423   0.672   1.734   9.220 -0.9233  0.1425 -0.1982
 6410TIP3   OH243424   3.844   7.421   2.151 -0.1885 -0.3920  0.4792
 6410TIP3    H143425   3.788   7.359   2.103 -1.0360  0.0529  0.8625
 6410TIP3    H243426   3.783   7.486   2.185  0.6979  0.6806  0.0560
 6411TIP3   OH243427   5.228   2.355   7.539  0.1909 -0.4228 -0.4668
 6411TIP3    H143428   5.228   2.263   7.513 -1.5102 -0.2672 -1.1452
 6411TIP3    H243429   5.189   2.401   7.465 -0.9963  0.5551  0.7007
 6412TIP3   OH243430   7.070   4.223   9.859  0.5184 -0.2752  0.3211
 6412TIP3    H143431   7.114   4.277   9.924  0.1241  0.4390  0.0116
 6412TIP3    H243432   6.977   4.230   9.881  0.3430  0.3096 -0.5554
 6413TIP3   OH243433   4.339   6.695   0.133  0.9902 -0.0194  0.2307
 6413TIP3    H143434   4.274   6.758   0.101  2.0032 -0.2707 -2.5841
 6413TIP3    H243435   4.302   6.610   0.112  0.9574 -0.2910  1.3278
 6414TIP3   OH243436   6.335   0.520   1.060 -0.0548  0.6318 -0.3386
 6414TIP3    H143437   6.323   0.573   0.981 -1.3748 -1.5708 -1.6975
 6414TIP3    H243438   6.247   0.508   1.095  0.4141  0.7423  0.9317
 6415TIP3   OH243439   7.222   6.986   0.115 -0.0002  1.0070  0.1496
 6415TIP3    H143440   7.291   7.052   0.127 -0.1636  0.9540  1.6916
 6415TIP3    H243441   7.145   7.023   0.159 -0.5048  0.4115 -0.2190
 6416TIP3   OH243442   2.234   6.886   1.929 -0.7445  0.1759  0.0988
 6416TIP3    H143443   2.247   6.881   2.024 -0.7344 -1.5566  0.0404
 6416TIP3    H243444   2.145   6.853   1.916 -0.5231 -0.1717 -0.5457
 6417TIP3   OH243445   2.998   3.408   1.674  0.1105 -0.5014 -0.5562
 6417TIP3    H143446   3.036   3.496   1.675  1.5346 -1.0195 -3.0304
 6417TIP3    H243447   3.056   3.356   1.729  0.6647 -0.4107 -1.0506
 6418TIP3   OH243448   1.162   5.795   9.189  0.3057 -0.5614 -0.1216
 6418TIP3    H143449   1.105   5.870   9.170  1.9356  0.0559 -3.2396
 6418TIP3    H243450   1.125   5.723   9.138  0.0709 -1.2827  1.0317
 6419TIP3   OH243451   0.475   4.082   0.093 -0.3192 -0.1717  0.0895
 6419TIP3    H143452   0.492   4.096   0.186  2.7039 -2.6466  0.0729
 6419TIP3    H243453   0.401   4.021   0.091 -1.2214  0.8724  0.7717
 6420TIP3   OH243454   1.990   5.970   7.985 -0.5499 -0.2694 -0.2305
 6420TIP3    H143455   1.959   5.880   7.974 -1.6424  0.1903 -1.0145
 6420TIP3    H243456   2.066   5.976   7.927  0.2486 -1.0111  0.7026
 6421TIP3   OH243457   0.492   2.321   0.751  0.0637 -0.4038  0.3001
 6421TIP3    H143458   0.495   2.251   0.816 -0.2129 -1.8710 -1.1938
 6421TIP3    H243459   0.402   2.319   0.718 -0.4983  1.9160  1.4881
 6422TIP3   OH243460   2.540   2.969   7.299 -0.2192 -0.2086  0.0403
 6422TIP3    H143461   2.448   2.958   7.326 -0.6090 -0.0713 -1.1922
 6422TIP3    H243462   2.546   3.060   7.272  0.3198 -0.1860  0.2257
 6423TIP3   OH243463   1.804   2.457   1.863 -0.2687 -0.3755  0.7563
 6423TIP3    H143464   1.822   2.376   1.911  0.5148  0.2493  1.5536
 6423TIP3    H243465   1.713   2.448   1.835 -0.8398 -0.6768  2.5770
 6424TIP3   OH243466   5.899   6.891   0.243 -0.1824 -0.4377 -0.0285
 6424TIP3    H143467   5.924   6.980   0.221  0.3962  0.1637  2.7445
 6424TIP3    H243468   5.935   6.838   0.172  3.0393  1.1430  0.2655
 6425TIP3   OH243469   2.191   6.359   9.042 -0.5375 -0.2297 -0.1380
 6425TIP3    H143470   2.107   6.352   8.996 -0.5573 -0.4457 -0.0718
 6425TIP3    H243471   2.171   6.413   9.119 -0.7135 -0.6225  0.0988
 6426TIP3   OH243472   0.412   7.305   8.118  1.0133 -0.1373  0.5082
 6426TIP3    H143473   0.391   7.293   8.026  2.3631  0.3292  0.1210
 6426TIP3    H243474   0.438   7.396   8.126  0.0492  0.0786  1.5503
 6427TIP3   OH243475   0.269   4.950   6.499  0.1564 -0.1925  0.5837
 6427TIP3    H143476   0.294   5.040   6.479 -0.7698  0.0211  0.3504
 6427TIP3    H243477   0.347   4.911   6.539  1.3754 -0.0031 -1.4707
 6428TIP3   OH243478   4.114   6.443   7.244 -0.6731 -0.4367 -0.3967
 6428TIP3    H143479   4.024   6.432   7.213 -0.8796 -0.9522  0.3646
 6428TIP3    H243480   4.165   6.385   7.188 -0.8433 -0.3191 -0.6772
 6429TIP3   OH243481   1.280   4.359   0.391 -0.1935 -0.3232  0.2767
 6429TIP3    H143482   1.201   4.352   0.444  0.6304 -0.5634  1.5184
 6429TIP3    H243483   1.303   4.269   0.369 -0.3860 -0.2401 -0.2838
 6430TIP3   OH243484   5.785   4.967   8.785  0.2788 -0.0817 -1.2120
 6430TIP3    H143485   5.807   5.059   8.772 -1.6036  0.5164 -0.5427
 6430TIP3    H243486   5.784   4.955   8.880  1.6749 -1.1442 -1.2912
 6431TIP3   OH243487   6.194   0.669   1.410 -0.3681  0.3099 -0.0760
 6431TIP3    H143488   6.211   0.749   1.359 -0.1387 -0.9821 -2.1360
 6431TIP3    H243489   6.102   0.650   1.394 -0.3671  0.0424  0.2370
 6432TIP3   OH243490   5.956   3.874   1.613  0.1128 -0.7750 -0.0794
 6432TIP3    H143491   5.886   3.922   1.657  0.6616 -0.0498  0.0142
 6432TIP3    H243492   5.977   3.803   1.673 -1.8173 -2.1693 -0.9372
 6433TIP3   OH243493   3.349   4.130   9.948  0.0944 -0.5083 -0.4174
 6433TIP3    H143494   3.438   4.101   9.927 -1.2393 -3.5509 -2.7390
 6433TIP3    H243495   3.326   4.191   9.878  1.2472  2.9043  1.9023
 6434TIP3   OH243496   2.668   7.025   7.261 -0.1207  0.6966  0.0792
 6434TIP3    H143497   2.710   7.085   7.323 -0.4952  0.5777  0.4491
 6434TIP3    H243498   2.724   7.029   7.183 -0.1134  1.4856  0.1192
 6435TIP3   OH243499   2.523   1.228   9.326  0.3632 -0.0564  0.4725
 6435TIP3    H143500   2.432   1.224   9.356  0.2073 -1.7694 -0.0913
 6435TIP3    H243501   2.575   1.208   9.403  0.1731 -0.5364  0.4800
 6436TIP3   OH243502   4.115   4.602   8.034  0.5970  0.1864  0.2982
 6436TIP3    H143503   4.059   4.612   8.111  1.9104  2.3211  1.0501
 6436TIP3    H243504   4.193   4.556   8.066 -1.3061 -4.8434 -1.1677
 6437TIP3   OH243505   1.048   6.838   6.528  0.7162  0.1183  0.0071
 6437TIP3    H143506   1.132   6.800   6.500  1.3497  1.4576  0.0491
 6437TIP3    H243507   1.019   6.782   6.601  1.2835 -0.6811 -0.3654
 6438TIP3   OH243508   2.939   6.209   6.886 -0.3517  0.7482  0.3715
 6438TIP3    H143509   2.913   6.248   6.803  3.9565  0.4423 -1.3818
 6438TIP3    H243510   2.967   6.282   6.941  0.9040  0.7202 -0.1878
 6439TIP3   OH243511   5.752   0.421   0.996  0.2360 -0.2427 -0.3264
 6439TIP3    H143512   5.662   0.392   1.009  0.2232 -0.9635 -1.7614
 6439TIP3    H243513   5.756   0.507   1.037 -0.3952 -1.2110  1.9398
 6440TIP3   OH243514   1.347   1.090   0.622 -0.3470 -0.1756  0.8036
 6440TIP3    H143515   1.339   1.068   0.715  1.9791  2.5265  1.7742
 6440TIP3    H243516   1.321   1.182   0.617  1.0321  0.1660 -0.9302
 6441TIP3   OH243517   1.842   6.925   0.923 -0.0689  0.5674 -0.3920
 6441TIP3    H143518   1.760   6.926   0.873  0.6012  0.9914 -1.5110
 6441TIP3    H243519   1.864   6.832   0.930 -0.2571  0.4950 -0.7340
 6442TIP3   OH243520   2.406   0.080   0.971  0.4525  0.5544 -0.3067
 6442TIP3    H143521   2.467   0.153   0.966  0.6124  0.4239 -0.2325
 6442TIP3    H243522   2.405   0.054   1.063 -1.4136  2.0055  0.1639
 6443TIP3   OH243523   3.410   4.195   1.320 -0.0237 -0.7306  0.1543
 6443TIP3    H143524   3.413   4.187   1.415 -2.5919 -0.2016  0.3359
 6443TIP3    H243525   3.317   4.201   1.299  0.4893 -0.6280 -2.3898
 6444TIP3   OH243526   6.110   3.907   1.157  0.0988 -0.1254 -0.2136
 6444TIP3    H143527   6.191   3.859   1.173 -0.3072 -0.4049  1.1677
 6444TIP3    H243528   6.128   3.995   1.190  0.1064  0.0501 -0.6779
 6445TIP3   OH243529   3.234   4.940   2.714  0.1449  0.9445  0.2950
 6445TIP3    H143530   3.149   4.927   2.672  0.4688 -1.8767  0.3606
 6445TIP3    H243531   3.283   4.996   2.652 -0.6722 -0.0225 -1.2907
 6446TIP3   OH243532   3.860   4.661   7.992 -0.5982  0.5684 -0.0894
 6446TIP3    H143533   3.938   4.609   8.010 -0.3101  0.9369 -0.2544
 6446TIP3    H243534   3.825   4.624   7.910  0.2557  1.3580 -0.8426
 6447TIP3   OH243535   3.870   5.271   0.457  0.0198  0.1246  0.4633
 6447TIP3    H143536   3.940   5.207   0.441 -1.2018 -1.5531  1.5506
 6447TIP3    H243537   3.883   5.298   0.548 -0.7482 -0.2179  0.6799
 6448TIP3   OH243538   1.137   3.036   8.544  0.0456 -0.4072  0.5050
 6448TIP3    H143539   1.067   3.018   8.608  1.8705 -1.1597  2.4276
 6448TIP3    H243540   1.173   2.950   8.524  1.1098  0.0480  0.4080
 6449TIP3   OH243541   7.455   4.383   7.490 -0.7177 -0.3921  0.3753
 6449TIP3    H143542   7.498   4.353   7.410  2.1056  1.8356  0.8864
 6449TIP3    H243543   7.410   4.464   7.463 -0.3690 -0.0302  0.8697
 6450TIP3   OH243544   3.303   2.096   1.958  0.3165 -0.5848  0.0787
 6450TIP3    H143545   3.347   2.061   2.036  0.6079  2.7254  1.5846
 6450TIP3    H243546   3.374   2.134   1.906 -0.2077  0.3218 -0.0043
 6451TIP3   OH243547   1.154   6.389   8.130 -0.4164 -0.4944 -0.2133
 6451TIP3    H143548   1.201   6.421   8.207 -0.6287 -2.0860  0.6206
 6451TIP3    H243549   1.216   6.399   8.058  0.3374 -0.3800  0.4379
 6452TIP3   OH243550   4.598   3.229   1.992 -0.1416  0.3950 -1.3400
 6452TIP3    H143551   4.518   3.196   2.032 -1.1781  1.5494 -2.3752
 6452TIP3    H243552   4.666   3.212   2.058 -1.4572  0.5929  0.1464
 6453TIP3   OH243553   2.572   0.384   1.951  0.4535 -0.2391 -0.1897
 6453TIP3    H143554   2.488   0.398   1.996 -0.0251 -0.2241 -1.0621
 6453TIP3    H243555   2.626   0.457   1.978 -0.5277  0.9147 -1.2276
 6454TIP3   OH243556   3.802   5.453   2.062  0.3099  0.1057 -0.3826
 6454TIP3    H143557   3.862   5.527   2.050  0.9984 -0.3892 -0.1014
 6454TIP3    H243558   3.727   5.474   2.008  1.6608 -0.2699 -2.5348
 6455TIP3   OH243559   2.185   7.384   1.007 -0.1944 -0.6342  0.2239
 6455TIP3    H143560   2.205   7.475   0.986 -1.9436 -0.5563 -1.3730
 6455TIP3    H243561   2.245   7.362   1.079 -0.1579  1.9386  1.0828
 6456TIP3   OH243562   6.912   1.141   7.618 -0.2231 -0.3334 -0.0010
 6456TIP3    H143563   6.837   1.142   7.559  0.1746  0.7881 -0.5355
 6456TIP3    H243564   6.925   1.049   7.640 -0.9038 -0.6802 -0.9886
 6457TIP3   OH243565   4.649   5.295   0.557 -0.6677  0.3422 -0.1274
 6457TIP3    H143566   4.727   5.319   0.608 -0.9024  2.6021 -0.7174
 6457TIP3    H243567   4.608   5.225   0.608  1.3359 -0.3900  0.5761
 6458TIP3   OH243568   3.380   2.145   7.823 -0.0605  0.1095 -0.5094
 6458TIP3    H143569   3.393   2.074   7.760  0.1569  0.3100 -0.6885
 6458TIP3    H243570   3.358   2.221   7.770 -2.2893 -0.2651 -0.2311
 6459TIP3   OH243571   6.567   1.235   8.340 -0.1377  0.3999 -0.1327
 6459TIP3    H143572   6.584   1.290   8.416  1.4802 -1.9088  1.2994
 6459TIP3    H243573   6.621   1.273   8.270 -1.1165  2.1364  0.0105
 6460TIP3   OH243574   7.317   0.818   8.688  0.6755 -0.5275 -0.6480
 6460TIP3    H143575   7.409   0.847   8.687  0.6175 -0.3221 -1.5169
 6460TIP3    H243576   7.275   0.872   8.755  0.9260  0.2724 -1.1140
 6461TIP3   OH243577   6.959   5.960   1.778 -0.0179 -0.0809  0.5213
 6461TIP3    H143578   7.003   5.886   1.819  1.6192  0.1396 -0.7338
 6461TIP3    H243579   6.974   6.033   1.837  2.4525  0.2757 -0.4335
 6462TIP3   OH243580   1.971   7.363   1.224 -0.2015 -0.3908  0.4669
 6462TIP3    H143581   1.997   7.293   1.165 -0.4615 -1.7038  1.8571
 6462TIP3    H243582   2.046   7.422   1.225  0.3072 -1.0051 -0.1751
 6463TIP3   OH243583   3.054   4.267   0.508  0.5332  0.3516  0.0255
 6463TIP3    H143584   3.102   4.281   0.426  2.2835  1.1873  1.1464
 6463TIP3    H243585   3.029   4.175   0.505  1.0196  0.2356 -1.2066
 6464TIP3   OH243586   7.045   6.603   7.419  0.4224  0.6666 -0.1806
 6464TIP3    H143587   6.988   6.552   7.477 -0.2713  1.0330 -0.5347
 6464TIP3    H243588   7.074   6.540   7.352  0.3409  0.5081 -0.0666
 6465TIP3   OH243589   1.603   3.425   1.145  0.2347  0.6117 -0.0926
 6465TIP3    H143590   1.622   3.434   1.052 -0.2617 -0.5036 -0.3194
 6465TIP3    H243591   1.685   3.397   1.184  0.4968  1.2753 -0.1533
 6466TIP3   OH243592   7.074   2.821   2.103 -0.8262  0.4074 -0.2569
 6466TIP3    H143593   7.003   2.809   2.039 -0.0993  0.8034 -1.1647
 6466TIP3    H243594   7.151   2.841   2.050 -0.0009 -0.1050  0.7064
 6467TIP3   OH243595   7.294   4.715   9.186 -0.1286 -0.6926  0.2497
 6467TIP3    H143596   7.273   4.768   9.109  0.2896 -1.1423 -0.1793
 6467TIP3    H243597   7.262   4.627   9.163  0.8860 -1.0567  0.1769
 6468TIP3   OH243598   1.421   1.303   9.530  0.3870 -0.4248 -0.3037
 6468TIP3    H143599   1.363   1.379   9.531 -1.3563 -1.6390 -1.9067
 6468TIP3    H243600   1.371   1.234   9.574  0.3568 -1.6185 -2.0811
 6469TIP3   OH243601   5.388   5.650   1.698  0.2222  0.7097 -0.0428
 6469TIP3    H143602   5.416   5.562   1.672 -2.1200 -0.1263  0.0602
 6469TIP3    H243603   5.409   5.705   1.623  1.8901  0.1510 -0.0398
 6470TIP3   OH243604   5.576   5.469   1.319 -0.8641 -0.0096  0.1884
 6470TIP3    H143605   5.645   5.416   1.278 -0.3938  0.7557 -0.0381
 6470TIP3    H243606   5.496   5.443   1.273 -0.4617  0.2930 -0.7098
 6471TIP3   OH243607   0.872   3.608   1.928  0.2302 -0.2101 -0.3295
 6471TIP3    H143608   0.892   3.532   1.873  0.3154  0.8136 -1.7517
 6471TIP3    H243609   0.820   3.572   2.000 -1.4688 -1.3581 -2.0256
 6472TIP3   OH243610   0.092   6.173   7.791 -0.6103  0.1581 -0.1847
 6472TIP3    H143611   0.174   6.140   7.756  0.3988  2.0945  0.2137
 6472TIP3    H243612   0.105   6.177   7.885 -0.3477  2.3700 -0.2575
 6473TIP3   OH243613   0.748   6.265   9.347  0.0951  0.2048 -0.0521
 6473TIP3    H143614   0.699   6.272   9.264 -0.5224  0.2073  0.3041
 6473TIP3    H243615   0.803   6.343   9.349  0.3713  0.0344 -0.6198
 6474TIP3   OH243616   0.477   7.350   9.331  0.1568  0.3929  0.0433
 6474TIP3    H143617   0.434   7.433   9.350  1.9267  1.1351  0.9724
 6474TIP3    H243618   0.551   7.346   9.391  0.7721 -1.3396 -0.7564
 6475TIP3   OH243619   1.429   5.786   3.175  0.5905 -0.3798 -0.2181
 6475TIP3    H143620   1.465   5.865   3.215  2.7282 -1.1087 -0.5618
 6475TIP3    H243621   1.389   5.738   3.248  0.8185  0.2080  0.2947
 6476TIP3   OH243622   0.662   2.376   2.485  0.5306  0.4384  0.0910
 6476TIP3    H143623   0.737   2.316   2.484  0.2861  0.1113  0.8093
 6476TIP3    H243624   0.589   2.323   2.518 -0.4385  0.2915 -2.0983
 6477TIP3   OH243625   4.989   4.661   8.648 -0.2714 -0.9373  0.1834
 6477TIP3    H143626   5.002   4.756   8.644  0.9668 -1.0424  1.1565
 6477TIP3    H243627   4.902   4.647   8.609 -1.0163  0.7159  1.1251
 6478TIP3   OH243628   2.244   4.875   8.678 -0.2638 -0.4441 -0.0280
 6478TIP3    H143629   2.291   4.956   8.654 -1.4114  0.1354 -0.4288
 6478TIP3    H243630   2.174   4.869   8.612 -0.9329 -1.1012  0.7319
 6479TIP3   OH243631   2.422   5.312   5.749 -0.0616  0.3833  0.6647
 6479TIP3    H143632   2.503   5.353   5.778  1.8579 -2.8433  0.3844
 6479TIP3    H243633   2.379   5.283   5.830 -1.5642  2.9173  0.8838
 6480TIP3   OH243634   4.120   5.763   2.846 -0.1250  0.3605  0.3822
 6480TIP3    H143635   4.134   5.744   2.753 -0.7805 -0.1943  0.3944
 6480TIP3    H243636   4.107   5.678   2.887 -0.4623  0.6440  0.8834
 6481TIP3   OH243637   7.137   3.234   7.977  0.1381 -0.0411  0.6023
 6481TIP3    H143638   7.080   3.170   8.020 -0.8709 -0.1128 -0.7588
 6481TIP3    H243639   7.162   3.192   7.894  2.1506  0.0235  1.1428
 6482TIP3   OH243640   7.211   1.008   1.888  0.1625 -0.2461 -0.3064
 6482TIP3    H143641   7.160   1.032   1.965  2.9804 -1.0575  2.0214
 6482TIP3    H243642   7.229   0.914   1.900  0.2628 -0.5023 -2.2318
 6483TIP3   OH243643   3.171   4.266   1.524 -0.1043  0.1755  0.2820
 6483TIP3    H143644   3.207   4.338   1.575 -2.7970  1.1357  1.0152
 6483TIP3    H243645   3.090   4.301   1.487 -2.2010 -2.7425  1.6618
 6484TIP3   OH243646   4.041   5.485   1.559 -0.6553  0.1402  0.2234
 6484TIP3    H143647   4.034   5.544   1.635  1.7582  0.4357  0.2972
 6484TIP3    H243648   4.092   5.535   1.495 -1.6462 -0.5620 -1.1600
 6485TIP3   OH243649   0.714   1.362   8.096  0.1453  0.3968 -0.7230
 6485TIP3    H143650   0.765   1.317   8.029 -0.4069  1.0122 -1.5700
 6485TIP3    H243651   0.627   1.374   8.057 -0.5400 -0.2584  0.5325
 6486TIP3   OH243652   6.283   3.434   2.110  0.6331 -0.4870  0.1081
 6486TIP3    H143653   6.245   3.516   2.078  1.8478 -0.5663 -1.6490
 6486TIP3    H243654   6.292   3.380   2.032  0.5870 -2.0115  1.1293
 6487TIP3   OH243655   4.714   6.555   8.025 -0.2656  0.3582 -0.0948
 6487TIP3    H143656   4.713   6.616   8.099 -3.0184  0.8699 -0.4381
 6487TIP3    H243657   4.651   6.592   7.963 -0.1519 -1.5431 -1.4242
 6488TIP3   OH243658   4.671   6.370   8.294 -0.8610  0.6818 -0.1182
 6488TIP3    H143659   4.633   6.323   8.219 -0.7898  3.1030 -1.8026
 6488TIP3    H243660   4.614   6.349   8.367  0.9060 -4.4842  0.1769
 6489TIP3   OH243661   7.332   2.474   7.965 -0.0498 -0.0618  0.1688
 6489TIP3    H143662   7.309   2.435   7.880  0.7548  1.0685 -0.6006
 6489TIP3    H243663   7.328   2.568   7.950  0.4657  0.1558  1.2962
 6490TIP3   OH243664   2.290   6.016   2.563 -0.3443  0.6425 -0.0438
 6490TIP3    H143665   2.256   5.927   2.561  0.5479  0.2721  0.8969
 6490TIP3    H243666   2.251   6.055   2.641  1.2363  0.2591  0.9636
 6491TIP3   OH243667   0.241   5.892   7.869 -0.2919  0.2020  0.3885
 6491TIP3    H143668   0.272   5.954   7.803 -1.7751  0.7853  0.2036
 6491TIP3    H243669   0.241   5.942   7.951 -1.7091  0.5628  0.1995
 6492TIP3   OH243670   6.798   2.952   0.951 -0.0827 -0.2565 -0.8648
 6492TIP3    H143671   6.707   2.958   0.921 -1.1732  1.7663  2.3089
 6492TIP3    H243672   6.800   2.872   1.003 -0.5358  0.4210  0.2448
 6493TIP3   OH243673   2.573   5.558   8.501 -0.3196  0.0747 -0.4999
 6493TIP3    H143674   2.600   5.467   8.494 -1.0089 -0.1195 -0.6782
 6493TIP3    H243675   2.519   5.562   8.579  1.6372  0.8284  0.8920
 6494TIP3   OH243676   2.782   1.250   9.979  0.1415 -0.1004 -0.4907
 6494TIP3    H143677   2.702   1.221   9.937 -0.3787  0.2890  0.2135
 6494TIP3    H243678   2.844   1.177   9.966 -0.3022 -0.3811 -1.0689
 6495TIP3   OH243679   0.986   0.603   1.835  0.2420  0.4701  0.1890
 6495TIP3    H143680   1.043   0.654   1.892 -0.1919  0.9788  0.1828
 6495TIP3    H243681   1.041   0.581   1.760  1.0351 -0.8567  1.1338
 6496TIP3   OH243682   5.170   3.679   9.288 -0.0935  0.3808 -0.2118
 6496TIP3    H143683   5.098   3.688   9.350 -0.3874  1.8403 -0.7234
 6496TIP3    H243684   5.221   3.605   9.321 -1.0762  0.1698  0.9052
 6497TIP3   OH243685   6.879   6.182   7.977  0.0955 -0.5575 -0.0557
 6497TIP3    H143686   6.806   6.199   8.036  0.0065 -0.0739 -0.2976
 6497TIP3    H243687   6.847   6.210   7.891  0.5518 -0.3784 -0.1680
 6498TIP3   OH243688   2.048   0.602   9.065 -0.5261  0.3155  0.1547
 6498TIP3    H143689   2.019   0.520   9.025  0.1539  0.3518 -0.4409
 6498TIP3    H243690   2.099   0.645   8.996  0.9135  0.2682  1.1380
 6499TIP3   OH243691   7.147   5.148   8.188 -0.2244  0.7200  0.0233
 6499TIP3    H143692   7.058   5.179   8.175  1.1275  4.6725 -1.3740
 6499TIP3    H243693   7.179   5.196   8.264  1.1871  0.6124 -0.4592
 6500TIP3   OH243694   0.414   5.816   0.889  0.4473 -0.3516  0.0449
 6500TIP3    H143695   0.393   5.880   0.822  2.3541 -0.8602 -1.1078
 6500TIP3    H243696   0.425   5.867   0.969  0.4137  0.5693 -0.5222
 6501TIP3   OH243697   4.815   4.368   8.177  0.1950 -0.5029  0.6372
 6501TIP3    H143698   4.763   4.445   8.197 -0.5206 -0.2668 -1.7798
 6501TIP3    H243699   4.796   4.307   8.248 -1.5292  0.4778  1.0760
 6502TIP3   OH243700   5.036   5.577   8.217 -0.2730  0.6967 -0.3207
 6502TIP3    H143701   5.107   5.614   8.165  2.1047 -4.5182 -1.5165
 6502TIP3    H243702   4.976   5.540   8.152 -1.5295  0.9047  0.6881
 6503TIP3   OH243703   0.339   0.435   1.046 -0.0501  0.0403 -0.2928
 6503TIP3    H143704   0.401   0.379   0.998 -1.9510 -1.2766 -1.3328
 6503TIP3    H243705   0.300   0.376   1.111 -0.0644  0.9074  0.4942
 6504TIP3   OH243706   3.713   6.081   2.393  0.1724  0.2902 -0.2429
 6504TIP3    H143707   3.678   6.072   2.304 -0.1191  0.2408 -0.1248
 6504TIP3    H243708   3.639   6.062   2.450  0.1119  1.2330  0.0139
 6505TIP3   OH243709   1.284   5.727   8.907  0.3696  0.0363  0.3408
 6505TIP3    H143710   1.205   5.676   8.889 -1.7053  2.7803  1.1425
 6505TIP3    H243711   1.294   5.723   9.002  0.8582  0.2363  0.3023
 6506TIP3   OH243712   1.942   3.749   7.730  0.0947 -0.0451  0.1548
 6506TIP3    H143713   2.025   3.711   7.704  0.4870  1.0093 -0.2020
 6506TIP3    H243714   1.966   3.816   7.795 -0.5199 -0.0463  0.3943
 6507TIP3   OH243715   1.459   3.720   0.791  0.1941  0.0874 -0.3398
 6507TIP3    H143716   1.445   3.645   0.848 -1.6292  1.6038  1.3353
 6507TIP3    H243717   1.375   3.732   0.746  0.7335  0.6292 -1.2430
 6508TIP3   OH243718   1.715   5.024   1.664  0.6628  0.4496  0.1831
 6508TIP3    H143719   1.757   5.010   1.579  2.7885  1.0038  1.0763
 6508TIP3    H243720   1.686   5.115   1.661  1.4040  0.6966  0.3055
 6509TIP3   OH243721   2.488   5.435   9.505  0.7730  0.3713  0.1714
 6509TIP3    H143722   2.506   5.529   9.500 -0.8013  0.7092  0.5015
 6509TIP3    H243723   2.562   5.400   9.555  2.4410  1.0901 -1.6808
 6510TIP3   OH243724   5.826   1.693   2.456  0.2608 -0.4808 -0.3194
 6510TIP3    H143725   5.834   1.623   2.521  0.3677  0.2507  0.4744
 6510TIP3    H243726   5.891   1.671   2.389  0.8353 -0.7334  0.3043
 6511TIP3   OH243727   2.410   5.827   9.932  0.1015  0.1780  0.1399
 6511TIP3    H143728   2.470   5.824   9.858  0.9938 -0.5783  0.8626
 6511TIP3    H243729   2.464   5.853  10.007  0.1582 -2.7723  1.3014
 6512TIP3   OH243730   3.957   2.054   9.854 -0.2709  0.1194  0.4873
 6512TIP3    H143731   3.872   2.011   9.858 -0.5701  0.7523  1.0712
 6512TIP3    H243732   3.967   2.079   9.762 -1.1463  0.8779  0.5823
 6513TIP3   OH243733   1.120   5.731   6.263  0.7138  0.4996  0.3248
 6513TIP3    H143734   1.186   5.690   6.319  1.1399  0.1610 -0.4163
 6513TIP3    H243735   1.039   5.684   6.281  0.9194  0.1865  0.4297
 6514TIP3   OH243736   2.999   5.198   8.687 -0.0852 -0.2795  0.6389
 6514TIP3    H143737   3.086   5.212   8.723 -0.2472 -1.9603  1.8251
 6514TIP3    H243738   2.959   5.285   8.684  1.6945  0.5535 -0.1821
 6515TIP3   OH243739   0.629   0.931   8.067  0.0940 -0.4064 -0.3688
 6515TIP3    H143740   0.686   0.977   8.129 -0.8082 -0.6321  0.6643
 6515TIP3    H243741   0.550   0.985   8.062 -0.9495 -1.7451  0.7919
 6516TIP3   OH243742   4.236   5.351   7.081 -0.5577  0.6723 -0.2947
 6516TIP3    H143743   4.186   5.400   7.015  0.5808  0.3004 -1.4814
 6516TIP3    H243744   4.328   5.368   7.058 -0.1414 -0.8195  0.1779
 6517TIP3   OH243745   1.297   2.146   7.810  0.9707  0.4374  0.0192
 6517TIP3    H143746   1.263   2.234   7.828  0.8133  0.9452 -2.4208
 6517TIP3    H243747   1.237   2.110   7.745  2.5791 -0.3608 -1.0813
 6518TIP3   OH243748   3.251   7.413   2.721 -0.1614  0.4492 -0.6787
 6518TIP3    H143749   3.207   7.448   2.643  1.9486  0.2985 -1.9980
 6518TIP3    H243750   3.229   7.320   2.721 -0.8332  0.5957 -0.5860
 6519TIP3   OH243751   2.231   4.329   1.944  0.4065  0.4175  0.1525
 6519TIP3    H143752   2.284   4.339   1.865 -0.2392  2.1107 -0.1059
 6519TIP3    H243753   2.294   4.339   2.016  1.0497 -1.4695 -0.1086
 6520TIP3   OH243754   1.989   2.282   1.396 -0.1614  0.2566  0.2306
 6520TIP3    H143755   1.957   2.367   1.367  0.5291  0.9812  1.4898
 6520TIP3    H243756   2.083   2.295   1.409  0.0937 -0.9221 -0.3029
 6521TIP3   OH243757   3.787   4.860   9.597 -0.5847 -0.4104 -0.0239
 6521TIP3    H143758   3.771   4.949   9.629 -0.0995 -0.9092  1.7401
 6521TIP3    H243759   3.878   4.861   9.567 -1.7140  0.7247 -4.0058
 6522TIP3   OH243760   3.822   5.882   9.998 -0.7142  0.4243  0.0876
 6522TIP3    H143761   3.844   5.956   9.942 -0.2729  1.3956  1.4892
 6522TIP3    H243762   3.767   5.825   9.943  0.7959  0.6536 -1.7324
 6523TIP3   OH243763   2.406   2.549   1.697  0.3241 -0.0181 -0.2746
 6523TIP3    H143764   2.345   2.522   1.628  0.3393 -1.6864  0.3201
 6523TIP3    H243765   2.492   2.520   1.667  0.3819 -0.4279  0.2762
 6524TIP3   OH243766   6.328   1.882   0.048  0.3731 -0.5460  0.3044
 6524TIP3    H143767   6.308   1.972   0.073  1.2311 -0.6095  1.2937
 6524TIP3    H243768   6.341   1.885  -0.047 -0.8201  0.1274  0.1498
 6525TIP3   OH243769   3.621   6.434   0.040 -0.3810 -0.5073 -0.1111
 6525TIP3    H143770   3.647   6.501  -0.023  0.4008 -1.2532 -0.6138
 6525TIP3    H243771   3.532   6.410   0.015 -1.6139  1.9230  1.4831
 6526TIP3   OH243772   4.778   0.718   8.639 -0.3861 -0.0627  0.2907
 6526TIP3    H143773   4.735   0.786   8.691 -0.5920 -0.2984  0.4292
 6526TIP3    H243774   4.811   0.656   8.703  0.0459  0.0469  0.1774
 6527TIP3   OH243775   2.672   5.844   2.938  0.0302 -0.4299  0.5902
 6527TIP3    H143776   2.658   5.758   2.898  0.3337 -0.7859  1.2232
 6527TIP3    H243777   2.725   5.825   3.015  0.3813  0.3707  0.5519
 6528TIP3   OH243778   2.364   5.915   9.335 -0.2544  0.4344  0.5851
 6528TIP3    H143779   2.274   5.942   9.355  0.2557  1.3808  1.7295
 6528TIP3    H243780   2.364   5.899   9.241 -1.5323  0.7578  0.5149
 6529TIP3   OH243781   3.987   6.217   0.657 -0.0512 -0.3249 -0.1726
 6529TIP3    H143782   4.080   6.209   0.639 -0.4834 -3.0627 -1.7563
 6529TIP3    H243783   3.947   6.238   0.572 -0.9807 -0.4600  0.2139
 6530TIP3   OH243784   0.747   2.553   8.749 -0.2782 -0.1211 -0.0325
 6530TIP3    H143785   0.785   2.619   8.807  1.7318 -0.0277 -1.3776
 6530TIP3    H243786   0.719   2.601   8.672  0.2701 -0.6927 -0.5992
 6531TIP3   OH243787   3.691   7.331   7.660 -0.5116 -0.3677 -0.4038
 6531TIP3    H143788   3.711   7.413   7.706 -1.3366 -1.2250  1.6392
 6531TIP3    H243789   3.597   7.318   7.676 -0.5395 -1.3531 -1.3036
 6532TIP3   OH243790   0.897   4.365   2.269  0.3972 -0.6371  0.7561
 6532TIP3    H143791   0.956   4.412   2.209  0.7821  1.1665  2.4264
 6532TIP3    H243792   0.951   4.349   2.346 -1.1335  0.6604  2.1518
 6533TIP3   OH243793   5.848   6.559   0.647  0.3733  0.7551  0.6412
 6533TIP3    H143794   5.909   6.491   0.619  0.8246  0.5192  2.1048
 6533TIP3    H243795   5.772   6.549   0.588  0.3195 -1.1991  0.9886
 6534TIP3   OH243796   4.336   1.314   0.166 -0.0706  0.1372 -0.0466
 6534TIP3    H143797   4.279   1.257   0.217  1.0280 -1.4147 -0.4590
 6534TIP3    H243798   4.311   1.298   0.075  1.5777 -1.3258 -0.3127
 6535TIP3   OH243799   0.657   5.796   0.228 -0.2112 -0.1857 -0.4880
 6535TIP3    H143800   0.679   5.705   0.212 -0.1873 -0.1875 -0.4418
 6535TIP3    H243801   0.663   5.837   0.141 -1.3153 -0.4530 -0.7075
 6536TIP3   OH243802   5.005   2.774   1.593 -0.0755  0.0228 -0.8101
 6536TIP3    H143803   4.930   2.737   1.640 -0.4873  0.9692 -0.6938
 6536TIP3    H243804   5.082   2.744   1.642 -0.4947  0.9092  0.4523
 6537TIP3   OH243805   0.451   4.457   8.441  0.2398  0.4779 -0.1875
 6537TIP3    H143806   0.404   4.413   8.512  2.2430 -1.0248  0.2843
 6537TIP3    H243807   0.534   4.483   8.479  1.1207  0.1875 -1.8071
 6538TIP3   OH243808   5.806   1.636   9.889  0.1325  0.1987 -0.3352
 6538TIP3    H143809   5.746   1.604   9.821  2.3777 -0.3451 -2.1655
 6538TIP3    H243810   5.751   1.641   9.967 -2.2778 -0.3393 -1.8616
 6539TIP3   OH243811   1.989   5.000   8.083 -0.2277  0.3520  0.4265
 6539TIP3    H143812   1.987   4.913   8.122  1.4837  0.8368  1.6915
 6539TIP3    H243813   2.078   5.030   8.096 -0.4210  1.7838 -1.1935
 6540TIP3   OH243814   0.748   7.273   2.230  0.1402 -0.0768  0.0571
 6540TIP3    H143815   0.740   7.195   2.285  1.5711 -0.9042 -0.8550
 6540TIP3    H243816   0.818   7.324   2.271 -1.0630  0.9705  0.8847
 6541TIP3   OH243817   2.496   2.399   1.969  0.0076 -0.1120 -0.3277
 6541TIP3    H143818   2.475   2.423   1.879  1.3876 -3.2960 -1.6865
 6541TIP3    H243819   2.428   2.336   1.994  0.0099  0.2394  0.6283
 6542TIP3   OH243820   3.022   1.341   0.241  0.3852 -0.1700  0.0870
 6542TIP3    H143821   2.995   1.315   0.152 -1.5805 -1.7783  1.0638
 6542TIP3    H243822   3.096   1.284   0.261  1.1547  0.5301 -0.6459
 6543TIP3   OH243823   5.686   3.198   8.923 -0.2674 -0.2311 -0.1900
 6543TIP3    H143824   5.781   3.190   8.914 -0.1052 -0.3849  1.3244
 6543TIP3    H243825   5.651   3.169   8.839  1.0370  0.2071 -0.9067
 6544TIP3   OH243826   5.941   1.549   1.560  0.0334 -0.1726  0.0263
 6544TIP3    H143827   5.888   1.470   1.567  0.9429 -0.8073 -0.0569
 6544TIP3    H243828   5.994   1.550   1.640  0.1218  0.2797 -0.0328
 6545TIP3   OH243829   3.649   2.186   8.406  0.8681 -0.5571  0.0263
 6545TIP3    H143830   3.658   2.245   8.331 -2.6384  0.2434  0.0246
 6545TIP3    H243831   3.628   2.101   8.368 -0.1302 -0.3305  0.0343
 6546TIP3   OH243832   2.265   4.658   0.562 -0.2117  0.1391 -0.4433
 6546TIP3    H143833   2.278   4.713   0.485 -2.7591 -0.0795 -1.1242
 6546TIP3    H243834   2.175   4.677   0.590  0.9574  1.1414  3.2590
 6547TIP3   OH243835   3.158   3.847   1.445 -0.0323 -0.3331  0.4710
 6547TIP3    H143836   3.183   3.783   1.378 -0.2456  1.8988 -1.8621
 6547TIP3    H243837   3.238   3.863   1.494  0.3414 -1.4057  0.2359
 6548TIP3   OH243838   6.775   6.139   8.809  0.4851 -0.2582  0.3613
 6548TIP3    H143839   6.699   6.097   8.850  0.0530  1.9137  1.9733
 6548TIP3    H243840   6.748   6.152   8.718 -0.3040 -1.2226  0.4381
 6549TIP3   OH243841   7.415   2.761   8.475  0.0986  0.1514  0.1584
 6549TIP3    H143842   7.443   2.834   8.420  2.4318 -1.8604 -1.5681
 6549TIP3    H243843   7.350   2.715   8.422  0.4938 -0.3975  0.1435
 6550TIP3   OH243844   0.390   2.912   1.094  0.0737 -0.0798  0.1517
 6550TIP3    H143845   0.300   2.880   1.099 -0.2615  0.6187 -1.1659
 6550TIP3    H243846   0.429   2.864   1.021  0.2790  0.7966 -0.3189
 6551TIP3   OH243847   0.615   4.533   1.394 -0.0456 -0.3332  0.0484
 6551TIP3    H143848   0.646   4.622   1.411 -0.6609 -0.3362  1.3155
 6551TIP3    H243849   0.519   4.541   1.396 -0.1092 -1.1199  0.8412
 6552TIP3   OH243850   1.786   5.553   1.819 -0.6353 -0.9496  0.0925
 6552TIP3    H143851   1.721   5.541   1.750 -0.2706 -1.7855 -0.1029
 6552TIP3    H243852   1.840   5.475   1.816 -0.7755 -1.1320  1.4948
 6553TIP3   OH243853   6.477   3.278   9.288 -0.1147 -0.3925  0.0795
 6553TIP3    H143854   6.390   3.262   9.326 -1.0333  1.4438 -1.1057
 6553TIP3    H243855   6.500   3.195   9.246 -2.1925 -0.4074 -1.1921
 6554TIP3   OH243856   4.035   1.289   7.918  0.1877  0.1803  0.1429
 6554TIP3    H143857   4.067   1.303   7.829  1.2574  0.4921  0.5636
 6554TIP3    H243858   4.054   1.371   7.964  0.7875 -0.4076  0.9866
 6555TIP3   OH243859   3.781   4.463   8.874  0.0957  0.5391 -0.4125
 6555TIP3    H143860   3.842   4.419   8.934 -1.8891 -0.8661  0.6714
 6555TIP3    H243861   3.767   4.549   8.914  0.9627  0.6968 -0.4213
 6556TIP3   OH243862   5.458   4.827   1.969  0.1137 -0.8360  0.1149
 6556TIP3    H143863   5.395   4.872   1.912  1.3137  1.2231  0.3189
 6556TIP3    H243864   5.435   4.854   2.057 -0.1915 -2.0442  0.4315
 6557TIP3   OH243865   1.854   6.012   8.984 -0.4192 -0.4472  0.0699
 6557TIP3    H143866   1.859   5.959   8.905  2.0375  0.9967 -0.8366
 6557TIP3    H243867   1.913   5.970   9.046  1.6301  1.1576 -0.6903
 6558TIP3   OH243868   0.444   0.256   7.503  0.6074 -0.2280  0.2727
 6558TIP3    H143869   0.353   0.284   7.514  0.4654  0.2764 -1.7111
 6558TIP3    H243870   0.491   0.299   7.574 -0.2161  2.1938 -0.5297
 6559TIP3   OH243871   3.569   5.532   1.878 -0.4052  0.6659  0.7361
 6559TIP3    H143872   3.519   5.451   1.892 -1.0009  0.3916 -2.2999
 6559TIP3    H243873   3.626   5.512   1.804  0.0211  2.7951  0.4364
 6560TIP3   OH243874   2.399   7.106   2.220 -0.4701 -0.8525 -0.2724
 6560TIP3    H143875   2.451   7.027   2.229 -1.3841 -1.3484  1.0411
 6560TIP3    H243876   2.326   7.094   2.282 -1.1243  0.6095 -0.7073
 6561TIP3   OH243877   0.827   1.957   6.936 -0.3665  0.8264  0.0421
 6561TIP3    H143878   0.745   1.996   6.907 -1.1478 -0.6855  0.1249
 6561TIP3    H243879   0.815   1.943   7.030  1.0177  2.9673  0.6328
 6562TIP3   OH243880   1.795   7.108   1.243  0.0078 -0.0142 -0.1348
 6562TIP3    H143881   1.817   7.166   1.169  1.9993 -1.3519 -0.6948
 6562TIP3    H243882   1.702   7.123   1.258  0.1411  2.3282 -1.1014
 6563TIP3   OH243883   2.997   0.721   1.895 -0.0142 -0.0548 -0.1283
 6563TIP3    H143884   2.964   0.811   1.896  1.1251  0.3957 -0.7331
 6563TIP3    H243885   2.920   0.668   1.875 -1.3630  0.4183  3.1624
 6564TIP3   OH243886   2.118   4.314   0.810 -0.3474 -0.4151  0.0882
 6564TIP3    H143887   2.039   4.363   0.790 -0.1268 -0.7091 -1.6807
 6564TIP3    H243888   2.178   4.335   0.739  0.2655 -2.1074  0.0522
 6565TIP3   OH243889   3.069   6.191   1.228  0.2234 -0.8967  0.2235
 6565TIP3    H143890   3.049   6.103   1.260 -0.3636 -1.2088 -0.9176
 6565TIP3    H243891   3.164   6.191   1.218  0.7160 -0.1118  3.7223
 6566TIP3   OH243892   4.166   2.613   0.571  0.3003 -0.1742 -0.1290
 6566TIP3    H143893   4.098   2.661   0.524  0.5711 -0.1266 -0.4776
 6566TIP3    H243894   4.126   2.529   0.591 -0.4735  0.4721  1.2161
 6567TIP3   OH243895   0.588   3.043   0.832 -0.5116 -0.4929 -0.1748
 6567TIP3    H143896   0.649   3.015   0.900  0.3136 -1.1722 -1.1647
 6567TIP3    H243897   0.551   2.961   0.797  1.1353 -0.3790 -2.3891
 6568TIP3   OH243898   6.758   2.393   7.756  0.0861  0.2115  0.4289
 6568TIP3    H143899   6.688   2.334   7.728 -0.2066 -0.8167  3.0430
 6568TIP3    H243900   6.836   2.338   7.760  0.2005  0.4070  1.1474
 6569TIP3   OH243901   2.865   3.983   8.663  0.7100 -0.9543 -0.4860
 6569TIP3    H143902   2.945   3.932   8.678 -0.0325 -1.4203  2.4176
 6569TIP3    H243903   2.870   4.055   8.725 -2.0318 -2.1543  1.3018
 6570TIP3   OH243904   2.439   0.815   0.843 -0.0122 -0.0897  0.3983
 6570TIP3    H143905   2.520   0.826   0.793  0.5246  0.0462  1.2786
 6570TIP3    H243906   2.435   0.891   0.901  0.2759 -1.1011  1.7873
 6571TIP3   OH243907   2.900   3.823   9.970 -0.3061  0.2744  0.2077
 6571TIP3    H143908   2.818   3.822   9.920 -1.6007  0.9882  2.2176
 6571TIP3    H243909   2.967   3.844   9.905 -1.7054 -0.2281 -1.4713
 6572TIP3   OH243910   7.205   4.741   7.538 -0.3004 -0.3661 -0.1806
 6572TIP3    H143911   7.214   4.767   7.630 -0.1485 -0.0125 -0.2930
 6572TIP3    H243912   7.292   4.710   7.513  0.6930  2.7902 -1.1877
 6573TIP3   OH243913   7.008   1.407   1.467 -1.1156 -0.2507 -0.1022
 6573TIP3    H143914   6.968   1.326   1.436 -0.4997  0.3282 -2.6615
 6573TIP3    H243915   6.964   1.476   1.417  1.5967  0.5643 -1.5671
 6574TIP3   OH243916   2.589   5.647   8.246 -0.8239 -0.0153  0.6631
 6574TIP3    H143917   2.578   5.615   8.336 -2.1777 -0.4943  0.3505
 6574TIP3    H243918   2.682   5.672   8.241 -0.3632 -1.3618  1.7414
 6575TIP3   OH243919   4.277   4.385   1.759  0.1581  0.5677 -0.1651
 6575TIP3    H143920   4.182   4.374   1.761  0.2338 -0.3959 -1.0145
 6575TIP3    H243921   4.309   4.328   1.828  0.1887 -0.0924 -0.7164
 6576TIP3   OH243922   7.048   0.642   8.743 -0.0542 -0.2131 -0.2467
 6576TIP3    H143923   7.117   0.685   8.691  0.6592 -0.7964  0.2048
 6576TIP3    H243924   7.055   0.550   8.718  0.3424 -0.5116  0.9242
 6577TIP3   OH243925   3.773   1.789   1.907 -0.3103 -0.0600  0.4669
 6577TIP3    H143926   3.701   1.842   1.873  0.0176  0.0014 -0.1456
 6577TIP3    H243927   3.772   1.710   1.853 -0.3715 -0.3881  0.9358
 6578TIP3   OH243928   2.331   2.229   8.240  0.4912  0.1353 -0.0402
 6578TIP3    H143929   2.410   2.208   8.291  1.3313 -0.2709 -1.4425
 6578TIP3    H243930   2.365   2.265   8.158 -0.7500 -0.9405 -1.0642
 6579TIP3   OH243931   1.319   6.898   9.287  0.3033  0.0881 -0.2078
 6579TIP3    H143932   1.397   6.883   9.233  2.0376  2.9912  1.2431
 6579TIP3    H243933   1.352   6.947   9.363 -2.6639 -0.3080  1.4734
 6580TIP3   OH243934   6.266   4.070   0.430 -0.3129  0.5041  0.2776
 6580TIP3    H143935   6.283   3.996   0.372 -0.6222  0.7933 -0.1853
 6580TIP3    H243936   6.300   4.042   0.516 -3.4583 -1.5388  0.9941
 6581TIP3   OH243937   7.164   5.395   9.165  0.6330 -0.3405 -0.3831
 6581TIP3    H143938   7.078   5.424   9.135  0.7724  1.0012  0.4307
 6581TIP3    H243939   7.147   5.311   9.209 -0.1523 -0.4039 -0.8005
 6582TIP3   OH243940   0.957   5.028   1.092  0.7118  0.3974 -0.4069
 6582TIP3    H143941   0.978   5.054   1.002  0.8857 -1.0910 -0.8179
 6582TIP3    H243942   0.864   5.005   1.089  0.5111  1.0966  0.0007
 6583TIP3   OH243943   1.428   3.209   6.460  0.3694 -0.2279  0.1305
 6583TIP3    H143944   1.482   3.170   6.529  1.1850 -0.0211 -0.3716
 6583TIP3    H243945   1.342   3.220   6.500  1.3237  1.8353  1.8429
 6584TIP3   OH243946   6.117   1.671   9.908 -0.3645 -0.0529  0.0327
 6584TIP3    H143947   6.098   1.602   9.844  0.3962  1.3931 -1.8386
 6584TIP3    H243948   6.030   1.705   9.932 -0.6727 -0.7574 -0.0583
 6585TIP3   OH243949   3.884   2.009   8.831 -0.3260 -0.0579 -0.2094
 6585TIP3    H143950   3.796   2.027   8.864 -0.5578 -0.9151 -0.3498
 6585TIP3    H243951   3.887   2.054   8.747 -1.7434 -2.5463 -1.6924
 6586TIP3   OH243952   7.072   6.234   1.618 -0.0335  0.5195 -0.0442
 6586TIP3    H143953   6.979   6.217   1.602 -0.2801 -0.1086  1.7678
 6586TIP3    H243954   7.072   6.315   1.669  0.4539  0.7228 -0.3598
 6587TIP3   OH243955   0.310   2.954   8.492 -0.0280 -0.3854  0.0026
 6587TIP3    H143956   0.292   2.861   8.497  2.0830 -0.9761 -1.6380
 6587TIP3    H243957   0.355   2.974   8.574  0.8797 -1.1962 -0.2793
 6588TIP3   OH243958   3.767   5.171   2.111 -0.0738 -0.5609  0.1115
 6588TIP3    H143959   3.768   5.263   2.086  0.3099 -0.7995 -0.7887
 6588TIP3    H243960   3.855   5.155   2.146 -0.2714 -0.4937  0.6572
 6589TIP3   OH243961   5.819   0.263   8.877 -0.5671  0.3236 -0.5160
 6589TIP3    H143962   5.827   0.186   8.933 -3.3544  0.6973  0.5302
 6589TIP3    H243963   5.910   0.286   8.856  0.4162 -2.1880  0.5320
 6590TIP3   OH243964   5.326   5.924   9.260 -0.4298 -0.3697 -0.3069
 6590TIP3    H143965   5.322   5.988   9.332  1.1663 -1.3400  0.6989
 6590TIP3    H243966   5.359   5.974   9.186  2.6451 -0.3370  0.9533
 6591TIP3   OH243967   2.136   3.989   1.219 -0.0260 -0.0888 -0.4846
 6591TIP3    H143968   2.049   3.950   1.225 -1.1801  2.1608 -1.4710
 6591TIP3    H243969   2.135   4.061   1.282  1.6797 -0.9113  0.5591
 6592TIP3   OH243970   6.076   3.215   0.310 -0.5478  0.2914  0.5412
 6592TIP3    H143971   6.077   3.221   0.406  0.0491  2.8028  0.4349
 6592TIP3    H243972   5.989   3.244   0.286  0.3032  2.8687  0.2586
 6593TIP3   OH243973   6.635   0.850   0.994  0.0738  0.0988  0.0579
 6593TIP3    H143974   6.672   0.930   1.032  3.0758 -0.9541 -0.3775
 6593TIP3    H243975   6.686   0.836   0.914 -0.2096 -2.3487  0.2347
 6594TIP3   OH243976   6.535   3.786   9.224  0.2432 -0.0503  0.3067
 6594TIP3    H143977   6.440   3.778   9.218 -0.1963  0.4646  3.9625
 6594TIP3    H243978   6.565   3.697   9.246  0.7266 -0.2954 -1.1977
 6595TIP3   OH243979   2.073   5.285   1.184  0.1589  0.0217  0.8136
 6595TIP3    H143980   1.985   5.270   1.220 -0.0836 -1.2006 -0.2325
 6595TIP3    H243981   2.062   5.364   1.130 -0.0479  0.4538  1.4737
 6596TIP3   OH243982   5.568   4.707   0.245 -0.3721 -0.6882 -0.3482
 6596TIP3    H143983   5.610   4.670   0.322  1.1984 -0.2823 -0.9665
 6596TIP3    H243984   5.574   4.637   0.179 -3.2698 -1.6944  0.3436
 6597TIP3   OH243985   3.190   5.795   1.515 -0.1067  0.0885  0.4150
 6597TIP3    H143986   3.173   5.791   1.421 -3.2619 -3.0587  0.9030
 6597TIP3    H243987   3.124   5.855   1.549 -0.1990 -0.2440  0.8227
 6598TIP3   OH243988   4.995   1.000   0.168 -0.6076  0.0131  0.2431
 6598TIP3    H143989   5.060   1.056   0.126 -0.1134 -0.5976  0.1847
 6598TIP3    H243990   5.030   0.912   0.159 -0.4286 -0.1399  2.0061
 6599TIP3   OH243991   0.359   2.551   1.904  0.6383 -0.3467  0.2987
 6599TIP3    H143992   0.362   2.576   1.996 -0.2153 -0.3463  0.3337
 6599TIP3    H243993   0.356   2.635   1.857 -2.4663 -0.2683  0.4248
 6600TIP3   OH243994   2.375   2.330   9.529 -0.4714  0.4486 -0.2452
 6600TIP3    H143995   2.465   2.363   9.523  0.1257 -0.9790  0.4910
 6600TIP3    H243996   2.362   2.281   9.448  0.4609 -1.7348  0.8401
 6601TIP3   OH243997   3.357   0.019   6.806 -0.0820 -0.1723  0.3974
 6601TIP3    H143998   3.444  -0.021   6.810  0.0623  0.1310  0.3329
 6601TIP3    H243999   3.373   0.113   6.814 -0.3422 -0.0567 -0.2937
 6602TIP3   OH244000   6.806   0.262   8.701  0.2184  0.2547 -0.1184
 6602TIP3    H144001   6.743   0.307   8.645  0.0424 -1.3871 -1.3285
 6602TIP3    H244002   6.892   0.288   8.666  0.1117 -1.3545 -1.7656
 6603TIP3   OH244003   6.717   3.997   9.283  0.0055 -0.1060 -0.2692
 6603TIP3    H144004   6.646   3.937   9.259 -0.4459  0.3503 -0.0823
 6603TIP3    H244005   6.742   4.038   9.200 -0.5177  0.3445 -0.2099
 6604TIP3   OH244006   1.044   1.553   7.306  0.6938 -0.0464  0.3731
 6604TIP3    H144007   1.090   1.591   7.231 -0.5501  0.3430 -0.2268
 6604TIP3    H244008   0.953   1.581   7.295  0.6046  0.7136  2.4683
 6605TIP3   OH244009   5.444   6.657   7.560 -0.3255 -0.2131  0.7863
 6605TIP3    H144010   5.462   6.726   7.497 -1.2382  0.0193  0.7705
 6605TIP3    H244011   5.349   6.661   7.574 -0.3708 -1.3582  0.8958
 6606TIP3   OH244012   2.678   4.008   0.401  0.3568  0.1675  0.3942
 6606TIP3    H144013   2.646   4.060   0.327 -2.6615 -0.4817  1.0780
 6606TIP3    H244014   2.674   4.069   0.475  0.6945  0.0646  0.4954
 6607TIP3   OH244015   3.707   0.442   0.103  0.7611 -0.3904 -0.4338
 6607TIP3    H144016   3.784   0.467   0.052  0.1887 -0.2075 -1.2261
 6607TIP3    H244017   3.652   0.520   0.103  0.5315 -0.5485  0.0520
 6608TIP3   OH244018   0.405   0.140   9.393  0.0829 -0.0358  0.1293
 6608TIP3    H144019   0.348   0.201   9.346 -1.1866 -0.4813  1.0225
 6608TIP3    H244020   0.410   0.176   9.481 -1.6111 -1.7188  1.0104
 6609TIP3   OH244021   4.479   0.730   0.668  0.1252  0.2285 -0.4920
 6609TIP3    H144022   4.521   0.707   0.750 -0.2276  0.6939 -0.1726
 6609TIP3    H244023   4.472   0.647   0.620 -0.7203 -0.2617  0.4379
 6610TIP3   OH244024   7.400   1.971   9.635 -0.5010  0.9745 -0.0350
 6610TIP3    H144025   7.448   2.029   9.577 -2.1520  0.8517 -1.6176
 6610TIP3    H244026   7.462   1.902   9.658  0.1747  0.9528 -1.8002
 6611TIP3   OH244027   1.304   2.403   6.619 -0.0030  0.1649 -0.2123
 6611TIP3    H144028   1.222   2.445   6.593 -0.1479  1.3117  1.8877
 6611TIP3    H244029   1.282   2.311   6.632 -0.6417  0.2113 -0.9299
 6612TIP3   OH244030   6.863   2.943   8.593 -0.2400 -0.4100 -0.5845
 6612TIP3    H144031   6.908   2.863   8.565  1.1971  0.1772 -0.0629
 6612TIP3    H244032   6.928   2.990   8.646 -1.4051  0.6065  0.0019
 6613TIP3   OH244033   1.406   1.361   0.010 -0.2405  0.0921  0.2444
 6613TIP3    H144034   1.334   1.376  -0.051 -0.2730  2.0713  0.7253
 6613TIP3    H244035   1.388   1.274   0.046 -1.7765  0.0873 -0.4448
 6614TIP3   OH244036   2.130   2.018   0.688  0.3212  0.1041 -0.0354
 6614TIP3    H144037   2.187   1.964   0.633 -2.0651 -2.7795  0.0087
 6614TIP3    H244038   2.119   2.099   0.639  0.3077 -1.3357 -2.6377
 6615TIP3   OH244039   4.043   6.507   2.916 -0.8134  0.6804 -0.6708
 6615TIP3    H144040   4.028   6.447   2.989  0.8353 -0.6581 -1.3550
 6615TIP3    H244041   3.967   6.565   2.916 -1.1653  0.2986  1.6724
 6616TIP3   OH244042   6.675   7.427   9.432  0.6113 -0.5951  0.3290
 6616TIP3    H144043   6.593   7.469   9.408 -0.3583 -0.8057  2.9114
 6616TIP3    H244044   6.741   7.495   9.423 -0.5773  0.9254  2.3205
 6617TIP3   OH244045   0.896   6.481   9.441 -0.2207  0.3491 -0.4811
 6617TIP3    H144046   0.986   6.448   9.433 -0.3509 -0.3253  0.5880
 6617TIP3    H244047   0.903   6.556   9.500 -0.5399 -0.6884  0.9454
 6618TIP3   OH244048   6.446   0.028   9.083  0.3092  0.3165  0.2401
 6618TIP3    H144049   6.422   0.002   9.172 -1.2576  0.5364 -0.0933
 6618TIP3    H244050   6.435   0.123   9.082  0.4610  0.3321 -0.1550
 6619TIP3   OH244051   6.973   6.385   8.284  0.6243  0.0395 -0.0908
 6619TIP3    H144052   7.058   6.343   8.286  1.1651  1.1072  0.3236
 6619TIP3    H244053   6.973   6.444   8.360 -0.4754  0.0697 -0.0905
 6620TIP3   OH244054   6.366   1.596   1.139  0.3052  0.3666  0.1653
 6620TIP3    H144055   6.455   1.561   1.130 -0.0857 -0.3450 -1.2603
 6620TIP3    H244056   6.327   1.546   1.211  0.4783 -0.6044 -0.4044
 6621TIP3   OH244057   4.864   4.309   9.242 -0.1371 -0.1290  0.0891
 6621TIP3    H144058   4.832   4.306   9.152  0.7653  1.1309 -0.3120
 6621TIP3    H244059   4.959   4.319   9.233  0.1028 -1.2333  1.2044
 6622TIP3   OH244060   6.055   1.920   1.603 -0.0740  0.0314 -0.3845
 6622TIP3    H144061   6.020   2.005   1.628 -0.7635 -0.2598 -0.3140
 6622TIP3    H244062   5.983   1.859   1.621 -0.1481 -0.3597 -1.8921
 6623TIP3   OH244063   3.082   3.243   9.247 -0.1763 -0.5793  0.0882
 6623TIP3    H144064   3.077   3.168   9.306 -2.2116 -0.1137  0.5980
 6623TIP3    H244065   3.004   3.235   9.192 -0.6430  1.3026  0.3941
 6624TIP3   OH244066   0.488   5.190   8.260  0.2146  1.1242 -0.3739
 6624TIP3    H144067   0.449   5.193   8.172  0.7483  0.3275 -0.6482
 6624TIP3    H244068   0.432   5.246   8.313 -0.8429  0.6293 -0.9424
 6625TIP3   OH244069   6.132   0.051   8.674  0.3972  0.2402  0.0133
 6625TIP3    H144070   6.143  -0.016   8.742 -0.5490 -0.2001 -0.2466
 6625TIP3    H244071   6.058   0.020   8.622  0.1612  1.3216 -0.3180
 6626TIP3   OH244072   3.850   4.532   8.609  0.0558 -0.3454  0.4435
 6626TIP3    H144073   3.833   4.499   8.698  0.2844  1.2628  1.1055
 6626TIP3    H244074   3.938   4.501   8.589  1.0769  1.4807  1.8636
 6627TIP3   OH244075   2.205   2.428   2.077  0.1368 -0.4636 -0.2594
 6627TIP3    H144076   2.198   2.333   2.085  0.5166 -0.5233 -0.5980
 6627TIP3    H244077   2.219   2.443   1.984 -0.6437 -0.0263 -0.3125
 6628TIP3   OH244078   2.678   3.796   9.011 -0.2128  0.3866  0.3631
 6628TIP3    H144079   2.655   3.883   8.979  1.6152  1.0828  0.8157
 6628TIP3    H244080   2.763   3.776   8.971 -0.8898 -1.4933 -0.2511
 6629TIP3   OH244081   2.014   1.731   2.341  0.3670 -0.1562  0.1827
 6629TIP3    H144082   2.051   1.749   2.254 -0.0170  1.6199  0.3477
 6629TIP3    H244083   1.919   1.734   2.327  0.3051  0.1913  0.6574
 6630TIP3   OH244084   1.272   0.028   8.944  0.2574 -0.2476  0.1930
 6630TIP3    H144085   1.280   0.080   8.865  1.2488 -0.3868  0.1882
 6630TIP3    H244086   1.355   0.041   8.990 -0.3539 -0.0656  1.2700
 6631TIP3   OH244087   2.870   1.407   2.196  0.6311  0.4241  0.5504
 6631TIP3    H144088   2.938   1.340   2.193 -1.5738 -1.9412 -2.0391
 6631TIP3    H244089   2.825   1.392   2.280  0.6746 -0.8590  0.3660
 6632TIP3   OH244090   3.955   0.820   1.588 -0.2371 -0.2494 -0.2251
 6632TIP3    H144091   3.913   0.814   1.674 -0.4334  0.9788 -0.2232
 6632TIP3    H244092   3.983   0.730   1.569 -0.9143 -0.6844  0.7528
 6633TIP3   OH244093   5.166   5.776   9.907 -0.4072 -0.0416 -0.2277
 6633TIP3    H144094   5.137   5.858   9.947 -0.3339 -0.4969  0.7694
 6633TIP3    H244095   5.141   5.708   9.969  1.5330 -0.5872  0.0286
 6634TIP3   OH244096   4.323   2.545   2.497  0.0100 -0.2257  0.8227
 6634TIP3    H144097   4.397   2.604   2.508 -0.3987  0.9553 -2.0019
 6634TIP3    H244098   4.360   2.468   2.454 -0.4412  0.6785 -1.2864
 6635TIP3   OH244099   7.397   3.286   1.540  0.0980  0.0772 -0.1297
 6635TIP3    H144100   7.304   3.266   1.552  0.1292 -0.8734 -1.3800
 6635TIP3    H244101   7.430   3.217   1.483  1.4281  0.7778 -0.2478
 6636TIP3   OH244102   5.285   4.841   9.936 -0.4282 -0.2523  0.7396
 6636TIP3    H144103   5.278   4.783   9.861  0.2003  0.4214  0.1334
 6636TIP3    H244104   5.223   4.912   9.918 -1.2376 -0.7546  1.5009
 6637TIP3   OH244105   1.643   3.933   2.456  0.0541 -0.1395 -0.5468
 6637TIP3    H144106   1.576   3.994   2.487  0.2744  0.2409 -0.8131
 6637TIP3    H244107   1.616   3.848   2.491 -0.2976  0.0964 -0.2406
 6638TIP3   OH244108   4.418   5.093   0.651 -0.1990  0.0200 -0.5675
 6638TIP3    H144109   4.399   5.006   0.616 -1.2812  0.1209 -0.2528
 6638TIP3    H244110   4.500   5.081   0.699  0.0464 -0.6572 -1.1299
 6639TIP3   OH244111   0.598   1.742   2.360  0.7801  0.5535 -0.4644
 6639TIP3    H144112   0.540   1.673   2.392  0.3479  0.9607 -0.3690
 6639TIP3    H244113   0.686   1.712   2.385  0.4155  1.3242  2.0719
 6640TIP3   OH244114   1.858   3.086   7.843  0.0057  0.4160  0.0188
 6640TIP3    H144115   1.926   3.147   7.873 -0.1075  0.5704 -0.0355
 6640TIP3    H244116   1.856   3.017   7.909 -0.7792  1.1481  0.7949
 6641TIP3   OH244117   1.117   0.075   7.876 -0.2375  0.0609 -0.0312
 6641TIP3    H144118   1.172   0.041   7.947  0.8916 -1.4837 -1.5838
 6641TIP3    H244119   1.058   0.002   7.855  1.8627 -0.9224 -3.0592
 6642TIP3   OH244120   5.560   0.207   1.122  0.5931 -0.0988 -0.2548
 6642TIP3    H144121   5.613   0.130   1.105  1.5859  0.2605  1.0050
 6642TIP3    H244122   5.471   0.173   1.133  0.8728 -0.9522 -0.5690
 6643TIP3   OH244123   1.375   4.716   7.357 -0.0380 -0.4050 -0.8330
 6643TIP3    H144124   1.407   4.711   7.447  0.8922 -0.1819 -1.1391
 6643TIP3    H244125   1.340   4.629   7.338 -0.1974 -0.4630 -0.2717
 6644TIP3   OH244126   3.581   4.047   0.652  0.0650 -0.0554  0.1082
 6644TIP3    H144127   3.519   4.001   0.596  0.1714  0.0277 -0.0781
 6644TIP3    H244128   3.628   3.977   0.698 -0.2218 -0.1163  0.3144
 6645TIP3   OH244129   3.365   4.824   6.675 -0.4602  0.6069 -0.0509
 6645TIP3    H144130   3.373   4.906   6.722 -0.8541 -0.6239  2.3088
 6645TIP3    H244131   3.451   4.810   6.636 -0.2424  1.8763 -0.0653
 6646TIP3   OH244132   5.291   5.957   9.643 -0.2101  0.9804 -0.0524
 6646TIP3    H144133   5.198   5.947   9.662 -0.5235  1.5053 -1.2015
 6646TIP3    H244134   5.308   6.051   9.651  0.0372  0.9870 -0.5960
 6647TIP3   OH244135   2.810   4.203   1.377  0.6372  0.1138 -0.1129
 6647TIP3    H144136   2.860   4.122   1.365  0.6033 -0.0620  0.8444
 6647TIP3    H244137   2.843   4.240   1.459  0.0393  0.6179 -0.0894
 6648TIP3   OH244138   6.830   5.395   1.511 -0.4563 -0.2612  0.1513
 6648TIP3    H144139   6.898   5.333   1.539 -0.7196 -0.7835 -0.3348
 6648TIP3    H244140   6.818   5.376   1.418  0.4330  1.4777 -0.3497
 6649TIP3   OH244141   1.376   6.991   8.917  0.2287 -0.3697 -0.0287
 6649TIP3    H144142   1.390   7.080   8.949  0.8790 -0.7848  0.8708
 6649TIP3    H244143   1.341   7.003   8.828 -0.7226  0.7952  0.4655
 6650TIP3   OH244144   2.378   1.975   6.679  0.3116 -0.2919  0.2832
 6650TIP3    H144145   2.470   1.959   6.658  0.5387  0.8415  0.3590
 6650TIP3    H244146   2.370   2.070   6.679 -1.4753 -0.3286 -2.4672
 6651TIP3   OH244147   3.614   1.556   7.408 -0.5403 -0.4282 -0.3892
 6651TIP3    H144148   3.560   1.511   7.473  1.7445 -2.7719  0.0625
 6651TIP3    H244149   3.663   1.621   7.459 -0.6254 -0.4769 -0.2449
 6652TIP3   OH244150   0.889   5.889   1.005  0.0258 -0.0555 -0.2939
 6652TIP3    H144151   0.947   5.846   0.943  1.1087  0.1234  0.5713
 6652TIP3    H244152   0.875   5.976   0.969  2.2438  0.7588  0.6230
 6653TIP3   OH244153   3.421   2.159   9.088 -0.1869 -0.1341 -0.2594
 6653TIP3    H144154   3.329   2.166   9.114 -0.1144  0.9013 -0.2140
 6653TIP3    H244155   3.449   2.250   9.076  1.2895 -0.3149  1.3244
 6654TIP3   OH244156   1.922   5.979   7.015  0.7335  0.4063  0.0329
 6654TIP3    H144157   1.954   5.989   6.926  0.3180  0.7097 -0.0892
 6654TIP3    H244158   1.961   6.052   7.063  2.3517 -0.7431  0.5198
 6655TIP3   OH244159   0.457   5.426   8.839 -0.0413  0.4686  0.1422
 6655TIP3    H144160   0.516   5.395   8.770 -1.4170  1.2527 -1.4545
 6655TIP3    H244161   0.467   5.521   8.839 -0.9197  0.5745  0.1728
 6656TIP3   OH244162   1.993   1.163   9.081 -0.7968 -0.4781  0.2471
 6656TIP3    H144163   1.983   1.075   9.118 -1.7320 -0.3533  0.3057
 6656TIP3    H244164   1.929   1.167   9.010 -0.1158 -0.1560 -0.3608
 6657TIP3   OH244165   4.385   4.092   9.771 -0.0900  0.1303 -0.3091
 6657TIP3    H144166   4.407   4.093   9.864 -0.2576 -0.1467 -0.2648
 6657TIP3    H244167   4.382   4.184   9.746  3.6332  0.2227 -0.9338
 6658TIP3   OH244168   7.209   7.290   1.052 -0.9204 -0.0124 -0.2139
 6658TIP3    H144169   7.206   7.204   1.011 -0.9386 -0.2567  0.2909
 6658TIP3    H244170   7.277   7.283   1.118 -0.7728  0.4297 -0.3120
 6659TIP3   OH244171   2.069   3.849   6.941 -0.3940  0.0985  0.0843
 6659TIP3    H144172   2.125   3.835   7.016 -0.6467  0.6093  0.3771
 6659TIP3    H244173   2.128   3.872   6.870  0.0613 -2.5236 -0.4790
 6660TIP3   OH244174   5.172   3.607   7.812  0.0417 -0.2838 -0.2232
 6660TIP3    H144175   5.104   3.671   7.828  0.7539  0.1830  1.1399
 6660TIP3    H244176   5.219   3.639   7.735 -1.7782 -1.0927 -1.7573
 6661TIP3   OH244177   3.051   1.410   7.165  0.3414 -0.4011 -0.1886
 6661TIP3    H144178   3.055   1.478   7.097 -3.3370  0.4537  0.2121
 6661TIP3    H244179   3.031   1.330   7.117  0.6329 -0.3799 -0.3457
 6662TIP3   OH244180   0.398   0.260   1.565 -0.0747 -0.3284 -0.8114
 6662TIP3    H144181   0.373   0.283   1.654  0.9820 -0.1797 -0.5377
 6662TIP3    H244182   0.315   0.248   1.519 -0.6328 -0.1581  0.1225
 6663TIP3   OH244183   6.022   0.486   7.478  0.9070  0.2127 -0.1309
 6663TIP3    H144184   5.945   0.524   7.520  0.2390  0.4296 -1.4935
 6663TIP3    H244185   6.088   0.555   7.484  1.1092 -0.0738  1.2874
 6664TIP3   OH244186   4.980   6.568   9.582  0.3480  0.1001  0.3331
 6664TIP3    H144187   5.010   6.509   9.652 -2.5442 -0.9951  0.7952
 6664TIP3    H244188   4.961   6.510   9.508 -2.0451  0.4135  0.6206
 6665TIP3   OH244189   3.290   0.744   8.414  0.1784  0.2923  0.5790
 6665TIP3    H144190   3.200   0.764   8.388  0.7538  1.1981 -0.7874
 6665TIP3    H244191   3.283   0.659   8.457 -1.3210  0.3212  0.4627
 6666TIP3   OH244192   6.676   4.145   8.360 -1.1890  0.1638 -0.1203
 6666TIP3    H144193   6.581   4.149   8.355 -1.1053  2.0332 -0.9734
 6666TIP3    H244194   6.696   4.052   8.359 -2.9460 -0.2522 -1.3026
 6667TIP3   OH244195   0.512   6.434   0.718  0.3558  0.0047 -1.1930
 6667TIP3    H144196   0.467   6.401   0.796  0.0674  0.8216 -1.0028
 6667TIP3    H244197   0.491   6.370   0.649  0.2436 -0.4816 -0.7164
 6668TIP3   OH244198   3.234   2.786   2.014  0.1591 -0.1678  0.2915
 6668TIP3    H144199   3.320   2.818   2.043  0.0344  0.6220 -0.1629
 6668TIP3    H244200   3.175   2.809   2.086  0.2302 -0.1685  0.3501
 6669TIP3   OH244201   2.214   3.368   9.765  0.5446 -0.3206 -0.0525
 6669TIP3    H144202   2.169   3.444   9.729  0.2886 -0.4928 -0.1013
 6669TIP3    H244203   2.272   3.339   9.694 -0.7377 -1.3019 -0.7405
 6670TIP3   OH244204   3.852   0.560   1.135 -0.2780 -0.3567 -0.0124
 6670TIP3    H144205   3.784   0.611   1.179 -0.8526 -0.6673 -0.5295
 6670TIP3    H244206   3.805   0.489   1.091  0.4948 -1.3286  0.6581
 6671TIP3   OH244207   0.020   4.953   7.570  0.5753 -0.1773  0.1704
 6671TIP3    H144208   0.021   4.923   7.479  1.6371  1.1424 -0.2854
 6671TIP3    H244209   0.068   4.885   7.618  1.1700 -0.2260 -0.4851
 6672TIP3   OH244210   3.967   0.102   9.161 -0.0559 -0.3093  0.1143
 6672TIP3    H144211   3.908   0.162   9.207  0.8575  0.9359 -0.2842
 6672TIP3    H244212   4.049   0.106   9.211  0.9007  0.9348 -1.4724
 6673TIP3   OH244213   2.881   2.923   9.742 -0.5371 -0.0399  0.2747
 6673TIP3    H144214   2.856   2.895   9.654 -0.4130 -0.4523  0.3696
 6673TIP3    H244215   2.896   2.842   9.790  2.2130  0.1676 -0.1086
 6674TIP3   OH244216   3.989   6.322   2.442  0.0026 -0.7596  0.9525
 6674TIP3    H144217   4.053   6.384   2.478  1.0243 -1.1614 -0.1105
 6674TIP3    H244218   4.036   6.238   2.440  0.1876 -0.6803 -1.6974
 6675TIP3   OH244219   1.171   3.211   9.147 -1.0081  0.4426  0.3720
 6675TIP3    H144220   1.099   3.236   9.089  0.8288  2.4705 -1.2047
 6675TIP3    H244221   1.221   3.146   9.097 -0.8943  0.1808  0.8172
 6676TIP3   OH244222   5.680   5.351   7.727 -0.0020 -0.4582 -0.7714
 6676TIP3    H144223   5.744   5.342   7.656 -0.1839 -0.2556 -0.9617
 6676TIP3    H244224   5.677   5.445   7.745 -0.8469 -0.3611 -1.3250
 6677TIP3   OH244225   7.182   0.732   1.957 -0.4214 -0.3320  0.1905
 6677TIP3    H144226   7.093   0.718   1.926 -0.4293  0.1314 -0.0018
 6677TIP3    H244227   7.198   0.659   2.018 -1.1894 -0.0180  0.7812
 6678TIP3   OH244228   0.784   2.118   8.583 -0.1478  0.3822  0.1999
 6678TIP3    H144229   0.746   2.109   8.671  0.7413 -1.0008  0.4709
 6678TIP3    H244230   0.752   2.203   8.552 -3.2978 -0.5403  0.4923
 6679TIP3   OH244231   0.539   6.013   7.939  0.0523 -0.0316 -0.1910
 6679TIP3    H144232   0.552   5.976   8.026 -1.3277  0.7998  0.4036
 6679TIP3    H244233   0.560   6.106   7.949  0.7385 -0.0958 -0.9682
 6680TIP3   OH244234   2.063   5.475   6.742  0.2819 -0.2570  0.1415
 6680TIP3    H144235   2.105   5.519   6.667 -0.3470 -1.2348 -0.8118
 6680TIP3    H244236   2.083   5.532   6.817  0.2028  1.2064 -0.8962
 6681TIP3   OH244237   5.429   0.525   8.906 -0.3943 -0.4903 -0.4865
 6681TIP3    H144238   5.439   0.571   8.989 -2.3965 -1.0831  0.1541
 6681TIP3    H244239   5.517   0.496   8.884  0.3151  0.3927  1.0092
 6682TIP3   OH244240   1.373   5.153   2.670  0.0605  0.2177  0.5612
 6682TIP3    H144241   1.404   5.214   2.737 -3.0021 -0.2071  2.5743
 6682TIP3    H244242   1.347   5.075   2.719 -1.5220 -0.4544 -1.2230
 6683TIP3   OH244243   5.617   2.900   2.273 -0.2403 -0.0020  0.6671
 6683TIP3    H144244   5.609   2.975   2.331 -0.4358  0.0172  0.6178
 6683TIP3    H244245   5.586   2.826   2.325  0.4340 -0.1369  0.8875
 6684TIP3   OH244246   2.096   2.061   8.572  0.2693  0.0872 -0.1579
 6684TIP3    H144247   2.091   2.060   8.476  0.8785  0.4243 -0.2001
 6684TIP3    H244248   2.190   2.060   8.591  0.1537 -1.2967  0.4611
 6685TIP3   OH244249   7.086   7.382   0.473  0.0416 -0.0539 -0.0766
 6685TIP3    H144250   7.051   7.385   0.384  0.9916  0.4336 -0.4503
 6685TIP3    H244251   7.093   7.289   0.493 -0.1528 -0.1662 -0.5223
 6686TIP3   OH244252   0.350   4.913   1.028 -0.7490  0.0333 -0.7078
 6686TIP3    H144253   0.285   4.975   0.997 -2.2299 -0.3778  1.3593
 6686TIP3    H244254   0.341   4.837   0.971  0.0493  1.0973 -2.3096
 6687TIP3   OH244255   1.867   4.739   8.209 -0.0382 -0.5630 -0.3026
 6687TIP3    H144256   1.788   4.793   8.210  0.0935 -0.3740  0.0752
 6687TIP3    H244257   1.841   4.659   8.162 -0.6902 -0.8700  0.5657
 6688TIP3   OH244258   6.790   0.820   0.776 -0.2630 -0.2743  0.2760
 6688TIP3    H144259   6.841   0.740   0.784 -1.7657 -1.3384 -0.4262
 6688TIP3    H244260   6.793   0.842   0.683  1.3950  1.3955  0.6519
 6689TIP3   OH244261   2.691   5.350   5.859 -0.2410 -0.2192  0.4409
 6689TIP3    H144262   2.665   5.267   5.900 -3.1769  1.1915  1.7255
 6689TIP3    H244263   2.783   5.337   5.836  0.5481 -2.5531  3.9981
 6690TIP3   OH244264   1.119   1.076   1.175  0.2570  0.2612 -0.2242
 6690TIP3    H144265   1.029   1.053   1.199  0.1314  0.7861 -0.1813
 6690TIP3    H244266   1.141   1.147   1.234  1.1900 -0.7571  0.7000
 6691TIP3   OH244267   4.493   2.112   8.838 -0.2944 -0.5696  0.4486
 6691TIP3    H144268   4.580   2.151   8.836 -0.8159  0.6014 -0.2716
 6691TIP3    H244269   4.453   2.146   8.918 -1.6168  2.4718 -1.3200
 6692TIP3   OH244270   4.732   6.595   0.782  0.2025  0.2459  0.0114
 6692TIP3    H144271   4.817   6.639   0.792 -0.3379  0.9517  1.8583
 6692TIP3    H244272   4.686   6.649   0.717  1.1834 -0.2204 -1.1106
 6693TIP3   OH244273   3.830   0.302   8.111 -0.2041 -0.2861 -0.0306
 6693TIP3    H144274   3.906   0.316   8.167 -0.8373 -0.1130  0.8166
 6693TIP3    H244275   3.860   0.323   8.023  0.6082  0.2022  0.3511
 6694TIP3   OH244276   4.575   7.013   0.725  0.5020 -0.1531 -0.2744
 6694TIP3    H144277   4.588   7.013   0.820 -1.7293  0.5085  0.0834
 6694TIP3    H244278   4.612   6.930   0.696  2.3743  0.1818  0.9595
 6695TIP3   OH244279   3.472   7.288   8.398  0.2923  0.0011 -0.5862
 6695TIP3    H144280   3.509   7.291   8.310  2.1313 -1.0919  0.0976
 6695TIP3    H244281   3.454   7.196   8.414  0.9632  0.0418  0.5381
 6696TIP3   OH244282   4.041   6.118   0.120 -0.3065  0.1973  0.6356
 6696TIP3    H144283   4.090   6.084   0.046 -0.9888 -0.5072  0.4994
 6696TIP3    H244284   3.949   6.104   0.097 -0.5517 -2.8920  2.8752
 6697TIP3   OH244285   2.130   2.464   9.990  0.2780  0.1452  0.1094
 6697TIP3    H144286   2.048   2.438  10.033 -0.3037  0.7974 -0.5665
 6697TIP3    H244287   2.194   2.400  10.019 -0.5340 -0.5244  0.4689
 6698TIP3   OH244288   2.526   4.066   6.831  0.0132  0.3206  0.0916
 6698TIP3    H144289   2.515   4.125   6.905  1.0526  0.3822  0.2230
 6698TIP3    H244290   2.513   4.121   6.754 -1.1336  0.2423  0.2209
 6699TIP3   OH244291   0.562   6.413   1.563  0.1230 -0.3063  0.3276
 6699TIP3    H144292   0.572   6.476   1.634  1.4475  0.0536 -0.1536
 6699TIP3    H244293   0.470   6.387   1.567  0.3152 -0.8964  2.6766
 6700TIP3   OH244294   1.974   2.183   2.014 -0.1908  0.2499 -0.2317
 6700TIP3    H144295   1.885   2.164   2.044 -0.3637  1.0937 -0.1909
 6700TIP3    H244296   2.016   2.097   2.009 -0.3964 -0.0087  1.6773
 6701TIP3   OH244297   6.469   3.273   1.411  0.1907  0.1076  0.9193
 6701TIP3    H144298   6.389   3.272   1.357  0.1726  1.5851  0.8836
 6701TIP3    H244299   6.447   3.329   1.485  0.6054 -0.9813  1.8960
 6702TIP3   OH244300   7.348   2.589   0.264 -0.1203 -0.3412  0.4694
 6702TIP3    H144301   7.422   2.581   0.204  0.6109  0.0498  1.3028
 6702TIP3    H244302   7.271   2.593   0.207  0.5610  0.0382 -0.4459
 6703TIP3   OH244303   1.451   4.449   1.131  0.0657  0.4341  0.0991
 6703TIP3    H144304   1.363   4.423   1.104 -0.0197  1.3281 -0.5034
 6703TIP3    H244305   1.463   4.406   1.216  0.3824 -2.4918 -1.3144
 6704TIP3   OH244306   4.402   0.145   8.975 -0.0145  0.0113  0.0325
 6704TIP3    H144307   4.364   0.090   9.043 -0.6588 -2.3405 -2.0746
 6704TIP3    H244308   4.328   0.172   8.921  0.5704  1.0921 -0.2537
 6705TIP3   OH244309   5.252   0.720   2.219  0.5499 -0.5295  0.2324
 6705TIP3    H144310   5.311   0.670   2.162  0.9491  1.1441 -0.9075
 6705TIP3    H244311   5.248   0.669   2.300  1.6379 -1.9235 -0.5345
 6706TIP3   OH244312   1.756   5.315   3.458 -0.5137 -0.8585 -0.1451
 6706TIP3    H144313   1.679   5.367   3.479  0.6474  1.5286 -1.4004
 6706TIP3    H244314   1.817   5.333   3.529  0.4330  0.7696 -1.3108
 6707TIP3   OH244315   6.901   0.963   8.897  0.6458  0.4648 -0.3584
 6707TIP3    H144316   6.841   0.891   8.917  1.8796 -0.2179  1.1388
 6707TIP3    H244317   6.987   0.932   8.928  1.4382  2.1005 -0.8038
 6708TIP3   OH244318   1.732   7.157   1.891 -0.1583  0.2458  0.2645
 6708TIP3    H144319   1.739   7.249   1.866 -0.9067  0.2572  0.0615
 6708TIP3    H244320   1.644   7.149   1.929  0.5673 -0.0054  1.9608
 6709TIP3   OH244321   1.379   4.318   8.713 -0.3935  0.0795  0.3140
 6709TIP3    H144322   1.407   4.254   8.779 -0.7606  0.4451  0.8309
 6709TIP3    H244323   1.434   4.394   8.728 -1.4941  0.7302  1.2087
 6710TIP3   OH244324   0.706   3.661   1.562 -0.0195 -0.0710 -0.3030
 6710TIP3    H144325   0.742   3.745   1.589 -1.7997  0.8033 -0.5773
 6710TIP3    H244326   0.622   3.655   1.606 -0.1683 -1.4696 -0.7259
 6711TIP3   OH244327   2.246   2.358   8.494 -0.5010 -0.0139  0.2652
 6711TIP3    H144328   2.290   2.310   8.424 -0.7939 -0.1164  0.1488
 6711TIP3    H244329   2.175   2.405   8.450  0.2617  1.1578  0.2554
 6712TIP3   OH244330   6.881   0.173   0.982 -0.7627  0.2765 -0.2825
 6712TIP3    H144331   6.893   0.242   1.047 -0.3028  0.3313 -0.4235
 6712TIP3    H244332   6.936   0.198   0.908  0.5650 -0.9448  0.2363
 6713TIP3   OH244333   4.741   6.305   0.831 -0.4236 -0.3201 -0.2285
 6713TIP3    H144334   4.758   6.377   0.770 -0.0285  1.4876  1.8870
 6713TIP3    H244335   4.671   6.338   0.888 -2.2134 -2.7244 -0.8750
 6714TIP3   OH244336   5.394   2.173   8.315  0.0764 -0.2390  0.2723
 6714TIP3    H144337   5.457   2.131   8.256  1.4956  0.6186  1.1284
 6714TIP3    H244338   5.447   2.233   8.368 -1.4804  0.5553  0.9873
 6715TIP3   OH244339   2.076   4.762   7.147  0.0990 -0.7048  0.0538
 6715TIP3    H144340   1.989   4.737   7.117 -0.4126  0.5614  0.4079
 6715TIP3    H244341   2.135   4.742   7.074 -0.6123 -0.8146 -0.4925
 6716TIP3   OH244342   1.572   5.258   0.734 -0.1426 -0.9474 -0.2123
 6716TIP3    H144343   1.593   5.323   0.667  2.3302  1.4256  2.5847
 6716TIP3    H244344   1.513   5.303   0.794  1.1065 -1.4070  1.4417
 6717TIP3   OH244345   6.188   0.831   8.564  0.2018  0.3533  0.0448
 6717TIP3    H144346   6.279   0.816   8.539  0.3463  0.6344  0.3899
 6717TIP3    H244347   6.176   0.779   8.643 -0.1780 -0.3271 -0.4560
 6718TIP3   OH244348   6.910   2.606   7.683 -0.3384 -0.4874  0.5251
 6718TIP3    H144349   6.828   2.557   7.689 -0.8179  0.3970  1.5828
 6718TIP3    H244350   6.885   2.688   7.640 -0.1411  0.0377  1.3954
 6719TIP3   OH244351   6.651   2.571   2.092 -0.0839 -0.0659 -0.9155
 6719TIP3    H144352   6.683   2.482   2.107  2.1047  0.6568 -0.9366
 6719TIP3    H244353   6.561   2.560   2.064  0.2125 -2.2965 -1.1484
 6720TIP3   OH244354   5.593   2.212   8.756 -0.1977 -0.2253 -0.3597
 6720TIP3    H144355   5.570   2.300   8.725 -0.7457 -0.3012 -0.1730
 6720TIP3    H244356   5.516   2.159   8.736 -1.3334  0.0773  2.6845
 6721TIP3   OH244357   0.085   7.257   2.808 -0.9641 -0.4991 -0.2517
 6721TIP3    H144358   0.148   7.287   2.873 -0.5065 -2.5742  0.3455
 6721TIP3    H244359   0.131   7.261   2.724 -1.3356  1.5515 -0.3976
 6722TIP3   OH244360   0.171   5.772   2.487 -0.2830  0.4515  0.4128
 6722TIP3    H144361   0.187   5.847   2.429  1.2611  0.6300  1.0341
 6722TIP3    H244362   0.211   5.797   2.570  0.8716 -1.3218  0.4386
 6723TIP3   OH244363   3.310   1.639   0.633  0.2551 -0.3068  0.7189
 6723TIP3    H144364   3.317   1.724   0.591 -0.1507 -0.4797  0.2913
 6723TIP3    H244365   3.400   1.607   0.638  0.5870  0.7382  2.1506
 6724TIP3   OH244366   1.841   3.435   9.719 -0.1572 -0.1138  0.3419
 6724TIP3    H144367   1.838   3.408   9.811  0.9212 -0.0635  0.4077
 6724TIP3    H244368   1.750   3.434   9.691 -0.5750  0.4544  1.5786
 6725TIP3   OH244369   2.902   6.260   2.573  0.1743  0.4695 -0.2383
 6725TIP3    H144370   2.867   6.260   2.662 -1.6916  1.3715 -0.9023
 6725TIP3    H244371   2.858   6.334   2.531  1.6932  0.6111 -1.6640
 6726TIP3   OH244372   2.787   1.292   7.082 -0.3942 -0.3323 -0.2172
 6726TIP3    H144373   2.818   1.201   7.085  0.9150  0.0548 -1.0564
 6726TIP3    H244374   2.759   1.305   6.991  2.3450  0.9518 -0.9843
 6727TIP3   OH244375   5.512   5.559   2.145 -0.0914  0.0473 -0.2126
 6727TIP3    H144376   5.503   5.650   2.118 -1.2141  0.2412  0.7091
 6727TIP3    H244377   5.424   5.534   2.173  0.6170 -0.6319  1.5782
 6728TIP3   OH244378   3.949   4.068   7.175 -0.1695 -0.4154  0.1088
 6728TIP3    H144379   4.017   4.087   7.110  0.8796  0.9200  1.5268
 6728TIP3    H244380   3.867   4.074   7.126  0.6582 -1.0754 -1.4319
 6729TIP3   OH244381   3.014   0.153   1.448 -0.2736  0.5828 -0.1678
 6729TIP3    H144382   3.061   0.178   1.368 -0.6356 -0.0835 -0.5951
 6729TIP3    H244383   3.077   0.168   1.519 -0.3619  2.3924 -0.4270
 6730TIP3   OH244384   0.004   4.720   9.853 -0.1566  0.0041 -0.0092
 6730TIP3    H144385  -0.073   4.684   9.898 -1.7852 -0.0797 -2.6359
 6730TIP3    H244386  -0.033   4.785   9.793  2.0280  1.0485 -0.3072
 6731TIP3   OH244387   7.223   0.147   0.176  0.0071  0.2082  0.2022
 6731TIP3    H144388   7.260   0.224   0.134 -0.9106  0.1630 -0.7180
 6731TIP3    H244389   7.298   0.105   0.218  0.8023  0.7224 -0.6659
 6732TIP3   OH244390   0.851   3.329   6.920 -0.2450  0.5403 -0.4051
 6732TIP3    H144391   0.767   3.291   6.945  0.5397 -0.7274  0.4417
 6732TIP3    H244392   0.879   3.379   6.997  0.6856 -0.7320  0.1328
 6733TIP3   OH244393   2.727   7.202   1.393  0.2071  0.3293 -0.0937
 6733TIP3    H144394   2.654   7.181   1.336  0.2226 -0.9380  0.3197
 6733TIP3    H244395   2.727   7.298   1.398 -1.5616  0.3503  0.0875
 6734TIP3   OH244396   5.359   4.412   0.433  0.3831 -0.2662  0.4022
 6734TIP3    H144397   5.341   4.320   0.414  1.8043 -0.1883 -1.7807
 6734TIP3    H244398   5.405   4.411   0.517 -0.8208 -1.3666  1.0912
 6735TIP3   OH244399   5.468   0.178   8.163  0.4518 -0.0093 -0.0688
 6735TIP3    H144400   5.375   0.168   8.145  0.3869 -0.8185  0.6319
 6735TIP3    H244401   5.472   0.196   8.257  1.1052 -2.2459  0.3898
 6736TIP3   OH244402   3.015   1.185   7.558 -0.1599  0.6218  0.0465
 6736TIP3    H144403   3.049   1.098   7.581 -0.0579  0.4873 -0.5890
 6736TIP3    H244404   3.075   1.246   7.602 -0.7659  0.3869  1.2599
 6737TIP3   OH244405   0.853   1.144   8.992 -0.0394 -0.3385  0.5607
 6737TIP3    H144406   0.759   1.161   8.999 -0.0331  0.4249 -1.0164
 6737TIP3    H244407   0.860   1.074   8.927  0.5798  0.8704 -0.7080
 6738TIP3   OH244408   7.236   5.304   2.055 -0.1361  0.1285  0.6542
 6738TIP3    H144409   7.155   5.254   2.068  0.0628 -0.3093  0.2297
 6738TIP3    H244410   7.207   5.393   2.036 -0.4934  0.1895  1.4366
 6739TIP3   OH244411   5.880   3.849   1.032  0.0856 -0.7851  0.0829
 6739TIP3    H144412   5.834   3.822   1.112  0.4176 -1.7560 -0.0432
 6739TIP3    H244413   5.970   3.864   1.060 -0.1631  0.5444  0.2141
 6740TIP3   OH244414   6.572   1.127   1.626  0.8204  0.2809  0.1242
 6740TIP3    H144415   6.510   1.054   1.625  1.8277 -0.6888  1.9675
 6740TIP3    H244416   6.549   1.177   1.704  2.4573 -0.2427  0.9846
 6741TIP3   OH244417   3.909   5.680   1.752 -0.3659 -0.5880  0.1104
 6741TIP3    H144418   3.973   5.676   1.822 -1.6229 -1.2148  1.2752
 6741TIP3    H244419   3.897   5.774   1.735 -0.3909 -0.4092  1.0823
 6742TIP3   OH244420   0.840   5.604   6.621  0.3894  0.1983 -0.7729
 6742TIP3    H144421   0.894   5.545   6.673 -0.7008 -0.6319 -0.5511
 6742TIP3    H244422   0.868   5.591   6.531 -0.6706 -1.6104 -0.8795
 6743TIP3   OH244423   7.079   2.435   0.831  0.6385  0.1837 -0.6572
 6743TIP3    H144424   6.992   2.401   0.812 -0.4457  3.1373 -1.6894
 6743TIP3    H244425   7.069   2.530   0.826  3.8930  0.6643 -0.5758
 6744TIP3   OH244426   2.961   1.864   8.556  0.0232  0.3041  0.2771
 6744TIP3    H144427   3.045   1.835   8.520  0.1669  1.4050 -0.3107
 6744TIP3    H244428   2.972   1.860   8.651  0.1320 -1.2367  0.2287
 6745TIP3   OH244429   1.857   3.304   8.530 -0.2257 -0.0870  0.0355
 6745TIP3    H144430   1.812   3.262   8.603 -1.8304  0.2254 -0.7229
 6745TIP3    H244431   1.800   3.289   8.454 -0.6367  2.9431 -0.3798
 6746TIP3   OH244432   3.754   4.512   2.168  0.5984 -0.5116  0.0692
 6746TIP3    H144433   3.681   4.574   2.171  0.6366 -0.4329 -0.5266
 6746TIP3    H244434   3.823   4.553   2.220  0.3279 -0.4515  0.3882
 6747TIP3   OH244435   2.302   4.545   0.137 -0.0249  0.3292  0.0666
 6747TIP3    H144436   2.260   4.614   0.085 -0.8485  1.4271  2.0670
 6747TIP3    H244437   2.374   4.589   0.181 -1.6238  0.4586  2.7590
 6748TIP3   OH244438   5.602   6.594   0.216  0.0735 -0.1982  0.2697
 6748TIP3    H144439   5.605   6.632   0.128 -1.1587 -0.1254  0.2386
 6748TIP3    H244440   5.524   6.540   0.216  1.0886 -1.7276  0.7424
 6749TIP3   OH244441   4.750   3.508   2.280  0.3598  0.0573 -0.1708
 6749TIP3    H144442   4.663   3.509   2.240  1.0416  0.3732 -1.7286
 6749TIP3    H244443   4.786   3.423   2.257 -0.1017 -0.7474  1.8559
 6750TIP3   OH244444   0.043   4.153   6.858 -0.1384 -0.2206  0.4805
 6750TIP3    H144445  -0.014   4.102   6.916  0.4529  0.2230  1.4918
 6750TIP3    H244446  -0.000   4.238   6.850  0.0734 -0.0843  0.7602
 6751TIP3   OH244447   2.452   4.409   7.760  0.1488  0.5591  0.1417
 6751TIP3    H144448   2.442   4.444   7.849  0.4708  0.1422  0.3447
 6751TIP3    H244449   2.495   4.324   7.772 -0.4773  0.1679 -0.3652
 6752TIP3   OH244450   4.523   1.246   9.226 -0.1765 -0.1000 -0.7705
 6752TIP3    H144451   4.577   1.167   9.241 -0.7952 -0.5327 -0.7882
 6752TIP3    H244452   4.558   1.311   9.286 -2.4575 -1.6987  2.5779
 6753TIP3   OH244453   2.368   6.548   9.225  0.6581  1.0937  0.1054
 6753TIP3    H144454   2.305   6.602   9.176 -0.4871  0.1338  0.4892
 6753TIP3    H244455   2.423   6.509   9.157  1.6109  2.8092 -0.1811
 6754TIP3   OH244456   5.954   6.985   8.852  0.0195 -0.1214  0.0574
 6754TIP3    H144457   5.928   7.058   8.909 -0.0727 -0.6867  0.7531
 6754TIP3    H244458   6.016   6.934   8.905 -0.1312 -0.6993 -0.3165
 6755TIP3   OH244459   4.016   1.573   7.348 -0.2637 -0.2784 -0.0794
 6755TIP3    H144460   4.049   1.483   7.343  1.4903  0.3689 -1.3663
 6755TIP3    H244461   4.086   1.622   7.392  0.5565  1.1104 -2.6900
 6756TIP3   OH244462   0.351   6.548   1.295 -0.0703 -0.4305  0.2061
 6756TIP3    H144463   0.362   6.558   1.201 -0.8623 -2.2071 -0.1155
 6756TIP3    H244464   0.338   6.454   1.308 -0.2618 -0.1880  2.0591
 6757TIP3   OH244465   3.889   2.756   0.097 -0.2136 -0.2500  0.2908
 6757TIP3    H144466   3.900   2.782   0.006  0.1009  0.1948  0.4489
 6757TIP3    H244467   3.828   2.683   0.094 -0.9438  0.3655 -0.1911
 6758TIP3   OH244468   2.396   6.175   2.258 -0.4182  0.5352  0.2762
 6758TIP3    H144469   2.400   6.152   2.165 -2.0815 -0.7603  0.4844
 6758TIP3    H244470   2.487   6.171   2.288  0.1203  0.7720 -1.2304
 6759TIP3   OH244471   6.422   4.950   0.478  0.3586 -0.1852  0.1631
 6759TIP3    H144472   6.431   4.946   0.573 -0.7789 -0.8300  0.2550
 6759TIP3    H244473   6.410   5.043   0.458 -0.8112 -0.1963  0.7893
 6760TIP3   OH244474   2.004   4.901   6.842 -0.3315 -0.6140 -0.2968
 6760TIP3    H144475   1.958   4.968   6.892 -2.5329 -1.2423 -1.3429
 6760TIP3    H244476   2.094   4.905   6.874 -0.9006  1.2373  1.3018
 6761TIP3   OH244477   6.449   3.591   0.292  0.0532  0.1297 -0.0584
 6761TIP3    H144478   6.396   3.543   0.355  1.1388 -1.0945 -0.0320
 6761TIP3    H244479   6.441   3.683   0.318 -1.9960 -0.0050 -0.0529
 6762TIP3   OH244480   1.926   1.926   9.571  0.4105 -0.4149  0.0798
 6762TIP3    H144481   2.007   1.975   9.559  2.1502 -2.9518  0.6261
 6762TIP3    H244482   1.879   1.938   9.488  2.1032 -0.1640 -0.9000
 6763TIP3   OH244483   0.691   7.081   0.274  0.6588 -0.1594  0.3423
 6763TIP3    H144484   0.658   7.114   0.357 -0.0385  2.6838 -0.9408
 6763TIP3    H244485   0.633   7.008   0.253 -0.7544  0.6738  1.1827
 6764TIP3   OH244486   4.558   5.830   1.469  0.0715 -0.6657  0.1571
 6764TIP3    H144487   4.633   5.855   1.523  0.1270  1.3540 -0.7655
 6764TIP3    H244488   4.596   5.781   1.396  0.7935  1.6567 -1.1419
 6765TIP3   OH244489   2.745   0.733   0.710 -0.1603  0.0968 -0.3797
 6765TIP3    H144490   2.768   0.647   0.744  0.3949 -0.4202 -1.9797
 6765TIP3    H244491   2.736   0.720   0.616  0.3176  1.8652 -0.7027
 6766TIP3   OH244492   7.201   5.769   1.284  0.4170 -0.5047 -0.0588
 6766TIP3    H144493   7.297   5.767   1.290  0.5154 -1.0927 -1.5430
 6766TIP3    H244494   7.175   5.677   1.296  0.0953 -0.4718 -0.5058
 6767TIP3   OH244495   4.569   0.444   0.794  0.0022  0.4529  0.3367
 6767TIP3    H144496   4.557   0.352   0.819 -3.3050  0.8768  0.7840
 6767TIP3    H244497   4.624   0.481   0.864 -0.8801 -0.6071  1.6355
 6768TIP3   OH244498   4.690   0.324   8.893 -0.2043  0.3228 -0.1273
 6768TIP3    H144499   4.693   0.334   8.988  0.9652 -1.7108  0.0994
 6768TIP3    H244500   4.608   0.277   8.876  0.1704 -0.3990  0.0192
 6769TIP3   OH244501   5.263   5.170   9.724 -0.1671  0.0163  0.2308
 6769TIP3    H144502   5.279   5.262   9.704  1.3912  0.2056  2.0379
 6769TIP3    H244503   5.346   5.126   9.704 -1.8650 -1.7610 -3.9902
 6770TIP3   OH244504   3.858   6.166   8.450 -0.0178  0.2628  0.0103
 6770TIP3    H144505   3.897   6.085   8.418  0.8870  0.6113  0.2275
 6770TIP3    H244506   3.883   6.232   8.386  0.6994  0.7064  0.7430
 6771TIP3   OH244507   0.322   5.512   2.529 -0.4239  0.0972 -0.0070
 6771TIP3    H144508   0.287   5.443   2.585 -1.1595 -1.0459 -1.7670
 6771TIP3    H244509   0.263   5.587   2.544  0.5764  0.5259  2.1598
 6772TIP3   OH244510   3.700   0.768   9.000  0.2520  0.1696 -0.0868
 6772TIP3    H144511   3.793   0.772   8.977  0.4216 -0.7348  0.3761
 6772TIP3    H244512   3.655   0.746   8.919  0.5089  0.0125 -0.1858
 6773TIP3   OH244513   6.254   4.516   8.265 -0.0357  0.2751  0.3178
 6773TIP3    H144514   6.311   4.580   8.223 -0.3326  1.2595  1.3558
 6773TIP3    H244515   6.226   4.458   8.195  0.8059  0.8684 -0.5206
 6774TIP3   OH244516   1.729   4.947   3.292  0.4786  0.7272 -0.3361
 6774TIP3    H144517   1.729   4.900   3.208 -0.4716  1.9037 -1.0242
 6774TIP3    H244518   1.822   4.951   3.316  0.7051 -0.2552 -0.9595
 6775TIP3   OH244519   5.756   1.575   1.836 -0.0217 -0.8527  0.1798
 6775TIP3    H144520   5.800   1.516   1.774 -0.8490 -1.6309  0.3085
 6775TIP3    H244521   5.747   1.657   1.788  2.2431 -0.4005  0.4113
 6776TIP3   OH244522   2.442   5.687   1.541  0.0744 -0.1758 -0.0001
 6776TIP3    H144523   2.534   5.694   1.514  0.6918  1.3005  2.2104
 6776TIP3    H244524   2.409   5.612   1.492  2.1070 -0.0570 -1.7509
 6777TIP3   OH244525   5.351   7.435   7.904 -0.1336 -0.1868 -0.3670
 6777TIP3    H144526   5.257   7.439   7.889 -0.0229  0.6930 -0.8539
 6777TIP3    H244527   5.364   7.482   7.986 -0.3031 -1.8100  0.6344
 6778TIP3   OH244528   4.574   6.116   0.635  0.1153 -0.0392  0.2566
 6778TIP3    H144529   4.617   6.199   0.614 -1.6019  1.0678  0.9176
 6778TIP3    H244530   4.601   6.097   0.725  0.5724 -0.2494  0.0773
 6779TIP3   OH244531   6.783   6.170   1.566 -0.5663  0.0684 -0.1218
 6779TIP3    H144532   6.739   6.219   1.635  0.9559  1.1751  0.1120
 6779TIP3    H244533   6.738   6.195   1.485  1.6277  3.9502 -0.4000
 6780TIP3   OH244534   0.850   2.878   0.488  0.7210 -0.3144 -0.2849
 6780TIP3    H144535   0.908   2.802   0.495 -0.5302 -1.1428  1.7899
 6780TIP3    H244536   0.768   2.843   0.455  0.4712  0.3291 -0.3557
 6781TIP3   OH244537   7.169   0.363   1.381  0.3983  0.0447  0.3949
 6781TIP3    H144538   7.151   0.434   1.443  3.5085 -0.7459  2.4453
 6781TIP3    H244539   7.218   0.404   1.310 -2.1652  0.7341 -1.1114
 6782TIP3   OH244540   1.209   7.210   2.383  0.5975  0.0460 -0.0379
 6782TIP3    H144541   1.299   7.188   2.357  0.6486 -0.1746  0.3246
 6782TIP3    H244542   1.155   7.180   2.310  0.7850 -0.1407 -0.1002
 6783TIP3   OH244543   0.687   6.853   7.493  0.0820 -0.0623  0.2313
 6783TIP3    H144544   0.658   6.772   7.451  0.3600 -0.2545  0.4097
 6783TIP3    H244545   0.615   6.915   7.478 -0.6274 -0.6575  1.0558
 6784TIP3   OH244546   4.062   1.799   9.434  0.3361  0.2349 -0.3683
 6784TIP3    H144547   4.123   1.870   9.411  1.8926 -0.9639 -0.0962
 6784TIP3    H244548   4.114   1.740   9.489 -1.6118  0.0728  1.4272
 6785TIP3   OH244549   6.360   3.696   2.585  0.3658  0.9153  0.5420
 6785TIP3    H144550   6.293   3.663   2.525  0.0024 -1.1411  1.9850
 6785TIP3    H244551   6.372   3.787   2.558 -3.4862  1.6327  0.5988
 6786TIP3   OH244552   4.966   3.964   7.431 -0.6509  0.2247  0.7433
 6786TIP3    H144553   4.880   3.924   7.418 -0.1840 -1.0044  1.2046
 6786TIP3    H244554   4.948   4.049   7.470 -1.6707  0.1370  0.4884
 6787TIP3   OH244555   3.556   3.258   0.441  0.1403 -0.2399  0.2503
 6787TIP3    H144556   3.609   3.178   0.442 -0.9674 -0.9914  0.4612
 6787TIP3    H244557   3.509   3.255   0.358  0.7463  0.6588 -0.1458
 6788TIP3   OH244558   2.471   1.030   0.359  0.1781  0.5358  0.3793
 6788TIP3    H144559   2.412   1.098   0.393  0.4410 -0.5465  3.3378
 6788TIP3    H244560   2.557   1.072   0.355  0.5574  0.2169  3.2358
 6789TIP3   OH244561   2.522   3.506   1.541 -0.8775 -0.1911  0.2916
 6789TIP3    H144562   2.601   3.455   1.557  0.0122  0.8614 -0.5999
 6789TIP3    H244563   2.517   3.515   1.446 -1.7675  0.2293  0.3599
 6790TIP3   OH244564   6.897   6.127   1.045  0.3425  0.0804  0.0332
 6790TIP3    H144565   6.948   6.052   1.077  0.5103 -0.2804 -1.0399
 6790TIP3    H244566   6.835   6.088   0.984  0.8664  0.8846 -1.0368
 6791TIP3   OH244567   2.463   6.959   2.829 -0.0999  0.3114  0.0364
 6791TIP3    H144568   2.388   6.946   2.886 -0.7360  1.3356 -0.5277
 6791TIP3    H244569   2.459   7.052   2.805  1.7785  0.5846  0.5914
 6792TIP3   OH244570   1.856   0.364   0.634 -0.3057 -0.1173 -0.8226
 6792TIP3    H144571   1.888   0.433   0.576  0.4987  1.4244  1.3181
 6792TIP3    H244572   1.767   0.390   0.656 -0.2913 -0.1964 -0.6691
 6793TIP3   OH244573   6.656   6.722   9.798 -0.2117  0.3700 -0.2284
 6793TIP3    H144574   6.579   6.685   9.754  0.3850 -1.2688  0.0704
 6793TIP3    H244575   6.625   6.745   9.886 -0.1711 -1.1910  0.2286
 6794TIP3   OH244576   1.261   7.434   8.087  0.0057  0.2033 -0.3769
 6794TIP3    H144577   1.185   7.464   8.137 -0.4512 -0.3258 -0.7412
 6794TIP3    H244578   1.313   7.383   8.149 -1.5012 -2.0488 -0.8591
 6795TIP3   OH244579   6.760   7.038   1.717 -0.0754 -0.0790  0.2338
 6795TIP3    H144580   6.816   7.041   1.639  1.3655 -0.5404  1.2076
 6795TIP3    H244581   6.677   7.074   1.688  0.7079  0.6030 -1.2977
 6796TIP3   OH244582   1.733   0.748   6.727  0.4671  0.5105 -0.0005
 6796TIP3    H144583   1.736   0.802   6.648  1.1414 -0.3018 -0.5513
 6796TIP3    H244584   1.808   0.689   6.718 -2.2561 -3.1391 -1.3361
 6797TIP3   OH244585   7.371   3.278   8.161  0.1874 -0.7833  0.2211
 6797TIP3    H144586   7.290   3.285   8.110 -0.7750 -2.4874  1.4122
 6797TIP3    H244587   7.390   3.368   8.189 -0.8516 -0.2513 -0.7366
 6798TIP3   OH244588   1.571   1.203   1.435 -0.5784 -0.1278  0.2117
 6798TIP3    H144589   1.644   1.204   1.498  0.6470 -0.4093 -1.1459
 6798TIP3    H244590   1.557   1.111   1.415 -1.3322 -0.0776  0.4684
 6799TIP3   OH244591   2.480   2.001   1.857  0.4282 -0.0238  0.0266
 6799TIP3    H144592   2.570   1.979   1.877  0.8931  0.1320 -1.7115
 6799TIP3    H244593   2.436   1.916   1.846  0.6335 -0.0992 -0.2144
 6800TIP3   OH244594   1.259   3.852   6.840  0.3147 -0.4806 -0.0884
 6800TIP3    H144595   1.190   3.898   6.792 -0.6646 -1.5576  0.2504
 6800TIP3    H244596   1.270   3.769   6.794 -0.2271 -1.2856  1.1747
 6801TIP3   OH244597   3.040   1.612   2.932 -0.0273  0.8166  0.0139
 6801TIP3    H144598   2.973   1.559   2.887 -1.7974  1.4497  1.7391
 6801TIP3    H244599   3.102   1.548   2.966 -0.0937  0.1504 -1.0732
 6802TIP3   OH244600   5.296   1.709   1.054  0.0300  0.4220 -0.1092
 6802TIP3    H144601   5.256   1.773   0.995  1.8495  0.4560 -1.3892
 6802TIP3    H244602   5.314   1.633   0.998  0.6766 -0.0188  0.6774
 6803TIP3   OH244603   4.027   2.941   9.550  0.9114 -0.0873 -0.0717
 6803TIP3    H144604   4.087   2.878   9.590 -0.4646 -1.5768 -0.2735
 6803TIP3    H244605   3.983   2.892   9.482  0.3154  1.3222 -0.7284
 6804TIP3   OH244606   6.453   6.496   0.482 -0.2064  0.4341  0.6026
 6804TIP3    H144607   6.472   6.475   0.573 -2.0194  2.5405  1.5565
 6804TIP3    H244608   6.375   6.445   0.461  1.9008 -2.4585 -0.8957
 6805TIP3   OH244609   0.335   3.106   1.308 -0.0885 -0.5337  0.1784
 6805TIP3    H144610   0.367   3.047   1.240 -0.7437 -0.2871 -0.3643
 6805TIP3    H244611   0.408   3.165   1.325  0.3886 -1.1672  0.3477
 6806TIP3   OH244612   5.526   6.157   9.898  0.2456  0.1392 -0.2189
 6806TIP3    H144613   5.541   6.115   9.813 -1.0179 -0.3771 -0.2181
 6806TIP3    H244614   5.601   6.214   9.910  0.9903 -0.5876 -1.1867
 6807TIP3   OH244615   0.285   0.005   2.408 -0.3713 -0.3006 -0.2310
 6807TIP3    H144616   0.281   0.101   2.406  2.0082 -0.1246 -0.1388
 6807TIP3    H244617   0.369  -0.015   2.367 -0.2184 -2.2793  0.9547
 6808TIP3   OH244618   5.544   0.514   7.988  0.0381  0.5623 -0.4506
 6808TIP3    H144619   5.624   0.562   7.968  2.2048 -2.1177  1.0655
 6808TIP3    H244620   5.517   0.547   8.073 -0.3685  1.2927 -0.8512
 6809TIP3   OH244621   7.446   3.445   9.057  0.0183 -0.2079 -0.4395
 6809TIP3    H144622   7.442   3.350   9.041 -1.7498 -0.1260 -0.6697
 6809TIP3    H244623   7.358   3.468   9.086  0.4304  1.3814 -0.3655
 6810TIP3   OH244624   4.597   6.663   8.929 -0.7501 -0.0958  0.0185
 6810TIP3    H144625   4.634   6.576   8.944 -0.9701 -0.3510 -0.8649
 6810TIP3    H244626   4.609   6.678   8.835  1.4411  1.8181  0.5225
 6811TIP3   OH244627   7.082   1.792   2.691 -0.2445  0.3964 -0.2035
 6811TIP3    H144628   7.089   1.886   2.672 -2.1609  0.4145 -1.0200
 6811TIP3    H244629   6.988   1.775   2.692  0.0872 -1.6730 -0.8359
 6812TIP3   OH244630   3.892   0.043   1.379  0.4781 -0.1476 -0.2730
 6812TIP3    H144631   3.819   0.082   1.331  0.0659 -0.4662  0.0846
 6812TIP3    H244632   3.865  -0.047   1.394  1.2878 -0.4839 -0.8131
 6813TIP3   OH244633   4.775   2.705   8.864 -0.2714  0.1107  0.4090
 6813TIP3    H144634   4.764   2.757   8.943  0.6954  1.4451 -0.2846
 6813TIP3    H244635   4.869   2.685   8.862 -0.5029 -1.0139  0.2530
 6814TIP3   OH244636   3.330   3.209   7.717 -0.2306  0.1044  0.2121
 6814TIP3    H144637   3.363   3.210   7.627 -0.5679 -0.2047  0.0794
 6814TIP3    H244638   3.255   3.269   7.715 -0.5285 -0.2657  0.1700
 6815TIP3   OH244639   0.029   0.005   7.522 -0.2277 -0.3600 -0.1914
 6815TIP3    H144640   0.021   0.100   7.527 -2.0989 -0.4462 -0.6847
 6815TIP3    H244641   0.043  -0.013   7.429  0.3591 -0.5598 -0.0658
 6816TIP3   OH244642   1.623   5.527   0.312 -0.1350 -0.5651 -0.6888
 6816TIP3    H144643   1.660   5.544   0.226 -0.6983  1.3382 -0.5932
 6816TIP3    H244644   1.555   5.593   0.323 -0.1452 -0.8212  1.1688
 6817TIP3   OH244645   1.807   2.515   3.079  0.6666 -0.0435 -0.4727
 6817TIP3    H144646   1.784   2.423   3.066 -0.0410 -0.2242  1.7024
 6817TIP3    H244647   1.901   2.514   3.098  0.2455 -0.6198  1.7849
 6818TIP3   OH244648   0.893   4.413   9.597  0.2438 -0.2394 -0.2403
 6818TIP3    H144649   0.976   4.396   9.553  1.4516  0.4560  1.6260
 6818TIP3    H244650   0.877   4.506   9.583 -0.9935 -0.6342 -1.7540
 6819TIP3   OH244651   6.439   2.674   2.384  0.2143 -0.0769  0.1636
 6819TIP3    H144652   6.439   2.758   2.337  1.5356  0.1265  0.4817
 6819TIP3    H244653   6.368   2.624   2.345  0.2264  0.7222 -0.9117
 6820TIP3   OH244654   3.393   1.347   1.236  0.5158  0.2576 -0.0380
 6820TIP3    H144655   3.480   1.338   1.196  0.9508  0.5166  0.8261
 6820TIP3    H244656   3.407   1.406   1.309 -0.4281  0.3976  0.0314
 6821TIP3   OH244657   1.621   2.279   0.379  0.1238 -0.2297  0.4490
 6821TIP3    H144658   1.640   2.218   0.451 -0.7961 -1.1868 -0.0841
 6821TIP3    H244659   1.604   2.222   0.304 -2.1141  0.5902  0.2472
 6822TIP3   OH244660   6.288   6.246   9.462 -0.3539  0.1389 -0.2292
 6822TIP3    H144661   6.219   6.243   9.396 -0.3763 -0.2601 -0.1934
 6822TIP3    H244662   6.322   6.157   9.464 -0.7159  0.0079  0.6755
 6823TIP3   OH244663   6.373   0.335   9.154 -0.1464  0.1777  0.6844
 6823TIP3    H144664   6.302   0.394   9.128  0.6103  1.0591  0.5403
 6823TIP3    H244665   6.394   0.361   9.244 -0.3650 -0.4436  0.9186
 6824TIP3   OH244666   2.386   6.182   0.331 -0.4542 -0.3075 -0.5030
 6824TIP3    H144667   2.322   6.252   0.347 -0.7546 -0.5006 -0.8518
 6824TIP3    H244668   2.469   6.228   0.321 -0.8817  0.1393 -2.2615
 6825TIP3   OH244669   2.247   4.899   2.597 -0.3971 -1.0827 -0.2176
 6825TIP3    H144670   2.340   4.911   2.578 -0.3497 -1.6940 -0.3916
 6825TIP3    H244671   2.238   4.807   2.621 -0.8773 -0.9104  0.3026
 6826TIP3   OH244672   0.423   3.951   8.300  0.3480 -0.2595  0.0149
 6826TIP3    H144673   0.415   3.927   8.392  1.5743 -2.0737 -0.2978
 6826TIP3    H244674   0.509   3.919   8.274  0.2048  0.5926 -1.6770
 6827TIP3   OH244675   5.347   2.056   9.462  0.4025  0.3866 -0.7084
 6827TIP3    H144676   5.400   2.020   9.534  2.3103  3.4695 -0.4163
 6827TIP3    H244677   5.370   2.003   9.386  0.2178 -1.3692  0.4044
 6828TIP3   OH244678   5.657   4.125   7.714 -0.4349  0.0480 -0.6576
 6828TIP3    H144679   5.743   4.164   7.732  1.3470 -3.4794 -0.4706
 6828TIP3    H244680   5.615   4.119   7.799 -0.2624  0.5888 -0.5332
 6829TIP3   OH244681   2.935   1.930   0.656  0.1714  0.0475  0.2315
 6829TIP3    H144682   2.960   1.856   0.712 -1.4129  0.3477  1.4140
 6829TIP3    H244683   3.015   1.953   0.610  1.5094 -0.3715  2.2148
 6830TIP3   OH244684   7.164   3.289   9.599 -0.0993 -0.0924  0.0084
 6830TIP3    H144685   7.069   3.288   9.601 -0.0952 -0.3349  0.2227
 6830TIP3    H244686   7.188   3.381   9.616 -0.3004  0.1314 -0.8908
 6831TIP3   OH244687   0.952   3.291   8.922 -0.0459  0.2057  0.1220
 6831TIP3    H144688   0.897   3.336   8.986 -0.8011 -0.5005 -0.0228
 6831TIP3    H244689   0.891   3.244   8.866  0.6714 -0.0997 -0.4199
 6832TIP3   OH244690   0.331   1.052   0.442  0.2690 -0.6305 -0.2553
 6832TIP3    H144691   0.288   1.113   0.382 -1.0326  0.0072  1.2488
 6832TIP3    H244692   0.297   1.076   0.529  0.8076 -2.5993  0.5481
 6833TIP3   OH244693   6.262   4.483   7.580 -0.1450 -0.2199  0.5220
 6833TIP3    H144694   6.238   4.574   7.568 -0.6674 -0.1995  1.6153
 6833TIP3    H244695   6.184   4.442   7.617 -0.0812 -1.2272 -0.3811
 6834TIP3   OH244696   0.222   1.337   2.487  0.6195 -0.3346  0.0574
 6834TIP3    H144697   0.181   1.396   2.424 -0.7293  0.8140  1.8831
 6834TIP3    H244698   0.187   1.251   2.465 -1.6656  0.3844  0.5767
 6835TIP3   OH244699   1.615   3.801   2.063 -0.0891  0.1645  0.7890
 6835TIP3    H144700   1.557   3.772   2.133 -1.2444  1.7564  0.5567
 6835TIP3    H244701   1.605   3.736   1.994 -2.7090  1.0675  0.2167
 6836TIP3   OH244702   4.006   0.184   7.885  0.3486  0.4795  1.0792
 6836TIP3    H144703   4.092   0.184   7.844 -0.2403 -0.1465 -0.2264
 6836TIP3    H244704   3.958   0.254   7.841 -0.1894  0.0294  0.9386
 6837TIP3   OH244705   6.372   4.863   9.429  0.0826  0.1079 -0.4201
 6837TIP3    H144706   6.324   4.944   9.412 -1.2072 -0.5299  0.0683
 6837TIP3    H244707   6.462   4.891   9.443 -0.0393  1.2991 -1.7689
 6838TIP3   OH244708   5.440   5.189   7.644  0.0587  0.5379  0.3210
 6838TIP3    H144709   5.514   5.242   7.673  0.3003  0.4026 -0.0328
 6838TIP3    H244710   5.380   5.251   7.602 -0.1128  0.6750  0.7647
 6839TIP3   OH244711   1.162   1.897   8.245  0.2736 -0.3946 -0.6793
 6839TIP3    H144712   1.145   1.938   8.330 -2.1311 -1.7125 -0.4213
 6839TIP3    H244713   1.194   1.968   8.190  1.3275  0.6286  1.1320
 6840TIP3   OH244714   1.943   3.396   6.328  0.5889  0.4248 -0.4410
 6840TIP3    H144715   2.013   3.395   6.393 -1.2541  0.5525  1.6609
 6840TIP3    H244716   1.916   3.305   6.319 -0.2129  0.5854  0.2117
 6841TIP3   OH244717   2.273   1.215   3.065  1.0917  0.1638  0.4175
 6841TIP3    H144718   2.238   1.215   3.154 -2.3007 -1.3845 -0.7447
 6841TIP3    H244719   2.218   1.278   3.018  1.5888 -0.4152 -0.9911
 6842TIP3   OH244720   0.141   6.347   7.105 -0.1579  0.1932  0.0497
 6842TIP3    H144721   0.106   6.263   7.136 -1.5328  0.0566 -1.7203
 6842TIP3    H244722   0.234   6.329   7.090 -0.6682 -1.4305 -1.5347
 6843TIP3   OH244723   5.488   4.909   0.555 -0.5072 -0.3656 -0.0057
 6843TIP3    H144724   5.576   4.921   0.520 -1.9243  2.3768 -3.1219
 6843TIP3    H244725   5.493   4.943   0.645  1.5244 -0.0055 -0.2160
 6844TIP3   OH244726   7.084   2.949   7.814 -0.0946  0.2088  0.2455
 6844TIP3    H144727   7.158   3.007   7.796  2.1875 -1.5909  2.9553
 6844TIP3    H244728   7.031   2.996   7.877  0.0084  0.6099  0.0342
 6845TIP3   OH244729   3.473   6.219   1.450  0.0507  0.1920 -0.4414
 6845TIP3    H144730   3.396   6.171   1.480  0.0776  0.1691 -0.4084
 6845TIP3    H244731   3.439   6.305   1.425 -0.0644  0.0149 -0.9086
 6846TIP3   OH244732   2.261   4.234   0.368  0.2537 -0.5998  0.1657
 6846TIP3    H144733   2.208   4.220   0.289  1.7163  0.5829 -1.0693
 6846TIP3    H244734   2.350   4.216   0.340  1.0546  1.8129  0.9910
 6847TIP3   OH244735   0.738   1.657   1.304  0.4732  0.0010 -0.1029
 6847TIP3    H144736   0.659   1.632   1.351  0.7035 -0.5109  0.0203
 6847TIP3    H244737   0.778   1.725   1.358  0.4841 -0.2392  0.1889
 6848TIP3   OH244738   5.105   0.739   9.867 -0.0930  0.1862  0.1791
 6848TIP3    H144739   5.143   0.662   9.910  1.2837  1.1401  0.7533
 6848TIP3    H244740   5.123   0.727   9.774 -0.9869 -0.7743  0.1273
 6849TIP3   OH244741   7.368   1.064   0.239  0.5371  0.4247 -0.0277
 6849TIP3    H144742   7.330   1.041   0.323 -0.0182  0.8988 -0.1411
 6849TIP3    H244743   7.310   1.024   0.174  0.4020  0.8801 -0.1974
 6850TIP3   OH244744   2.763   0.529   0.163  0.2239 -0.6188 -0.3091
 6850TIP3    H144745   2.692   0.545   0.225 -1.0189 -1.2098 -1.5283
 6850TIP3    H244746   2.838   0.577   0.199 -0.6949 -0.2435  1.1747
 6851TIP3   OH244747   1.951   4.058   9.002  0.0676  0.3584 -0.1769
 6851TIP3    H144748   1.865   4.060   9.043  0.4011 -0.4406  0.5966
 6851TIP3    H244749   1.953   4.136   8.947 -0.2506  1.7365  1.6534
 6852TIP3   OH244750   6.983   3.458   1.228  0.1364 -0.1436  0.0192
 6852TIP3    H144751   6.919   3.527   1.241 -0.2231 -0.4687 -0.0113
 6852TIP3    H244752   6.948   3.383   1.276  1.0574  0.0024  0.9553
 6853TIP3   OH244753   2.888   2.625   8.430 -0.1696  0.0177 -0.6488
 6853TIP3    H144754   2.879   2.720   8.420 -3.1576 -0.1357 -0.2700
 6853TIP3    H244755   2.873   2.609   8.523 -0.3393 -0.8688 -0.8207
 6854TIP3   OH244756   1.117   0.287   1.300  0.2901  0.3195  0.0859
 6854TIP3    H144757   1.195   0.275   1.355  0.3839  0.8479  0.0822
 6854TIP3    H244758   1.046   0.245   1.349  0.5153  0.1221  0.2470
 6855TIP3   OH244759   5.324   0.786   0.234  0.7005 -0.2770  1.1764
 6855TIP3    H144760   5.322   0.699   0.274 -0.6999 -0.6635  0.3651
 6855TIP3    H244761   5.242   0.791   0.185  1.1804  1.1632  0.4660
 6856TIP3   OH244762   2.235   0.624   1.971 -0.0590 -0.7505 -0.5170
 6856TIP3    H144763   2.194   0.709   1.955 -0.0522 -0.9386 -1.6099
 6856TIP3    H244764   2.235   0.615   2.066  1.0409  1.0064 -0.3044
 6857TIP3   OH244765   7.164   1.868   1.223 -0.3482 -0.1315 -0.5158
 6857TIP3    H144766   7.082   1.906   1.256 -1.0260  0.8296 -3.0385
 6857TIP3    H244767   7.224   1.942   1.217 -1.1289  0.3914 -3.8287
 6858TIP3   OH244768   4.319   5.044   8.466  0.1506 -0.1376  0.1566
 6858TIP3    H144769   4.253   5.070   8.402 -0.3992 -0.6564  0.4940
 6858TIP3    H244770   4.397   5.022   8.413 -0.8218 -2.2441 -0.5379
 6859TIP3   OH244771   5.175   1.706   0.593 -0.6997 -0.1916  0.1527
 6859TIP3    H144772   5.164   1.751   0.509  0.3087  1.9579  1.0879
 6859TIP3    H244773   5.269   1.694   0.601 -0.8615 -1.2697  0.5668
 6860TIP3   OH244774   3.720   6.089   3.316 -0.0316 -0.0696 -0.4636
 6860TIP3    H144775   3.743   6.051   3.401 -0.3428  0.5215 -0.0971
 6860TIP3    H244776   3.785   6.159   3.303  0.4194 -0.5896 -1.0331
 6861TIP3   OH244777   0.049   6.333   0.010 -0.1099  0.0284  0.0464
 6861TIP3    H144778   0.140   6.311  -0.009 -0.3350  0.5094 -1.7175
 6861TIP3    H244779   0.004   6.249   0.013  0.1226 -0.1198 -0.5760
 6862TIP3   OH244780   1.626   5.034   7.951  0.4066 -0.2050 -0.0925
 6862TIP3    H144781   1.690   5.049   7.881 -1.8523  1.1072 -2.0124
 6862TIP3    H244782   1.566   5.109   7.945 -1.6243 -1.6241  1.2507
 6863TIP3   OH244783   2.150   3.290   8.711  0.4481  0.2196 -0.2159
 6863TIP3    H144784   2.066   3.301   8.665 -0.3993  0.4788  1.3287
 6863TIP3    H244785   2.169   3.377   8.746  1.4316  0.1821 -0.6315
 6864TIP3   OH244786   5.313   5.319   9.342 -0.2522  0.1186  0.5744
 6864TIP3    H144787   5.353   5.369   9.271 -1.2857  1.5716  0.9539
 6864TIP3    H244788   5.340   5.364   9.422 -2.0903  0.7888  0.8702
 6865TIP3   OH244789   3.010   6.206   3.040 -0.3543 -0.4516  0.3096
 6865TIP3    H144790   3.026   6.114   3.018  1.4202  0.1211 -0.9943
 6865TIP3    H244791   2.960   6.240   2.966 -2.4185 -0.6934  1.5144
 6866TIP3   OH244792   5.440   1.523   1.383 -0.4371 -0.4032 -0.3820
 6866TIP3    H144793   5.531   1.529   1.356 -0.6615  1.1297 -0.8696
 6866TIP3    H244794   5.395   1.486   1.307 -0.3558 -0.4404 -0.4125
 6867TIP3   OH244795   2.688   6.451   9.622  0.1389  0.1570  0.0652
 6867TIP3    H144796   2.612   6.447   9.680  0.7082  2.5423  1.0748
 6867TIP3    H244797   2.649   6.461   9.534 -0.7229  0.0635  0.4229
 6868TIP3   OH244798   2.796   7.088   8.887 -0.1255 -0.0850  0.0948
 6868TIP3    H144799   2.876   7.138   8.868 -0.1383  0.1475  0.6046
 6868TIP3    H244800   2.736   7.110   8.816 -0.1807  0.7578  0.3813
 6869TIP3   OH244801   2.750   6.693   7.887  0.6795 -0.3263  0.1893
 6869TIP3    H144802   2.783   6.652   7.967  0.5685 -0.5989  0.0978
 6869TIP3    H244803   2.800   6.774   7.878 -1.0183  1.0158  1.8994
 6870TIP3   OH244804   6.900   1.579   1.258 -0.0240 -0.0197  0.4566
 6870TIP3    H144805   6.922   1.494   1.219 -1.1499 -0.0200 -0.2081
 6870TIP3    H244806   6.877   1.634   1.184 -1.2880  0.2570  1.0346
 6871TIP3   OH244807   3.167   3.768   6.613  0.0441  0.2125  0.2632
 6871TIP3    H144808   3.245   3.716   6.629  0.2844  0.4115 -0.2316
 6871TIP3    H244809   3.185   3.853   6.654 -0.3690 -0.1038  1.1165
 6872TIP3   OH244810   1.749   2.260   3.027  0.1807  0.3278  0.5044
 6872TIP3    H144811   1.661   2.223   3.022 -0.0539  0.9997 -1.1390
 6872TIP3    H244812   1.786   2.246   2.939  1.7834 -0.0777  1.2030
 6873TIP3   OH244813   5.619   0.363   0.471  0.1765 -0.4683 -0.2776
 6873TIP3    H144814   5.685   0.418   0.428  0.6188 -0.1960  0.7262
 6873TIP3    H244815   5.645   0.361   0.563 -0.7171 -1.0934 -0.0229
 6874TIP3   OH244816   3.906   6.748   8.091 -0.5554  0.4220 -0.0330
 6874TIP3    H144817   3.883   6.757   7.999 -0.3391  1.9167  0.0321
 6874TIP3    H244818   3.993   6.707   8.090 -1.1792 -0.9414 -0.4212
 6875TIP3   OH244819   6.471   1.840   8.156 -0.2428  0.2028  0.2944
 6875TIP3    H144820   6.464   1.771   8.091  0.1450 -0.1273  0.5994
 6875TIP3    H244821   6.405   1.904   8.130 -1.6861 -0.9872  0.8688
 6876TIP3   OH244822   1.882   3.249   8.167 -0.9064  0.3549  0.1929
 6876TIP3    H144823   1.823   3.310   8.212  0.2145  1.3088  0.4230
 6876TIP3    H244824   1.890   3.175   8.227 -1.5805  0.3833  0.3245
 6877TIP3   OH244825   6.606   3.963   0.858 -0.2538 -0.0602 -0.2906
 6877TIP3    H144826   6.585   4.016   0.781 -0.7547 -0.2247 -0.2718
 6877TIP3    H244827   6.611   3.874   0.824  1.6417  0.1060 -0.5197
 6878TIP3   OH244828   4.260   4.901   1.559  0.0716 -0.0903 -0.4814
 6878TIP3    H144829   4.266   4.816   1.516  0.0595 -0.1930 -0.2806
 6878TIP3    H244830   4.173   4.903   1.599  0.6270 -0.6246  0.8338
 6879TIP3   OH244831   1.468   6.371   8.315 -0.1845  0.1276  0.4168
 6879TIP3    H144832   1.470   6.308   8.387  0.7722 -0.1957  0.1198
 6879TIP3    H244833   1.484   6.318   8.236 -1.0856  0.4925 -0.0337
 6880TIP3   OH244834   1.468   2.881   9.359 -0.3750  0.1093  0.7488
 6880TIP3    H144835   1.486   2.950   9.295  0.4299  0.8331  1.7266
 6880TIP3    H244836   1.374   2.864   9.350 -0.2568  0.0818 -0.7183
 6881TIP3   OH244837   3.862   1.749   1.297  0.2117  0.2330  0.2682
 6881TIP3    H144838   3.842   1.766   1.205  1.4629 -0.4204 -0.1469
 6881TIP3    H244839   3.814   1.668   1.316  2.3644 -1.4006 -0.7614
 6882TIP3   OH244840   2.701   1.018   6.683 -0.1979 -0.5617 -0.7763
 6882TIP3    H144841   2.781   0.977   6.716 -1.5972 -3.0934 -0.2946
 6882TIP3    H244842   2.656   1.048   6.761  0.5577  1.5530 -1.0950
 6883TIP3   OH244843   1.145   2.228   9.074  0.1708  0.3716  0.0972
 6883TIP3    H144844   1.157   2.322   9.068 -3.1158  0.8224 -1.4670
 6883TIP3    H244845   1.138   2.210   9.168 -0.7689  1.9653  0.3614
 6884TIP3   OH244846   5.374   0.150   0.181 -0.0726 -1.0512  0.0896
 6884TIP3    H144847   5.297   0.093   0.172  0.8948 -2.4570  0.4122
 6884TIP3    H244848   5.354   0.205   0.257 -0.8661 -1.2149  0.0118
 6885TIP3   OH244849   2.842   0.281   0.201  0.2253 -0.1537 -0.4443
 6885TIP3    H144850   2.891   0.250   0.125  2.1376  0.8982  0.2921
 6885TIP3    H244851   2.809   0.367   0.175  0.7228  0.1256 -0.1641
 6886TIP3   OH244852   0.860   4.547   9.874  0.3784  0.2758 -0.1020
 6886TIP3    H144853   0.945   4.557   9.916  1.4237 -1.2208 -1.7305
 6886TIP3    H244854   0.800   4.527   9.946  1.4312  1.0334  1.0361
 6887TIP3   OH244855   5.686   2.971   8.738  0.0855 -0.4222  0.5536
 6887TIP3    H144856   5.671   2.937   8.650 -0.9114  0.6784  0.2694
 6887TIP3    H244857   5.773   3.010   8.734 -0.0502 -0.1625 -0.0193
 6888TIP3   OH244858   1.223   2.822   9.635 -0.1297 -0.1711 -0.0451
 6888TIP3    H144859   1.315   2.815   9.659 -0.0976 -2.5273 -0.6042
 6888TIP3    H244860   1.177   2.768   9.699 -0.8994 -0.4766 -0.8252
 6889TIP3   OH244861   7.087   2.165   9.789  0.5832 -0.5651 -0.2032
 6889TIP3    H144862   7.121   2.084   9.826  0.3942 -1.4169 -1.8070
 6889TIP3    H244863   7.098   2.230   9.859  0.0533 -2.1114  1.3837
 6890TIP3   OH244864   2.633   3.867   7.001 -0.7659  0.2387 -0.1824
 6890TIP3    H144865   2.587   3.944   6.967  0.6314  0.7445 -0.9974
 6890TIP3    H244866   2.600   3.794   6.947  0.5169  0.8428 -1.8631
 6891TIP3   OH244867   5.547   2.627   1.321 -0.4300  0.1420 -0.3160
 6891TIP3    H144868   5.624   2.631   1.263 -1.0046  0.7465 -1.0637
 6891TIP3    H244869   5.472   2.635   1.262 -1.1429 -1.7157  0.2694
 6892TIP3   OH244870   4.130   3.521   8.758 -0.2147  0.0512 -0.0763
 6892TIP3    H144871   4.161   3.601   8.801 -0.1227  0.7786 -1.4232
 6892TIP3    H244872   4.165   3.450   8.811  1.8589  0.8628 -0.2545
 6893TIP3   OH244873   1.642   6.207   8.844  0.0655 -0.2599  0.5709
 6893TIP3    H144874   1.665   6.288   8.888 -2.6778 -0.4104  2.5273
 6893TIP3    H244875   1.679   6.138   8.900  0.4860 -0.4334  0.0982
 6894TIP3   OH244876   5.639   0.805   0.119  1.1274  0.6045  0.0028
 6894TIP3    H144877   5.608   0.726   0.074 -1.3301  0.5499  1.5897
 6894TIP3    H244878   5.620   0.877   0.058 -0.4615  0.3512  0.1585
 6895TIP3   OH244879   5.288   5.634   0.703 -0.0126 -0.2174  0.2051
 6895TIP3    H144880   5.365   5.578   0.700  0.3307  0.2863 -1.9831
 6895TIP3    H244881   5.290   5.682   0.620 -2.6199 -0.1178  0.1184
 6896TIP3   OH244882   4.473   2.260   7.886  0.3342  0.1248 -0.1398
 6896TIP3    H144883   4.415   2.318   7.936  0.7190 -0.5960  1.2113
 6896TIP3    H244884   4.416   2.221   7.820 -0.5178  0.1506  0.5512
 6897TIP3   OH244885   2.400   4.670   1.884 -0.0688  0.3161  0.3357
 6897TIP3    H144886   2.424   4.590   1.838  0.8715 -0.5056  2.1429
 6897TIP3    H244887   2.380   4.733   1.815 -0.0961 -1.2443 -1.1364
 6898TIP3   OH244888   6.586   5.459   9.269  0.0932 -0.0190 -0.2303
 6898TIP3    H144889   6.599   5.398   9.342 -0.6433  0.0586 -0.0214
 6898TIP3    H244890   6.493   5.483   9.275 -0.5894 -1.6948 -2.5058
 6899TIP3   OH244891   1.277   4.862   1.559  0.0518  0.5034  0.2729
 6899TIP3    H144892   1.227   4.920   1.502  0.4242  0.6909  0.1294
 6899TIP3    H244893   1.356   4.912   1.581  1.9534 -1.0653 -2.4302
 6900TIP3   OH244894   6.648   7.198   7.881  0.0947  0.3030 -0.0770
 6900TIP3    H144895   6.710   7.184   7.810  1.0597  0.7210  0.6666
 6900TIP3    H244896   6.581   7.255   7.843  0.6345  0.5803 -0.6331
 6901TIP3   OH244897   5.337   0.612   7.834 -0.2043  0.3000 -0.0835
 6901TIP3    H144898   5.410   0.576   7.884 -0.2515  1.5563  0.9473
 6901TIP3    H244899   5.301   0.537   7.786  0.8755 -0.6113  0.4904
 6902TIP3   OH244900   2.024   6.305   2.574 -0.3773 -0.0832 -0.1431
 6902TIP3    H144901   2.000   6.213   2.564 -0.7440  0.0915 -0.8864
 6902TIP3    H244902   2.120   6.306   2.570 -0.3870 -0.3958 -0.4002
 6903TIP3   OH244903   1.091   4.883   7.969 -0.1332  0.0756  0.0303
 6903TIP3    H144904   1.178   4.845   7.959  0.1987  0.5406  0.9918
 6903TIP3    H244905   1.037   4.838   7.904  0.6111 -0.8801  0.0525
 6904TIP3   OH244906   6.275   6.806   1.001  0.1334 -0.5096 -0.5275
 6904TIP3    H144907   6.277   6.711   1.009 -1.3040 -0.5347 -0.2188
 6904TIP3    H244908   6.204   6.823   0.938  0.3906  0.3491 -0.5964
 6905TIP3   OH244909   1.780   5.731   9.214  0.0985 -0.2164  0.1016
 6905TIP3    H144910   1.718   5.707   9.282  0.8192 -0.0915  0.8181
 6905TIP3    H244911   1.761   5.671   9.142 -1.3170  0.2818  0.0242
 6906TIP3   OH244912   0.438   2.314   7.827  0.1585 -0.1828 -0.0207
 6906TIP3    H144913   0.391   2.232   7.813  0.2505  0.0012 -1.5466
 6906TIP3    H244914   0.524   2.299   7.789  0.7372  0.1062  1.1223
 6907TIP3   OH244915   2.232   2.010   0.309  0.0779 -0.0051  0.1705
 6907TIP3    H144916   2.293   1.983   0.378  0.8884  2.0227  0.3293
 6907TIP3    H244917   2.164   1.942   0.309  0.7977 -0.7976  1.9964
 6908TIP3   OH244918   0.385   5.919   9.133 -0.3148  0.4144  0.2346
 6908TIP3    H144919   0.305   5.971   9.124 -0.5052  0.1003  0.0831
 6908TIP3    H244920   0.402   5.916   9.227 -0.8949 -0.1310  0.3265
 6909TIP3   OH244921   2.393   1.582   8.260 -0.2916 -0.2863 -0.6556
 6909TIP3    H144922   2.323   1.628   8.213  0.8251 -0.1576 -2.2994
 6909TIP3    H244923   2.447   1.652   8.297 -0.5223 -0.3643 -0.1665
 6910TIP3   OH244924   1.282   5.725   0.607 -0.9571  0.1817  0.6598
 6910TIP3    H144925   1.192   5.759   0.601 -2.0479 -1.8952  3.2100
 6910TIP3    H244926   1.303   5.732   0.700  0.8631 -1.0015  0.3764
 6911TIP3   OH244927   5.801   1.385   7.791  0.1598  0.0207  0.0865
 6911TIP3    H144928   5.775   1.477   7.802 -0.3748 -0.2510  1.2216
 6911TIP3    H244929   5.862   1.369   7.864  1.6744 -0.0393 -1.1359
 6912TIP3   OH244930   0.966   7.164   0.583  0.0479  0.1110 -0.0062
 6912TIP3    H144931   0.927   7.093   0.634 -0.1826  0.1426 -0.1352
 6912TIP3    H244932   0.899   7.186   0.518 -0.8994  2.1205  1.5664
 6913TIP3   OH244933   1.328   6.237   0.225  0.3592  0.1220  0.2046
 6913TIP3    H144934   1.284   6.174   0.282 -1.2850 -0.1140 -1.2537
 6913TIP3    H244935   1.362   6.184   0.153  3.4742  0.2387  1.4260
 6914TIP3   OH244936   6.851   1.225   9.046  0.1817  0.6725  0.2317
 6914TIP3    H144937   6.767   1.180   9.056 -1.2783  2.6882 -1.9779
 6914TIP3    H244938   6.900   1.169   8.985 -1.5174  1.7574 -2.2965
 6915TIP3   OH244939   4.733   0.007   1.535 -0.2563 -0.3480  0.1777
 6915TIP3    H144940   4.785  -0.073   1.526 -0.0493 -0.2718  0.6388
 6915TIP3    H244941   4.660  -0.005   1.475  0.2285 -0.5124 -0.3811
 6916TIP3   OH244942   6.411   4.782   2.331 -0.0584 -0.0924  0.3738
 6916TIP3    H144943   6.429   4.768   2.423 -0.4144 -0.0660  0.4512
 6916TIP3    H244944   6.425   4.697   2.290 -1.6874 -0.5901  0.7534
 6917TIP3   OH244945   2.463   2.574   2.947  0.2372 -0.4373  0.2553
 6917TIP3    H144946   2.555   2.554   2.964  0.1163 -0.8792  0.4117
 6917TIP3    H244947   2.440   2.522   2.870  0.3650  0.3806 -0.3398
 6918TIP3   OH244948   3.644   5.135   0.538 -0.5461 -0.4261  1.0863
 6918TIP3    H144949   3.582   5.153   0.468  0.5669 -1.3962 -0.1955
 6918TIP3    H244950   3.713   5.200   0.527  0.5214 -1.6587  0.1178
 6919TIP3   OH244951   3.506   2.716   7.740 -0.2260 -1.0892 -0.2416
 6919TIP3    H144952   3.417   2.700   7.773  0.6848 -1.4005  2.3001
 6919TIP3    H244953   3.511   2.811   7.731 -1.2153 -1.1499 -1.7376
 6920TIP3   OH244954   1.224   0.130   0.333 -0.1532 -0.0247  0.2537
 6920TIP3    H144955   1.173   0.052   0.312 -0.1515 -0.2466  1.0396
 6920TIP3    H244956   1.290   0.135   0.263 -0.1119 -0.7623  0.2391
 6921TIP3   OH244957   2.769   5.318   9.135  0.7828  0.9347  0.3733
 6921TIP3    H144958   2.675   5.303   9.144  0.8792  0.7337  1.1190
 6921TIP3    H244959   2.777   5.410   9.111  0.4591  1.4106  1.9866
 6922TIP3   OH244960   0.957   3.327   9.747  0.2878  0.1868 -0.4472
 6922TIP3    H144961   0.929   3.240   9.774 -0.6232  0.4618 -0.4829
 6922TIP3    H244962   1.030   3.311   9.686 -0.1267 -0.5553 -0.7566
 6923TIP3   OH244963   1.096   5.916   7.747  0.5203  0.2460  0.1162
 6923TIP3    H144964   1.015   5.933   7.698  0.6063  0.5455  0.0740
 6923TIP3    H244965   1.164   5.911   7.680  0.4060 -0.9393  0.0619
 6924TIP3   OH244966   0.128   2.973   0.871 -0.2326  0.0069 -0.2257
 6924TIP3    H144967   0.169   3.005   0.952 -1.4057 -0.2917  0.5163
 6924TIP3    H244968   0.071   2.902   0.900 -1.2017  0.3488 -1.2239
 6925TIP3   OH244969   5.231   2.848   8.405  0.8394 -0.0662  0.0575
 6925TIP3    H144970   5.218   2.789   8.479 -1.6048  1.0033  0.5815
 6925TIP3    H244971   5.228   2.791   8.328 -1.2490 -0.7324  0.5612
 6926TIP3   OH244972   5.657   2.820   0.847 -0.4096  0.0338  0.6179
 6926TIP3    H144973   5.743   2.784   0.823 -0.7345 -1.0285  0.9896
 6926TIP3    H244974   5.597   2.781   0.783 -0.5954  0.9277  0.2380
 6927TIP3   OH244975   4.731   0.824   0.602  0.0980  0.1346  0.0940
 6927TIP3    H144976   4.642   0.845   0.630 -0.1248 -0.7318  0.0784
 6927TIP3    H244977   4.787   0.882   0.654 -0.5218  1.5976 -0.8252
 6928TIP3   OH244978   0.334   4.183   9.884  0.5296  0.3729  0.0879
 6928TIP3    H144979   0.405   4.157   9.943  1.0689  0.7724 -0.3769
 6928TIP3    H244980   0.377   4.197   9.800 -0.2240 -0.1147 -0.3883
 6929TIP3   OH244981   4.153   7.084   8.001  0.3548 -0.2510 -0.0709
 6929TIP3    H144982   4.060   7.106   8.003  0.2978 -0.5241  1.3208
 6929TIP3    H244983   4.162   7.027   7.925 -0.6100 -0.2421 -0.2124
 6930TIP3   OH244984   6.184   4.477   0.281 -0.5119  0.3944 -0.5585
 6930TIP3    H144985   6.259   4.418   0.272 -0.2566 -0.0379  2.9378
 6930TIP3    H244986   6.219   4.554   0.326 -1.9365  0.6496  0.1786
 6931TIP3   OH244987   1.153   0.250   2.257 -0.2984  0.6894  0.1825
 6931TIP3    H144988   1.215   0.250   2.330  0.6153  0.9261 -0.5617
 6931TIP3    H244989   1.193   0.190   2.193 -2.1453 -1.2148  0.7323
 6932TIP3   OH244990   1.726   0.802   7.831  0.2557 -0.1034 -0.3362
 6932TIP3    H144991   1.784   0.794   7.755  1.1488  0.0729  0.3183
 6932TIP3    H244992   1.690   0.714   7.843  0.0774 -0.1258 -0.9753
 6933TIP3   OH244993   6.370   2.727   2.631  0.3688 -0.4210 -0.2280
 6933TIP3    H144994   6.406   2.717   2.542  0.0561  0.2513 -0.4381
 6933TIP3    H244995   6.330   2.642   2.650 -1.6911  0.1460 -1.6972
 6934TIP3   OH244996   1.059   1.662   8.210 -0.4634 -0.0069 -0.6658
 6934TIP3    H144997   0.969   1.673   8.239 -0.3271 -0.6838  0.0341
 6934TIP3    H244998   1.106   1.736   8.249 -0.8023  0.6646 -1.4847
 6935TIP3   OH244999   0.675   3.794   0.777 -0.5668  0.2096  0.8951
 6935TIP3    H145000   0.683   3.780   0.871  0.0388  0.1017  0.8318
 6935TIP3    H245001   0.676   3.706   0.739 -0.8149  0.2525  0.7900
 6936TIP3   OH245002   4.106   5.583   9.948 -0.0462  0.8703  0.3192
 6936TIP3    H145003   4.070   5.646  10.010  0.5590  0.4369  1.1241
 6936TIP3    H245004   4.076   5.498   9.979 -0.4180  0.7084 -0.4585
 6937TIP3   OH245005   6.341   6.740   8.746 -0.0155  0.4047 -0.7171
 6937TIP3    H145006   6.415   6.799   8.757  0.7128 -0.8493  2.0286
 6937TIP3    H245007   6.378   6.664   8.700  0.7476 -0.5764  1.3564
 6938TIP3   OH245008   4.624   6.511   9.303  0.0084  0.1618  0.2619
 6938TIP3    H145009   4.678   6.437   9.276 -0.6509  0.1499 -1.1267
 6938TIP3    H245010   4.684   6.568   9.351  0.7262 -0.8626  0.6102
 6939TIP3   OH245011   2.377   3.030   0.693  0.0613 -0.4332  0.0668
 6939TIP3    H145012   2.323   2.956   0.666  0.4167 -0.9736  0.8231
 6939TIP3    H245013   2.467   3.002   0.674  0.2071 -0.2504  0.4822
 6940TIP3   OH245014   4.970   4.099   2.007  0.3794 -0.5638  0.0362
 6940TIP3    H145015   4.894   4.092   2.065  0.1880  2.2419  0.2925
 6940TIP3    H245016   5.043   4.065   2.059 -0.3351 -1.2955  0.5975
 6941TIP3   OH245017   2.190   0.913   2.005  0.3249 -0.1844 -0.1117
 6941TIP3    H145018   2.212   1.004   1.989 -0.1959 -0.0557 -0.1097
 6941TIP3    H245019   2.148   0.913   2.091  1.4048 -0.6038  0.4400
 6942TIP3   OH245020   6.996   4.155   8.256 -0.7987 -0.5159 -0.5307
 6942TIP3    H145021   6.920   4.104   8.284  1.2829 -2.2323  2.5441
 6942TIP3    H245022   7.012   4.126   8.166 -2.2467 -2.0652 -0.3412
 6943TIP3   OH245023   0.278   0.444   9.979  0.3218 -0.3934  0.1411
 6943TIP3    H145024   0.373   0.437   9.990  0.4609 -0.0667 -0.7593
 6943TIP3    H245025   0.259   0.384   9.907 -0.0437  0.1305 -0.1995
 6944TIP3   OH245026   2.110   5.654   2.213  0.3975 -0.5555 -0.2497
 6944TIP3    H145027   2.032   5.629   2.263  1.5602 -1.2867  1.2926
 6944TIP3    H245028   2.183   5.612   2.259  1.6696 -0.3588 -1.9672
 6945TIP3   OH245029   0.468   2.622   1.214 -0.1555  0.0107 -0.3216
 6945TIP3    H145030   0.435   2.624   1.304  0.8508  0.7813  0.0526
 6945TIP3    H245031   0.514   2.538   1.207 -0.5487 -0.2147 -0.2417
 6946TIP3   OH245032   7.006   2.891   1.279  0.4021 -0.1130 -0.2602
 6946TIP3    H145033   7.091   2.929   1.256 -0.6872  2.3653 -0.5569
 6946TIP3    H245034   6.970   2.863   1.195  0.7187 -0.7176 -0.1969
 6947TIP3   OH245035   0.790   1.961   9.606 -0.7793  0.2489  0.2558
 6947TIP3    H145036   0.782   2.009   9.688 -2.6285 -1.8353  1.3934
 6947TIP3    H245037   0.801   1.869   9.632  0.5816 -0.2562 -1.8233
 6948TIP3   OH245038   1.108   7.086   9.874  0.1323 -0.1028 -0.1907
 6948TIP3    H145039   1.119   7.122   9.786  0.3166 -1.7821 -0.8794
 6948TIP3    H245040   1.091   6.993   9.860 -0.4679 -0.2814  1.5315
 6949TIP3   OH245041   0.646   3.512   0.690 -0.2172  0.2304  0.0664
 6949TIP3    H145042   0.652   3.416   0.684 -0.6975  0.1867  0.2042
 6949TIP3    H245043   0.592   3.536   0.615  1.0183  0.5290 -0.7571
 6950TIP3   OH245044   7.108   2.954   9.031 -0.0122 -0.3043 -0.4848
 6950TIP3    H145045   7.139   2.960   9.122  2.1078  1.5321 -1.2445
 6950TIP3    H245046   7.015   2.976   9.036  0.3824  1.2169  1.0866
 6951TIP3   OH245047   2.075   2.999   1.915 -0.2280  0.8261 -0.5190
 6951TIP3    H145048   2.022   3.059   1.968 -0.2944  1.2708 -1.0680
 6951TIP3    H245049   2.106   2.933   1.976 -0.5542  1.1559  0.0112
 6952TIP3   OH245050   4.302   6.203   8.884 -0.2708  0.2694  0.1692
 6952TIP3    H145051   4.354   6.158   8.950 -0.1834 -0.1104 -0.1471
 6952TIP3    H245052   4.299   6.141   8.810 -0.1363  0.7963 -0.2826
 6953TIP3   OH245053   2.298   5.662   6.703  0.4630  0.1398  0.5595
 6953TIP3    H145054   2.269   5.748   6.674  2.6011  0.7890  0.1866
 6953TIP3    H245055   2.368   5.680   6.766  0.2490 -1.3221  1.2551
 6954TIP3   OH245056   0.282   3.705   1.960  0.2416 -0.0895  0.4273
 6954TIP3    H145057   0.235   3.664   1.887  1.0191  0.9541 -0.7094
 6954TIP3    H245058   0.223   3.697   2.035 -1.0160 -0.3017 -0.5476
 6955TIP3   OH245059   0.992   5.138   2.178 -0.0101  0.1800  0.0843
 6955TIP3    H145060   1.037   5.192   2.113  1.2662 -1.6814 -0.6566
 6955TIP3    H245061   1.062   5.108   2.236 -0.4390 -1.7572 -0.3308
 6956TIP3   OH245062   2.850   3.782   7.654  0.6129  1.0735  0.5585
 6956TIP3    H145063   2.922   3.725   7.681 -0.1732  0.6292  1.8280
 6956TIP3    H245064   2.812   3.813   7.737 -0.2821  1.7747 -0.0957
 6957TIP3   OH245065   5.553   0.552   8.581  0.1170  0.0072  0.2388
 6957TIP3    H145066   5.486   0.602   8.628 -1.8096 -1.9646 -0.2422
 6957TIP3    H245067   5.604   0.510   8.651 -0.5672 -0.2132  0.6195
 6958TIP3   OH245068   5.783   0.238   8.277  0.3366  0.1693  0.0261
 6958TIP3    H145069   5.769   0.331   8.259  1.1431  0.2218 -0.3602
 6958TIP3    H245070   5.722   0.193   8.218 -1.4156  0.4581  1.5056
 6959TIP3   OH245071   5.470   0.891   9.436 -0.1228  0.3070  0.2966
 6959TIP3    H145072   5.380   0.889   9.403 -0.4088  0.9486  1.0086
 6959TIP3    H245073   5.476   0.814   9.493  0.5723 -1.1912 -1.6456
 6960TIP3   OH245074   1.497   0.756   8.798  0.0271  0.1421  0.1680
 6960TIP3    H145075   1.485   0.845   8.762  0.1334  0.3852  0.7290
 6960TIP3    H245076   1.581   0.760   8.843  0.2972 -0.4081 -0.2744
 6961TIP3   OH245077   2.605   2.436   2.492 -0.1653  0.0326  0.1588
 6961TIP3    H145078   2.699   2.415   2.488  0.0130  0.9411 -0.5166
 6961TIP3    H245079   2.590   2.496   2.419 -1.2915 -0.1431  0.2296
 6962TIP3   OH245080   4.982   5.651   0.050  1.0144  0.3782 -0.2811
 6962TIP3    H145081   4.947   5.669  -0.037  1.1944  0.3972 -0.3523
 6962TIP3    H245082   4.921   5.589   0.089  0.9846  0.2941 -0.4601
 6963TIP3   OH245083   1.066   3.271   7.600  0.0984 -0.6196 -0.1920
 6963TIP3    H145084   1.013   3.345   7.631  1.1962  0.8344 -1.6431
 6963TIP3    H245085   1.125   3.252   7.673  0.1502  0.2919  0.0184
 6964TIP3   OH245086   1.834   3.712   6.992 -0.2393  0.1245 -0.0637
 6964TIP3    H145087   1.906   3.775   6.995 -0.2433  0.2597 -1.7520
 6964TIP3    H245088   1.796   3.724   6.905 -1.1480 -1.2163  0.1237
 6965TIP3   OH245089   7.162   5.768   7.771  0.2440 -0.6988  0.0036
 6965TIP3    H145090   7.095   5.820   7.816 -0.7443  0.1755 -2.3048
 6965TIP3    H245091   7.233   5.830   7.754  0.2804 -0.8118 -0.2631
 6966TIP3   OH245092   4.959   5.466   8.721 -0.1685  0.5044 -0.4970
 6966TIP3    H145093   4.972   5.464   8.816 -0.5246  0.3989 -0.4490
 6966TIP3    H245094   5.008   5.390   8.689 -1.9752 -0.8625 -0.1451
 6967TIP3   OH245095   4.938   7.401   1.914  0.9207  0.6212  0.0266
 6967TIP3    H145096   4.886   7.478   1.892 -1.0134 -0.5990  0.0878
 6967TIP3    H245097   4.883   7.327   1.888  1.5148 -0.7830  2.4383
 6968TIP3   OH245098   1.585   3.773   7.826  0.0136 -0.3054  0.8493
 6968TIP3    H145099   1.509   3.718   7.844 -0.2932 -1.0437 -2.1520
 6968TIP3    H245100   1.655   3.712   7.803  0.5634  0.4633  0.4173
 6969TIP3   OH245101   2.431   2.260   7.568 -0.3676 -0.1917  0.2264
 6969TIP3    H145102   2.415   2.174   7.607 -0.2188 -0.5538 -0.4999
 6969TIP3    H245103   2.477   2.241   7.487  0.8307  0.6472  0.6863
 6970TIP3   OH245104   4.006   3.918   2.683 -0.2205  0.1535  0.3266
 6970TIP3    H145105   4.057   3.996   2.660  0.1257 -0.4281 -0.9509
 6970TIP3    H245106   3.919   3.936   2.647  0.1296 -0.4515 -0.8833
 6971TIP3   OH245107   0.741   6.036   9.510  0.3193  0.2148  1.2061
 6971TIP3    H145108   0.732   6.111   9.452 -0.9356  0.7961  2.0988
 6971TIP3    H245109   0.768   6.074   9.594  1.8461 -0.5822  1.1179
 6972TIP3   OH245110   3.434   0.747   2.384 -0.0325 -0.3577  0.0657
 6972TIP3    H145111   3.355   0.748   2.438  0.3193  1.8537  0.6283
 6972TIP3    H245112   3.479   0.666   2.409 -0.0862  0.3747  2.8240
 6973TIP3   OH245113   2.790   5.836   6.065 -0.0711 -0.0107 -0.2126
 6973TIP3    H145114   2.877   5.875   6.077 -0.0011 -0.0702 -0.4986
 6973TIP3    H245115   2.729   5.909   6.077  0.0643  0.2156 -0.8539
 6974TIP3   OH245116   7.366   7.339   0.470  0.2049 -0.2735  0.2279
 6974TIP3    H145117   7.376   7.402   0.399 -2.1850 -2.2649 -2.0675
 6974TIP3    H245118   7.294   7.375   0.524 -1.2289 -0.9644 -1.1379
 6975TIP3   OH245119   1.881   1.576   6.996  0.5397  0.2920  0.1259
 6975TIP3    H145120   1.824   1.566   6.919  0.4761 -0.9885  0.3084
 6975TIP3    H245121   1.936   1.651   6.976 -0.0901  0.5309 -0.7814
 6976TIP3   OH245122   1.506   1.788   1.000 -0.0282 -0.2484  0.5179
 6976TIP3    H145123   1.468   1.868   1.038 -0.7505 -0.3751  0.0883
 6976TIP3    H245124   1.455   1.774   0.920  0.5891 -0.7307  0.2101
 6977TIP3   OH245125   1.382   6.840   7.320  0.2543 -0.0217  0.1094
 6977TIP3    H145126   1.292   6.856   7.350  0.3938  0.3304  0.3493
 6977TIP3    H245127   1.375   6.833   7.225  0.1268  1.0968  0.0236
 6978TIP3   OH245128   5.915   5.728   1.725 -0.1256 -0.5396  0.3010
 6978TIP3    H145129   5.923   5.744   1.631 -1.1789 -0.8890  0.1395
 6978TIP3    H245130   5.874   5.642   1.731 -0.3255 -0.3968  1.0847
 6979TIP3   OH245131   3.289   6.239   0.496  0.1868  0.3899 -0.0145
 6979TIP3    H145132   3.260   6.326   0.468  0.9664  0.1216 -1.8154
 6979TIP3    H245133   3.260   6.180   0.426  0.6398 -0.6302  0.6245
 6980TIP3   OH245134   6.366   1.731   9.770  0.3353  0.9595 -0.0698
 6980TIP3    H145135   6.311   1.705   9.844  0.3905  0.4704 -0.1950
 6980TIP3    H245136   6.420   1.654   9.752 -1.0021  0.3476 -1.8373
 6981TIP3   OH245137   4.954   6.977   1.608  0.3829 -0.4045  0.5076
 6981TIP3    H145138   4.896   6.981   1.684  0.6584  0.0555  0.6992
 6981TIP3    H245139   5.038   7.009   1.641  0.1943  0.9664 -0.2785
 6982TIP3   OH245140   2.428   2.930   9.255 -0.0485 -0.3684 -0.1962
 6982TIP3    H145141   2.504   2.950   9.200  0.3066  0.4771  0.6003
 6982TIP3    H245142   2.355   2.925   9.193  0.0449  2.2295 -0.6005
 6983TIP3   OH245143   4.933   1.871   0.685  0.6795  0.2787  0.2155
 6983TIP3    H145144   4.905   1.836   0.770  0.3065 -0.6581 -0.2901
 6983TIP3    H245145   5.027   1.888   0.696  0.7108 -0.1836  0.6949
 6984TIP3   OH245146   1.227   3.436   7.389 -0.0193 -0.1572 -0.1632
 6984TIP3    H145147   1.199   3.355   7.347  3.6992 -2.7209  1.7433
 6984TIP3    H245148   1.156   3.456   7.450 -0.0350 -3.5648  1.1821
 6985TIP3   OH245149   5.133   7.416   1.378  0.6094  0.5934 -0.2482
 6985TIP3    H145150   5.178   7.346   1.330  2.3071  0.7642  0.9867
 6985TIP3    H245151   5.202   7.457   1.431 -1.0631  0.7050  1.9898
 6986TIP3   OH245152   3.688   0.011   8.490 -0.0221  0.1862  0.3234
 6986TIP3    H145153   3.608  -0.041   8.486 -0.8623  1.3198  1.5756
 6986TIP3    H245154   3.666   0.092   8.444  1.1518 -0.3590 -1.2844
 6987TIP3   OH245155   1.217   0.935   0.823  0.7143 -0.4752  0.1452
 6987TIP3    H145156   1.222   0.891   0.907 -2.5059 -0.2988  0.5647
 6987TIP3    H245157   1.170   0.874   0.766  1.1062  0.1906 -0.9416
 6988TIP3   OH245158   1.104   2.398   0.612  0.5620  0.2446  0.1679
 6988TIP3    H145159   1.175   2.373   0.554  1.5847 -0.1170  1.5288
 6988TIP3    H245160   1.089   2.320   0.667  0.5065  0.9901  1.2441
 6989TIP3   OH245161   2.150   6.403   8.671 -0.6381  0.9871 -0.0629
 6989TIP3    H145162   2.055   6.399   8.664 -0.5960  0.8046 -0.5513
 6989TIP3    H245163   2.174   6.325   8.721 -0.7268  0.9201 -0.1267
 6990TIP3   OH245164   2.839   3.561   0.030 -0.4088  1.1105 -0.2990
 6990TIP3    H145165   2.859   3.652   0.008 -1.0996  1.0436 -1.2610
 6990TIP3    H245166   2.745   3.553   0.016 -0.4413  0.3870  0.3160
 6991TIP3   OH245167   2.232   6.726   7.677 -0.6667  0.0569  0.1548
 6991TIP3    H145168   2.305   6.734   7.740 -2.0482  0.6116  1.7809
 6991TIP3    H245169   2.269   6.680   7.602  1.6332  1.2603  0.4665
 6992TIP3   OH245170   3.327   7.300   9.801 -0.0684 -0.0613 -0.0733
 6992TIP3    H145171   3.328   7.315   9.707 -1.3043  2.6877  0.2721
 6992TIP3    H245172   3.234   7.290   9.823 -0.0768  2.0409  1.1461
 6993TIP3   OH245173   0.865   2.192   2.539  0.2029 -0.1620  0.0528
 6993TIP3    H145174   0.903   2.109   2.508 -1.1116 -0.6688 -0.2703
 6993TIP3    H245175   0.937   2.236   2.584  1.4408 -0.6059 -1.4398
 6994TIP3   OH245176   1.781   0.382   2.508 -0.4798  0.2515  0.3223
 6994TIP3    H145177   1.871   0.402   2.533 -0.9450 -0.0028  2.3066
 6994TIP3    H245178   1.728   0.445   2.555 -1.3893  0.1746 -0.5575
 6995TIP3   OH245179   5.237   4.030   1.796  0.0396  0.4557  0.2190
 6995TIP3    H145180   5.254   3.963   1.731 -2.5604  1.5171 -1.7605
 6995TIP3    H245181   5.299   4.100   1.776  1.2205 -0.3899  0.8324
 6996TIP3   OH245182   0.987   3.848   9.203  0.9007 -0.3039  0.0574
 6996TIP3    H145183   0.913   3.806   9.160  0.1376 -0.2577  1.2881
 6996TIP3    H245184   1.059   3.785   9.195  1.1212  0.1423 -2.1958
 6997TIP3   OH245185   1.825   3.426   1.755  0.4331 -0.1394  0.1487
 6997TIP3    H145186   1.747   3.370   1.759 -1.1238  1.9050  0.0881
 6997TIP3    H245187   1.867   3.414   1.841 -0.5982 -0.3994  0.6355
 6998TIP3   OH245188   2.433   0.668   7.858  0.1635  0.4165  0.4177
 6998TIP3    H145189   2.399   0.707   7.939  2.6496 -0.2801  1.8986
 6998TIP3    H245190   2.364   0.607   7.830 -1.0562  1.2111  1.5986
 6999TIP3   OH245191   1.429   1.678   9.538 -0.0786  0.2291  0.5665
 6999TIP3    H145192   1.455   1.750   9.481 -2.6773  0.9288  0.1462
 6999TIP3    H245193   1.483   1.689   9.617  2.2992  0.2859 -0.9756
 7000TIP3   OH245194   1.724   4.238   8.687 -0.0758  0.4085  0.7249
 7000TIP3    H145195   1.746   4.162   8.633 -0.5347  0.6593  0.1721
 7000TIP3    H245196   1.668   4.202   8.756  0.8403  0.0199  1.2832
 7001TIP3   OH245197   0.710   1.612   1.044 -0.7891  0.0501 -0.0000
 7001TIP3    H145198   0.732   1.521   1.023 -0.8989  0.2773 -1.1915
 7001TIP3    H245199   0.728   1.621   1.138 -4.5421 -2.3434  1.2049
 7002TIP3   OH245200   6.195   6.245   7.766 -0.3480  0.4029  0.0088
 7002TIP3    H145201   6.275   6.206   7.800 -0.5682 -0.7908 -0.7814
 7002TIP3    H245202   6.209   6.251   7.671 -1.8711 -1.6121 -0.4229
 7003TIP3   OH245203   3.553   2.182   9.631 -0.3941 -0.1467  0.0404
 7003TIP3    H145204   3.541   2.188   9.536  0.3540 -0.6553 -0.0926
 7003TIP3    H245205   3.575   2.090   9.647 -1.2286 -0.2367  0.8000
 7004TIP3   OH245206   3.206   5.390   9.043 -0.1644 -0.0876  0.5137
 7004TIP3    H145207   3.112   5.399   9.057  0.0684  1.5446  1.3681
 7004TIP3    H245208   3.227   5.456   8.976  0.5343  0.4048  1.2002
 7005TIP3   OH245209   7.174   7.398   1.628 -0.3436 -0.4755 -0.2653
 7005TIP3    H145210   7.253   7.355   1.594  1.3822  0.1316  2.5954
 7005TIP3    H245211   7.103   7.337   1.610  1.3793 -2.7308  0.1379
 7006TIP3   OH245212   2.353   3.042   0.967 -0.3302  0.2528  0.1390
 7006TIP3    H145213   2.328   3.090   0.888 -0.6914 -1.1947 -0.6601
 7006TIP3    H245214   2.316   2.955   0.955  1.1544 -0.5502  1.0754
 7007TIP3   OH245215   3.885   6.861   0.756 -0.0296  0.0028  0.6002
 7007TIP3    H145216   3.851   6.942   0.796 -0.7790  0.1584 -0.3293
 7007TIP3    H245217   3.807   6.815   0.726  0.5306  0.1340 -1.1509
 7008TIP3   OH245218   3.363   6.924   2.206  0.1578 -0.4622  0.1082
 7008TIP3    H145219   3.414   6.843   2.199  0.5811 -0.1962  0.1006
 7008TIP3    H245220   3.278   6.901   2.168  0.0388 -1.0999  0.7338
 7009TIP3   OH245221   5.204   5.958   8.041  0.2108  0.0555  0.2669
 7009TIP3    H145222   5.176   5.996   8.125  0.3088  0.0332  0.3089
 7009TIP3    H245223   5.207   5.864   8.058  0.6988  0.0889  0.3770
 7010TIP3   OH245224   2.459   7.317   8.595  0.2449  0.8861  0.0953
 7010TIP3    H145225   2.415   7.261   8.531  0.6664  1.7195 -0.9714
 7010TIP3    H245226   2.538   7.269   8.619  1.0025  1.3178 -1.4017
 7011TIP3   OH245227   1.101   4.315   8.785  0.0568  0.3084 -0.7177
 7011TIP3    H145228   1.040   4.313   8.711  0.9488 -0.5897 -1.4423
 7011TIP3    H245229   1.178   4.268   8.755  1.3140  1.7890  0.0345
 7012TIP3   OH245230   3.165   4.129   8.493 -0.4909 -0.6456  0.1177
 7012TIP3    H145231   3.239   4.134   8.432 -0.8971 -1.5618 -0.4698
 7012TIP3    H245232   3.206   4.115   8.578  0.1350  1.6569  0.2623
 7013TIP3   OH245233   6.521   4.937   0.999  0.1830  0.4698 -0.1736
 7013TIP3    H145234   6.512   4.851   1.040 -1.8417  0.0151 -1.4581
 7013TIP3    H245235   6.472   4.996   1.056 -2.8232 -0.2009 -1.8986
 7014TIP3   OH245236   2.492   1.645   2.073  0.4927  0.3892  0.1531
 7014TIP3    H145237   2.565   1.650   2.011  1.2462 -0.1649  0.9690
 7014TIP3    H245238   2.524   1.587   2.142 -0.8075 -0.0322  0.4186
 7015TIP3   OH245239   4.875   1.201   2.112  1.0247  0.0973  0.2478
 7015TIP3    H145240   4.865   1.106   2.121 -2.1301  0.1936 -1.0685
 7015TIP3    H245241   4.906   1.214   2.022 -2.5747  0.3191 -1.1194
 7016TIP3   OH245242   1.339   2.036   8.085  0.4451  0.5784  0.1279
 7016TIP3    H145243   1.430   2.050   8.109 -0.3112  4.2532  1.5586
 7016TIP3    H245244   1.333   2.066   7.994  0.7654 -0.3559 -0.2093
 7017TIP3   OH245245   2.561   4.137   1.731 -0.6526 -0.0541 -0.0634
 7017TIP3    H145246   2.577   4.060   1.678  0.3690  0.3086 -0.3046
 7017TIP3    H245247   2.478   4.119   1.775 -0.2930 -1.4012  0.1020
 7018TIP3   OH245248   5.191   3.633   8.771 -0.0183  0.1924 -0.5869
 7018TIP3    H145249   5.165   3.634   8.863 -2.5114  1.0953 -1.2324
 7018TIP3    H245250   5.222   3.721   8.753  0.0473  0.1451 -0.7088
 7019TIP3   OH245251   4.457   3.153   0.154 -0.5212 -0.0408  0.1457
 7019TIP3    H145252   4.428   3.080   0.100  1.1704 -1.2965  0.8534
 7019TIP3    H245253   4.527   3.117   0.209  0.2566  2.0578  0.6570
 7020TIP3   OH245254   3.413   5.413   7.906  0.3266 -0.9076  0.1642
 7020TIP3    H145255   3.481   5.480   7.893 -0.5016  0.3294  1.8741
 7020TIP3    H245256   3.371   5.405   7.820  2.4502 -1.5535 -0.8825
 7021TIP3   OH245257   4.653   6.478   1.464  0.7733  0.1767  0.3466
 7021TIP3    H145258   4.616   6.416   1.525  1.1123  0.6278  1.0266
 7021TIP3    H245259   4.746   6.454   1.458  0.8504  0.4433  0.4130
 7022TIP3   OH245260   3.315   1.126   7.854 -0.2990 -0.5363 -0.5972
 7022TIP3    H145261   3.359   1.072   7.788 -2.7296 -3.0262 -0.3654
 7022TIP3    H245262   3.294   1.065   7.925 -0.7472  1.3578  0.9817
 7023TIP3   OH245263   0.687   2.539   2.855  0.5177 -0.0808  0.1122
 7023TIP3    H145264   0.682   2.557   2.761 -3.6757 -3.1136 -0.5408
 7023TIP3    H245265   0.707   2.445   2.860  0.8830  0.0632  2.2818
 7024TIP3   OH245266   6.502   0.206   1.289  0.4900  0.1551 -0.0923
 7024TIP3    H145267   6.490   0.223   1.195  0.4534 -3.2523 -0.8439
 7024TIP3    H245268   6.566   0.134   1.292 -0.5753 -0.7917  2.4095
 7025TIP3   OH245269   5.900   6.944   1.518  0.1374  0.2326  0.0937
 7025TIP3    H145270   5.887   6.923   1.610  0.4193 -0.2863  0.0211
 7025TIP3    H245271   5.833   6.892   1.472 -0.9184  1.5320  0.0896
 7026TIP3   OH245272   5.366   5.388   1.177  1.0450  0.1217 -0.3654
 7026TIP3    H145273   5.352   5.422   1.088 -1.7747  0.9760  0.3192
 7026TIP3    H245274   5.321   5.304   1.177  2.1334 -0.4806 -0.0570
 7027TIP3   OH245275   1.479   5.270   7.930  0.2783  0.3690 -0.6337
 7027TIP3    H145276   1.389   5.249   7.908 -0.1511  0.0534  1.2526
 7027TIP3    H245277   1.489   5.361   7.904 -1.0119  0.8143  0.3466
 7028TIP3   OH245278   5.759   2.465   1.090  0.0091  0.0635 -0.7075
 7028TIP3    H145279   5.747   2.560   1.086  1.1747  0.2370 -0.5090
 7028TIP3    H245280   5.702   2.430   1.022 -0.7922  0.8691 -0.4609
 7029TIP3   OH245281   1.482   2.348   9.639 -0.2882  0.2986  0.0924
 7029TIP3    H145282   1.522   2.332   9.725 -1.0368  1.6884  0.7400
 7029TIP3    H245283   1.556   2.349   9.578  0.1614 -1.7354  0.5269
 7030TIP3   OH245284   1.333   7.160   6.963 -0.5893 -0.5177  0.0985
 7030TIP3    H145285   1.269   7.227   6.938 -0.5228 -0.8054 -0.8905
 7030TIP3    H245286   1.290   7.109   7.032 -0.4745  0.7942  1.1930
 7031TIP3   OH245287   3.265   1.627   1.149 -0.0985  0.3479 -0.0468
 7031TIP3    H145288   3.257   1.697   1.084 -1.6918 -0.6414 -1.0279
 7031TIP3    H245289   3.341   1.576   1.120 -0.5214  0.1809 -0.9044
 7032TIP3   OH245290   1.611   6.177   9.849  0.3662 -0.4584 -0.1794
 7032TIP3    H145291   1.701   6.183   9.880  0.4894 -1.3699 -0.3108
 7032TIP3    H245292   1.592   6.262   9.810  1.0483 -0.1406  0.1765
 7033TIP3   OH245293   3.620   4.638   9.667  0.3107 -0.0038  0.3165
 7033TIP3    H145294   3.581   4.612   9.584  2.4462 -0.9584 -0.4529
 7033TIP3    H245295   3.683   4.707   9.644  2.0904 -1.3792  0.8404
 7034TIP3   OH245296   6.299   1.249   9.383 -0.8090 -0.3660 -0.1254
 7034TIP3    H145297   6.386   1.278   9.409 -0.3305 -0.0515 -1.9419
 7034TIP3    H245298   6.294   1.158   9.413  0.0679 -0.3364  0.1443
 7035TIP3   OH245299   2.083   2.171   6.871 -0.6003  0.0531 -0.0764
 7035TIP3    H145300   2.031   2.141   6.945  0.7241 -2.0301  0.0916
 7035TIP3    H245301   2.163   2.206   6.910 -0.2968 -0.1850 -0.4731
 7036TIP3   OH245302   3.828   0.119   8.927 -0.9232 -0.5293 -0.1325
 7036TIP3    H145303   3.863   0.117   9.016  0.2978 -1.3468 -0.6075
 7036TIP3    H245304   3.775   0.199   8.924  0.8036  0.7069  0.6591
 7037TIP3   OH245305   3.712   0.351   1.020 -0.7426  0.1400  0.2938
 7037TIP3    H145306   3.617   0.364   1.016 -0.9113 -0.9023  0.7598
 7037TIP3    H245307   3.725   0.258   1.003  0.1653  0.1881  0.6573
 7038TIP3   OH245308   1.124   5.049   1.417 -0.0048  0.1520 -0.3683
 7038TIP3    H145309   1.045   5.091   1.382  1.4002  3.6898  0.2152
 7038TIP3    H245310   1.187   5.121   1.426  2.2601 -1.9269  2.1704
 7039TIP3   OH245311   3.989   4.603   8.295  0.3726 -0.3517  0.4623
 7039TIP3    H145312   4.001   4.662   8.368  0.3354 -0.5907  0.6639
 7039TIP3    H245313   4.060   4.539   8.303  0.7463 -0.0106 -0.0751
 7040TIP3   OH245314   2.981   5.173   9.103 -0.0101  0.4623  0.7044
 7040TIP3    H145315   2.906   5.225   9.132  0.2567  0.8366  0.7210
 7040TIP3    H245316   3.012   5.217   9.024 -0.5935 -0.4267 -0.0518
 7041TIP3   OH245317   7.443   2.930   7.947 -0.1053 -0.2296  0.3514
 7041TIP3    H145318   7.528   2.936   7.991  0.7656  0.3627 -1.3360
 7041TIP3    H245319   7.464   2.926   7.854 -1.9500  0.6738 -0.1583
 7042TIP3   OH245320   0.887   6.774   8.988 -0.0422 -0.1003  0.3532
 7042TIP3    H145321   0.880   6.852   8.932  0.3532  0.8947  1.6353
 7042TIP3    H245322   0.976   6.777   9.021 -0.8609  0.5439  2.6706
 7043TIP3   OH245323   5.704   1.869   0.651  0.6906  0.3332  0.0142
 7043TIP3    H145324   5.662   1.901   0.571  0.1262  1.4076  0.7294
 7043TIP3    H245325   5.795   1.900   0.644  0.7910 -0.0499 -0.4581
 7044TIP3   OH245326   6.377   3.358   9.577  0.3598  0.0290  0.1050
 7044TIP3    H145327   6.327   3.406   9.643 -0.7575 -1.6676  0.5480
 7044TIP3    H245328   6.313   3.331   9.512  0.5847 -2.3406  0.7748
 7045TIP3   OH245329   0.056   5.532   2.412  0.2123  0.5229 -0.5917
 7045TIP3    H145330   0.069   5.622   2.442  1.2232 -0.2637  1.4718
 7045TIP3    H245331   0.031   5.483   2.491 -2.9059 -0.5849 -2.0774
 7046TIP3   OH245332   2.995   0.451   9.859  0.5792 -0.5289 -0.5636
 7046TIP3    H145333   3.009   0.507   9.783  0.3553  1.2093  0.6177
 7046TIP3    H245334   3.056   0.378   9.846  1.6281  0.4976 -1.6643
 7047TIP3   OH245335   5.966   6.035   9.817  0.3365  0.2289  0.0175
 7047TIP3    H145336   5.937   6.123   9.794 -2.5877 -0.4865  0.5407
 7047TIP3    H245337   5.945   6.026   9.910  1.9236 -0.5767  0.3394
 7048TIP3   OH245338   5.196   7.323   1.954  0.3403 -0.2121 -0.1416
 7048TIP3    H145339   5.108   7.335   1.919  0.2587 -0.0010  0.1341
 7048TIP3    H245340   5.210   7.228   1.953  0.4596 -0.1913 -1.0383
 7049TIP3   OH245341   1.121   5.517   8.165  0.2304 -0.5736  0.0884
 7049TIP3    H145342   1.057   5.447   8.173 -0.5468  0.1882  0.7078
 7049TIP3    H245343   1.107   5.552   8.077 -0.3277 -0.3009  0.2799
 7050TIP3   OH245344   3.797   0.946   9.679  0.0406  0.1640  0.3146
 7050TIP3    H145345   3.735   1.008   9.641  1.4203  1.1860 -0.3357
 7050TIP3    H245346   3.856   1.000   9.731  0.3384 -0.8057  1.0094
 7051TIP3   OH245347   1.294   3.663   7.780  0.3342  0.0428 -0.2669
 7051TIP3    H145348   1.346   3.591   7.746 -0.2938  0.3366 -1.9117
 7051TIP3    H245349   1.258   3.630   7.863  2.2220 -0.5275  0.3619
 7052TIP3   OH245350   2.128   3.185   0.771 -0.3861 -0.0235 -0.6464
 7052TIP3    H145351   2.210   3.169   0.724  0.7068  1.7001  0.5426
 7052TIP3    H245352   2.129   3.279   0.791 -2.5063 -0.0128 -0.2936
 7053TIP3   OH245353   2.619   6.776   8.792 -0.3252  0.2529 -0.4273
 7053TIP3    H145354   2.576   6.705   8.840 -1.6408  1.5651  0.4426
 7053TIP3    H245355   2.711   6.770   8.818 -0.5404 -0.6946  0.1721
 7054TIP3   OH245356   5.672   5.447   0.945  0.4218  0.4251 -0.3148
 7054TIP3    H145357   5.732   5.521   0.931  1.0567  0.5013  2.2732
 7054TIP3    H245358   5.676   5.431   1.039 -1.0713 -1.7931 -0.5651
 7055TIP3   OH245359   1.495   1.255   8.011 -0.2206 -0.2501 -0.4135
 7055TIP3    H145360   1.421   1.229   8.064  0.7900  1.0580  1.7633
 7055TIP3    H245361   1.550   1.176   8.006 -2.0588 -1.5131 -2.8178
 7056TIP3   OH245362   7.251   3.250   8.479 -0.3589 -0.0881  0.0593
 7056TIP3    H145363   7.188   3.202   8.426  0.1442  1.4919 -2.0738
 7056TIP3    H245364   7.337   3.221   8.448 -0.0535  1.3735 -0.5234
 7057TIP3   OH245365   1.813   4.926   2.353  0.0398  0.2509  0.4213
 7057TIP3    H145366   1.870   4.887   2.420  1.3126 -2.6855 -2.1254
 7057TIP3    H245367   1.862   5.002   2.322 -0.5273  1.6105  2.5912
 7058TIP3   OH245368   3.424   0.547   0.431 -0.3018 -0.8637  0.8358
 7058TIP3    H145369   3.505   0.555   0.482  0.3933 -1.3876 -0.1511
 7058TIP3    H245370   3.432   0.615   0.364 -0.2963 -1.4350  0.2479
 7059TIP3   OH245371   5.557   4.204   0.023  0.2185 -0.3630  0.1352
 7059TIP3    H145372   5.486   4.141   0.029  0.7514 -0.9544  0.3467
 7059TIP3    H245373   5.591   4.194  -0.066  0.4819 -0.5819  0.2569
 7060TIP3   OH245374   6.358   2.103   8.630  0.4672  0.0557  0.4250
 7060TIP3    H145375   6.434   2.162   8.634 -1.7088  3.0863  1.0103
 7060TIP3    H245376   6.365   2.050   8.709  1.8226  0.4328  0.5899
 7061TIP3   OH245377   4.984   7.172   0.388  0.5410 -0.0029  0.1208
 7061TIP3    H145378   4.895   7.173   0.423 -0.1894  1.3771 -1.6270
 7061TIP3    H245379   4.975   7.200   0.297  2.9067  1.7319  0.3088
 7062TIP3   OH245380   2.266   2.182   1.473 -0.1620 -0.1547 -0.0620
 7062TIP3    H145381   2.317   2.170   1.554 -0.5608 -0.3897  0.1582
 7062TIP3    H245382   2.234   2.095   1.452  0.6939 -0.2590 -0.9883
 7063TIP3   OH245383   3.032   5.754   8.757 -0.3933 -0.1024  0.1577
 7063TIP3    H145384   2.952   5.734   8.709 -0.7987 -0.1610  0.8443
 7063TIP3    H245385   3.066   5.834   8.716 -0.4233 -0.4538 -0.5809
 7064TIP3   OH245386   1.821   6.143   8.610 -0.6806 -0.3778  0.1678
 7064TIP3    H145387   1.860   6.207   8.549 -0.6743 -2.0029 -1.6306
 7064TIP3    H245388   1.866   6.061   8.590 -1.2290 -1.1299  1.8804
 7065TIP3   OH245389   5.367   4.533   1.194  0.5272 -0.1148  0.2978
 7065TIP3    H145390   5.351   4.557   1.103  0.4484 -1.2908 -0.0123
 7065TIP3    H245391   5.461   4.516   1.199  0.2613 -1.8811 -0.0451
 7066TIP3   OH245392   3.400   5.146   9.933  1.0879 -0.3792 -0.3419
 7066TIP3    H145393   3.423   5.082  10.001  1.6623 -0.3838 -0.5369
 7066TIP3    H245394   3.479   5.198   9.921  1.3240 -1.0197 -1.7192
 7067TIP3   OH245395   7.206   4.094   8.036  0.1316  0.3442  0.3137
 7067TIP3    H145396   7.201   4.188   8.018  0.8177  0.0920 -1.3562
 7067TIP3    H245397   7.259   4.059   7.965 -0.2135 -1.3377  0.8468
 7068TIP3   OH245398   4.203   7.077   1.940  0.5692  0.1534 -0.2211
 7068TIP3    H145399   4.222   7.104   2.030  1.2687 -1.1067  0.0400
 7068TIP3    H245400   4.115   7.039   1.945  0.9039 -0.6009  0.1044
 7069TIP3   OH245401   4.459   2.603   1.333  0.2148 -0.1478 -0.2905
 7069TIP3    H145402   4.392   2.548   1.372  3.0457 -2.2030  2.1670
 7069TIP3    H245403   4.478   2.562   1.248 -0.4192 -0.6015 -0.2142
 7070TIP3   OH245404   6.219   4.503   0.691 -0.1025 -0.0250  0.6707
 7070TIP3    H145405   6.310   4.474   0.684  0.0367  0.5481 -0.0422
 7070TIP3    H245406   6.203   4.551   0.610 -0.8034  0.5497  1.1379
 7071TIP3   OH245407   0.315   2.611   8.067  0.0604 -0.0508  0.3330
 7071TIP3    H145408   0.326   2.667   7.990  0.2943 -1.5451 -0.7537
 7071TIP3    H245409   0.404   2.582   8.088  0.0632  0.7381  1.5027
 7072TIP3   OH245410   5.744   0.316   1.622  0.6724 -0.2620  0.1861
 7072TIP3    H145411   5.674   0.316   1.556 -0.2437  1.5651  1.0849
 7072TIP3    H245412   5.738   0.230   1.663 -1.0722 -0.1348  0.2488
 7073TIP3   OH245413   5.847   5.499   8.448 -0.7202  0.3992 -0.0590
 7073TIP3    H145414   5.809   5.533   8.529 -0.7416  0.4966 -0.1096
 7073TIP3    H245415   5.881   5.412   8.472 -0.6575  0.4596  0.0725
 7074TIP3   OH245416   0.219   1.743   1.339  0.1957  0.4861 -0.4255
 7074TIP3    H145417   0.152   1.677   1.318  2.7971 -1.9028 -1.8772
 7074TIP3    H245418   0.225   1.796   1.259  0.8834 -0.1450 -0.8088
 7075TIP3   OH245419   6.371   5.966   8.145 -0.0245 -0.3623 -0.1525
 7075TIP3    H145420   6.378   6.056   8.113 -0.6842 -0.4851 -0.6602
 7075TIP3    H245421   6.432   5.962   8.220  0.6176  0.2687 -0.6297
 7076TIP3   OH245422   2.055   3.117   0.349  0.4331 -0.4000 -0.2136
 7076TIP3    H145423   2.119   3.167   0.299  0.3670 -0.0194  0.0828
 7076TIP3    H245424   2.041   3.167   0.429 -0.9040  0.0159 -0.6638
 7077TIP3   OH245425   2.652   2.338   8.590 -0.5542  0.1166  0.1550
 7077TIP3    H145426   2.715   2.407   8.566 -1.3019  0.7169 -0.1047
 7077TIP3    H245427   2.700   2.283   8.652  0.9421 -0.6167 -1.5513
 7078TIP3   OH245428   6.342   0.419   8.589 -0.1146 -0.2603  0.1234
 7078TIP3    H145429   6.296   0.455   8.513  0.0986 -0.4366 -0.0886
 7078TIP3    H245430   6.297   0.459   8.664 -2.0339 -2.0417  0.0190
 7079TIP3   OH245431   3.123   2.239   1.676 -0.6197  0.0325 -0.2070
 7079TIP3    H145432   3.217   2.223   1.689 -0.7031  0.2271  0.6658
 7079TIP3    H245433   3.087   2.247   1.765 -1.3812  0.4461 -0.5454
 7080TIP3   OH245434   1.139   7.194   7.774 -0.3164 -0.1838 -0.6313
 7080TIP3    H145435   1.086   7.200   7.694 -1.2508  1.4514  0.0698
 7080TIP3    H245436   1.075   7.199   7.845  0.6282 -0.1029  0.2319
 7081TIP3   OH245437   3.094   5.017   6.874 -0.4097 -0.0120 -0.5415
 7081TIP3    H145438   3.152   5.092   6.892 -0.9861  0.3461 -0.1448
 7081TIP3    H245439   3.008   5.056   6.862 -0.8870 -0.6814  0.5407
 7082TIP3   OH245440   7.258   4.745   1.805  0.1250 -0.1288 -0.2541
 7082TIP3    H145441   7.165   4.742   1.783  0.3594 -0.2349 -1.2890
 7082TIP3    H245442   7.282   4.654   1.821  0.2435 -0.2169 -0.8895
 7083TIP3   OH245443   4.274   1.516   0.331 -0.2926  0.1987 -0.1751
 7083TIP3    H145444   4.302   1.464   0.255  0.2079  1.8118 -1.1378
 7083TIP3    H245445   4.183   1.490   0.346  0.5583 -2.5603  0.7957
 7084TIP3   OH245446   5.950   4.174   7.990  0.6320 -0.0512 -0.1821
 7084TIP3    H145447   5.921   4.220   7.911  1.6977  0.1796 -0.4593
 7084TIP3    H245448   6.001   4.100   7.958 -0.4225 -0.9947  0.2777
 7085TIP3   OH245449   5.993   0.692   9.528 -0.0569 -0.1485 -0.5865
 7085TIP3    H145450   5.952   0.772   9.494 -0.6918  0.2009  0.9002
 7085TIP3    H245451   6.015   0.714   9.619  0.5654 -1.3797 -0.4200
 7086TIP3   OH245452   6.229   3.001   2.645 -0.3791 -0.3542 -0.4616
 7086TIP3    H145453   6.239   2.907   2.661 -0.0193 -0.3246 -0.5060
 7086TIP3    H245454   6.304   3.025   2.591  0.0294  0.1302  0.2861
 7087TIP3   OH245455   4.686   1.974   0.579 -0.1448 -0.5239  0.6000
 7087TIP3    H145456   4.729   1.997   0.497 -1.3877 -1.2373 -0.2784
 7087TIP3    H245457   4.751   1.920   0.625  1.1342  1.0830  0.7987
 7088TIP3   OH245458   0.202   0.193   0.126 -0.0094  0.0283  0.2673
 7088TIP3    H145459   0.294   0.180   0.149  0.6221  2.0686 -0.8215
 7088TIP3    H245460   0.204   0.259   0.057 -2.3500  0.7685  0.8230
 7089TIP3   OH245461   1.462   4.953   7.083  0.0514  0.8086  0.1135
 7089TIP3    H145462   1.389   4.967   7.143 -0.6138  1.0004 -0.7099
 7089TIP3    H245463   1.434   4.995   7.001  0.7126  0.1218 -0.4865
 7090TIP3   OH245464   5.749   0.753   2.312 -0.1499  0.4776 -0.4755
 7090TIP3    H145465   5.684   0.683   2.308  0.3995 -0.0690 -0.1002
 7090TIP3    H245466   5.711   0.824   2.261 -0.3657 -0.3946 -1.5979
 7091TIP3   OH245467   2.655   4.192   0.865  0.8099  0.1531 -0.2746
 7091TIP3    H145468   2.566   4.165   0.842  0.9608  0.7054 -1.6192
 7091TIP3    H245469   2.656   4.192   0.961 -0.4077 -0.5805 -0.2389
 7092TIP3   OH245470   7.187   1.951   9.925 -0.4944  0.4583 -0.5160
 7092TIP3    H145471   7.165   1.885   9.859  0.2769  0.1634 -0.4899
 7092TIP3    H245472   7.229   1.901   9.995  0.3493  1.0114 -0.6176
 7093TIP3   OH245473   0.777   6.118   0.902  0.0033 -0.2354  0.1003
 7093TIP3    H145474   0.706   6.111   0.839 -0.3374 -1.9210  0.6117
 7093TIP3    H245475   0.734   6.143   0.984  0.3509  1.2548 -0.1587
 7094TIP3   OH245476   1.097   1.091   0.095  0.4348 -0.0271  0.0371
 7094TIP3    H145477   1.085   1.037   0.173 -0.8421  0.7356  0.3829
 7094TIP3    H245478   1.180   1.061   0.058  1.0926 -0.3411  1.7195
 7095TIP3   OH245479   1.507   3.676   9.811 -0.0742  0.4693  0.1750
 7095TIP3    H145480   1.523   3.608   9.876 -0.1606  0.1175 -0.1717
 7095TIP3    H245481   1.413   3.671   9.794  0.1940 -0.5119 -1.1458
 7096TIP3   OH245482   2.819   5.757   3.148 -0.1870  0.9025 -0.0297
 7096TIP3    H145483   2.780   5.682   3.194 -1.2115  1.3987 -0.0657
 7096TIP3    H245484   2.898   5.777   3.198 -0.6209  0.6468  0.7730
 7097TIP3   OH245485   3.261   1.051   0.654 -0.4215 -0.3337 -0.2207
 7097TIP3    H145486   3.289   1.104   0.729  0.9733 -2.2202  0.6618
 7097TIP3    H245487   3.181   1.095   0.623 -0.6238  0.9412  1.8694
 7098TIP3   OH245488   3.488   4.685   7.755 -0.2313 -0.3459 -0.3496
 7098TIP3    H145489   3.412   4.724   7.713 -0.3676  0.1753  0.3635
 7098TIP3    H245490   3.515   4.749   7.821  0.0957 -1.0555  0.2218
 7099TIP3   OH245491   1.663   3.216   0.017  0.0414  0.2255 -0.5364
 7099TIP3    H145492   1.732   3.282   0.009 -0.3269  0.5419 -1.2377
 7099TIP3    H245493   1.683   3.170   0.098  0.9214  0.4880 -0.5913
 7100TIP3   OH245494   6.646   4.025   9.971  0.5149 -0.3407  0.2231
 7100TIP3    H145495   6.718   3.961   9.969  0.8982  0.0804  0.3795
 7100TIP3    H245496   6.568   3.974   9.950  0.5833 -1.1874  1.8649
 7101TIP3   OH245497   4.645   2.235   0.888 -0.4985 -0.4559 -0.4098
 7101TIP3    H145498   4.588   2.250   0.964  0.5350  1.8201  0.0023
 7101TIP3    H245499   4.683   2.148   0.903  0.4297  0.2970  2.2463
 7102TIP3   OH245500   1.235   2.453   7.753  0.0872  0.0411 -0.1347
 7102TIP3    H145501   1.236   2.489   7.841 -0.7947 -1.4029  0.5055
 7102TIP3    H245502   1.322   2.474   7.718 -0.0853  1.9893  0.4680
 7103TIP3   OH245503   0.705   2.918   7.626  0.0430 -0.0843 -0.5226
 7103TIP3    H145504   0.655   2.948   7.549  0.3004  1.2595 -0.1969
 7103TIP3    H245505   0.791   2.960   7.616 -0.0457  0.4168  0.6906
 7104TIP3   OH245506   3.303   5.628   0.388 -0.6770  0.4653 -0.1505
 7104TIP3    H145507   3.304   5.720   0.415  0.8805  0.4761 -0.1468
 7104TIP3    H245508   3.252   5.583   0.455 -0.6505  1.1840  0.3572
 7105TIP3   OH245509   3.492   3.324   9.835  0.1678  0.6037 -0.0613
 7105TIP3    H145510   3.429   3.364   9.896  1.6483  1.2629  1.1103
 7105TIP3    H245511   3.452   3.241   9.811 -1.1903  1.0302  0.5751
 7106TIP3   OH245512   1.476   5.464   1.790 -0.0997  0.7115  0.5062
 7106TIP3    H145513   1.464   5.542   1.844 -1.3538  1.3795 -0.6754
 7106TIP3    H245514   1.389   5.423   1.788  0.0303  0.4652 -0.6289
 7107TIP3   OH245515   4.284   1.935   9.978 -0.0917 -0.0030  0.1277
 7107TIP3    H145516   4.214   1.878  10.009  0.6402  0.4785  2.8975
 7107TIP3    H245517   4.273   2.016  10.028 -0.2639  1.8762 -2.7090
 7108TIP3   OH245518   7.238   1.268   1.245 -0.3131 -0.1150  0.2772
 7108TIP3    H145519   7.200   1.230   1.325 -3.6615  0.0549 -1.0758
 7108TIP3    H245520   7.257   1.192   1.190  1.0418 -0.1796  0.8080
 7109TIP3   OH245521   5.748   0.630   0.309 -0.2683  0.0792 -0.5169
 7109TIP3    H145522   5.706   0.689   0.247 -0.8049  2.2288  1.7382
 7109TIP3    H245523   5.839   0.659   0.313 -0.5044  0.7291  0.5064
 7110TIP3   OH245524   6.477   3.850   9.837 -0.1588  0.1390 -0.0119
 7110TIP3    H145525   6.556   3.796   9.828  0.4090  1.0648 -0.8232
 7110TIP3    H245526   6.429   3.836   9.755 -2.1397 -2.3092  1.3946
 7111TIP3   OH245527   3.577   6.846   7.841 -0.0936  0.0664 -0.1661
 7111TIP3    H145528   3.507   6.798   7.797 -0.0837 -0.6074  0.5255
 7111TIP3    H245529   3.632   6.778   7.880  0.2306  0.6246  0.3727
 7112TIP3   OH245530   3.258   5.240   6.874  0.0242  0.2867 -0.0713
 7112TIP3    H145531   3.218   5.270   6.955 -0.8131  0.0304 -0.3731
 7112TIP3    H245532   3.301   5.317   6.838  2.4939 -0.1221  1.7775
 7113TIP3   OH245533   2.664   5.701   7.697 -0.4096 -0.3203  0.0566
 7113TIP3    H145534   2.670   5.769   7.629 -0.8429 -0.6394 -0.3055
 7113TIP3    H245535   2.733   5.639   7.675 -1.2358 -0.9791 -0.7237
 7114TIP3   OH245536   4.235   4.331   9.161  0.2035  0.7010  0.0062
 7114TIP3    H145537   4.241   4.349   9.255  1.5599  1.7952 -0.2600
 7114TIP3    H245538   4.297   4.259   9.147 -0.9115 -0.3095  0.1247
 7115TIP3   OH245539   2.398   6.707   7.415  0.0540 -0.1600 -0.5214
 7115TIP3    H145540   2.326   6.684   7.356 -0.6541  1.0614 -0.1780
 7115TIP3    H245541   2.391   6.802   7.424 -1.3092 -0.4444  3.3144
 7116TIP3   OH245542   0.047   3.104   0.008  0.4413  0.2267 -0.1128
 7116TIP3    H145543   0.008   3.108  -0.080  1.8027 -0.0245 -0.7604
 7116TIP3    H245544   0.024   3.188   0.048  0.7899  0.8541 -1.1745
 7117TIP3   OH245545   7.182   6.506   0.258  0.5001 -0.8230 -0.2097
 7117TIP3    H145546   7.184   6.411   0.258 -0.0133 -0.8646  1.3114
 7117TIP3    H245547   7.098   6.529   0.219  1.0056 -0.9500 -1.4061
 7118TIP3   OH245548   6.255   5.952   7.901 -0.4540 -0.1205  0.2955
 7118TIP3    H145549   6.302   5.950   7.984 -0.1878 -2.6754  0.1488
 7118TIP3    H245550   6.319   5.925   7.835 -1.1155  0.1805 -0.5005
 7119TIP3   OH245551   1.491   0.256   1.151 -0.4086  0.2077  0.3950
 7119TIP3    H145552   1.442   0.210   1.219  0.7047  1.4704  2.1484
 7119TIP3    H245553   1.576   0.211   1.149 -0.8081 -0.5472 -1.0242
 7120TIP3   OH245554   5.996   4.816   9.204 -0.2641 -0.1094  0.3373
 7120TIP3    H145555   5.914   4.842   9.162  1.5452  2.0230 -2.2487
 7120TIP3    H245556   5.991   4.854   9.292 -0.7851  2.9802 -0.8945
 7121TIP3   OH245557   5.925   2.328   2.021 -0.4102  0.1037 -0.1671
 7121TIP3    H145558   6.011   2.364   2.040  0.1280 -0.7597 -0.8415
 7121TIP3    H245559   5.871   2.349   2.097  0.4542  0.4832  0.3430
 7122TIP3   OH245560   4.490   7.257   0.332 -0.4308 -0.2174  0.0860
 7122TIP3    H145561   4.414   7.200   0.332 -0.6310  0.0313 -1.0813
 7122TIP3    H245562   4.456   7.342   0.360 -0.3941 -0.3299  0.4803
 7123TIP3   OH245563   0.063   0.391   1.429 -0.3846 -0.0434  0.0425
 7123TIP3    H145564   0.072   0.475   1.474  2.1701  0.3792 -1.1137
 7123TIP3    H245565  -0.020   0.399   1.382 -0.0141  2.0194 -0.3680
 7124TIP3   OH245566   0.175   1.827   0.067 -0.0064 -0.2034  0.3317
 7124TIP3    H145567   0.223   1.824   0.150  0.2999 -0.6330  0.1427
 7124TIP3    H245568   0.225   1.888   0.012 -0.7124  0.7840  0.7685
 7125TIP3   OH245569   6.235   1.632   9.014 -0.0599  0.5008  0.5932
 7125TIP3    H145570   6.212   1.598   9.101  1.1740 -3.4447 -0.3999
 7125TIP3    H245571   6.330   1.643   9.018  0.2046 -1.0595 -0.5818
 7126TIP3   OH245572   6.328   3.735   9.625 -0.6939  0.4727 -0.1900
 7126TIP3    H145573   6.293   3.654   9.660  1.9965 -1.3000 -1.2728
 7126TIP3    H245574   6.327   3.723   9.530  0.7464  1.2252 -0.3289
 7127TIP3   OH245575   6.179   5.130   8.477 -0.1452  0.1288 -0.2071
 7127TIP3    H145576   6.182   5.144   8.572 -1.7320  0.6481 -0.2006
 7127TIP3    H245577   6.168   5.035   8.467 -1.6030  0.2318  0.2128
 7128TIP3   OH245578   2.472   0.749   2.046 -0.4680 -0.4834  0.2067
 7128TIP3    H145579   2.467   0.830   2.096 -0.2207 -1.1198  1.2769
 7128TIP3    H245580   2.381   0.728   2.025 -0.6165 -0.4966  0.8600
 7129TIP3   OH245581   2.565   1.966   9.742 -0.2986 -0.2279 -0.5691
 7129TIP3    H145582   2.518   1.888   9.714  2.1303 -1.8147 -0.5302
 7129TIP3    H245583   2.531   1.984   9.830 -0.6105 -1.5177 -0.4029
 7130TIP3   OH245584   4.156   2.616   8.800  0.4010 -1.0035  0.1085
 7130TIP3    H145585   4.076   2.648   8.758 -0.7052 -1.9672  1.3878
 7130TIP3    H245586   4.135   2.527   8.828  2.3555 -1.7685 -0.6200
 7131TIP3   OH245587   0.248   7.280   7.548  0.3234  0.1984 -0.2623
 7131TIP3    H145588   0.199   7.213   7.595 -0.0088  0.7985  0.2592
 7131TIP3    H245589   0.182   7.346   7.526  0.4562 -0.0849 -1.6140
 7132TIP3   OH245590   4.785   6.732   0.378 -0.5619 -0.2755 -0.1534
 7132TIP3    H145591   4.736   6.711   0.298 -1.2759  0.0376  0.1954
 7132TIP3    H245592   4.875   6.742   0.348 -0.9442  0.6205 -1.0574
 7133TIP3   OH245593   4.984   2.527   8.047  0.6178  0.1726  0.2697
 7133TIP3    H145594   4.951   2.483   8.125 -0.1925  1.9719  1.0138
 7133TIP3    H245595   4.965   2.466   7.976 -0.4197 -0.6967  1.2378
 7134TIP3   OH245596   0.958   3.676   1.004 -0.0958  0.4648 -0.0260
 7134TIP3    H145597   0.975   3.595   1.053  1.5464  1.1556  0.6356
 7134TIP3    H245598   0.949   3.647   0.913 -0.9143 -0.5930  0.3656
 7135TIP3   OH245599   4.868   5.772   9.628 -0.0796  0.0681  0.3078
 7135TIP3    H145600   4.787   5.766   9.577  1.8772 -1.4628 -2.9285
 7135TIP3    H245601   4.867   5.695   9.685 -0.7896 -0.0123  0.1908
 7136TIP3   OH245602   0.589   2.506   7.374  0.3184 -0.5213  0.0665
 7136TIP3    H145603   0.558   2.434   7.320  0.7912 -0.2501 -0.5791
 7136TIP3    H245604   0.613   2.574   7.312 -3.6860  1.7607  0.6973
 7137TIP3   OH245605   3.590   3.837   9.280 -0.2023  0.0878  0.1908
 7137TIP3    H145606   3.545   3.756   9.304 -0.3013  0.2142  0.4367
 7137TIP3    H245607   3.636   3.863   9.360 -0.6404  0.5814  0.2915
 7138TIP3   OH245608   0.938   5.356   0.327 -0.1489 -0.3187  0.6722
 7138TIP3    H145609   0.915   5.342   0.235  0.5877 -0.1694  0.4564
 7138TIP3    H245610   0.888   5.290   0.375  1.2878 -2.0159 -0.0629
 7139TIP3   OH245611   2.799   6.522   8.457 -0.0880 -0.0391 -0.3037
 7139TIP3    H145612   2.768   6.474   8.380  0.6597 -0.9849 -0.0326
 7139TIP3    H245613   2.778   6.614   8.438 -0.2220 -0.3003 -1.4866
 7140TIP3   OH245614   1.508   5.970   3.357  0.2705  0.2982  0.2628
 7140TIP3    H145615   1.598   6.001   3.372  0.2706 -0.4314  1.9498
 7140TIP3    H245616   1.491   5.909   3.428 -0.0518 -3.0180 -2.4071
 7141TIP3   OH245617   3.212   5.689   8.396  0.1080  0.2906  0.5103
 7141TIP3    H145618   3.254   5.630   8.333 -2.9455  0.3496 -1.8122
 7141TIP3    H245619   3.181   5.630   8.465 -1.1646 -0.6329 -0.7835
 7142TIP3   OH245620   1.183   7.109   1.360  0.0041 -0.3867 -0.0387
 7142TIP3    H145621   1.196   7.015   1.369 -0.6270 -0.5151 -0.4612
 7142TIP3    H245622   1.091   7.123   1.380 -0.5023 -0.1666 -2.2517
 7143TIP3   OH245623   4.989   4.218   9.637 -0.3161  0.0263  0.3553
 7143TIP3    H145624   4.937   4.146   9.673 -0.0485 -0.0659  0.5599
 7143TIP3    H245625   4.978   4.210   9.542  0.3823 -0.7984  0.3306
 7144TIP3   OH245626   1.947   2.331   7.321  0.3360 -0.5180  0.2595
 7144TIP3    H145627   2.037   2.329   7.355  0.3317  2.9013  0.7828
 7144TIP3    H245628   1.892   2.345   7.399 -0.5359 -1.1690 -0.2213
 7145TIP3   OH245629   4.240   3.340   8.943  0.1337 -0.7752 -0.3497
 7145TIP3    H145630   4.262   3.255   8.907 -0.9009 -1.1801 -0.0711
 7145TIP3    H245631   4.246   3.328   9.038 -1.6545 -1.0558 -0.2254
 7146TIP3   OH245632   2.348   6.835   6.771 -0.0552  0.1645  0.5080
 7146TIP3    H145633   2.255   6.834   6.748  0.4565 -1.9281 -1.9965
 7146TIP3    H245634   2.380   6.919   6.739 -0.9079  0.5084  0.5388
 7147TIP3   OH245635   4.716   2.824   0.238  0.7146  0.1074  0.2752
 7147TIP3    H145636   4.782   2.755   0.246  0.9419  0.3697  0.6831
 7147TIP3    H245637   4.637   2.786   0.275  0.4289 -0.4718 -0.8798
 7148TIP3   OH245638   6.604   4.743   1.669  0.1783 -0.2543  0.0472
 7148TIP3    H145639   6.515   4.735   1.702  0.2602 -3.4517 -0.1577
 7148TIP3    H245640   6.649   4.797   1.734 -1.6242  0.5281  0.7143
 7149TIP3   OH245641   4.089   6.379   0.157  0.4520 -0.1512 -0.1109
 7149TIP3    H145642   4.042   6.296   0.149  0.0224  0.1376 -0.6596
 7149TIP3    H245643   4.027   6.438   0.199  0.9390 -0.2442  0.7593
 7150TIP3   OH245644   1.068   2.683   0.178 -0.3959 -0.2059  0.7345
 7150TIP3    H145645   1.061   2.774   0.206 -0.3420 -0.7746  2.7734
 7150TIP3    H245646   1.063   2.632   0.259  1.6592 -1.9349 -0.1065
 7151TIP3   OH245647   1.161   2.539   8.024  0.0869  0.0734 -0.4042
 7151TIP3    H145648   1.076   2.531   8.067  0.0187 -1.2991 -0.7368
 7151TIP3    H245649   1.213   2.592   8.084 -0.5175 -0.3956  0.5708
 7152TIP3   OH245650   6.642   2.118   0.257 -0.0573 -0.0055  0.2538
 7152TIP3    H145651   6.615   2.027   0.273  2.7262 -0.8424  0.7445
 7152TIP3    H245652   6.720   2.110   0.202 -1.1213  2.2557 -1.7483
 7153TIP3   OH245653   0.120   0.680   0.388 -0.2693  0.3607  0.0192
 7153TIP3    H145654   0.171   0.747   0.342  3.1062 -1.6164  0.5711
 7153TIP3    H245655   0.124   0.604   0.330  0.6547 -0.9629  1.7307
 7154TIP3   OH245656   3.491   5.904   9.148 -0.5489  0.1284  0.1441
 7154TIP3    H145657   3.544   5.885   9.070 -0.6260  0.7208 -0.0539
 7154TIP3    H245658   3.431   5.830   9.154 -1.4747  0.7381 -1.1649
 7155TIP3   OH245659   6.213   4.332   9.655 -0.9591  0.5369 -0.2699
 7155TIP3    H145660   6.273   4.406   9.652 -1.2972  0.9982  2.1101
 7155TIP3    H245661   6.174   4.337   9.742 -1.8539 -1.7840 -0.4724
 7156TIP3   OH245662   2.402   5.864   7.628 -0.2961 -0.0601  0.2549
 7156TIP3    H145663   2.435   5.780   7.662 -0.2306 -0.6236 -1.1387
 7156TIP3    H245664   2.321   5.879   7.676  0.2286 -0.3680  1.2820
 7157TIP3   OH245665   3.223   7.023   0.971 -0.5037 -0.2917  0.4989
 7157TIP3    H145666   3.308   7.030   0.927 -0.4958  0.4809  0.6162
 7157TIP3    H245667   3.160   7.017   0.899 -0.7039  3.2530  0.2145
 7158TIP3   OH245668   5.267   1.431   8.613  0.4241 -0.0993 -0.2263
 7158TIP3    H145669   5.282   1.337   8.605  1.2631  0.0034  0.0587
 7158TIP3    H245670   5.283   1.465   8.525  1.1171 -0.1026 -0.1118
 7159TIP3   OH245671   0.441   6.881   1.702 -0.2837  0.2646 -0.3256
 7159TIP3    H145672   0.524   6.926   1.684  0.5176 -0.8900  0.2837
 7159TIP3    H245673   0.414   6.846   1.617 -0.9823  1.9534 -0.8241
 7160TIP3   OH245674   6.055   5.866   7.740 -0.2203  0.4371  0.3042
 7160TIP3    H145675   6.053   5.770   7.736 -0.6379  0.4552 -0.0667
 7160TIP3    H245676   6.118   5.886   7.809  0.6707 -0.0882 -0.3398
 7161TIP3   OH245677   3.944   0.130   0.290  0.1487  0.2319  0.6055
 7161TIP3    H145678   3.967   0.219   0.316  0.6787  1.0964 -2.3670
 7161TIP3    H245679   3.875   0.142   0.224  0.4850 -1.5177 -0.1243
 7162TIP3   OH245680   0.997   0.207   9.493 -0.1692 -0.5231  0.0653
 7162TIP3    H145681   1.032   0.119   9.481  1.3476  0.2555 -1.6306
 7162TIP3    H245682   0.904   0.199   9.470 -0.3993 -1.9304  1.3298
 7163TIP3   OH245683   3.068   3.436   2.216 -0.1586 -0.1870 -0.4109
 7163TIP3    H145684   2.994   3.455   2.273  0.0347 -0.7167  0.0260
 7163TIP3    H245685   3.104   3.354   2.250  1.2769  0.6049  0.0656
 7164TIP3   OH245686   3.840   0.646   7.980  0.0508  0.0412 -0.3208
 7164TIP3    H145687   3.784   0.619   8.052  0.9208  0.4360  0.5196
 7164TIP3    H245688   3.785   0.702   7.925 -1.3493 -2.1829 -1.3097
 7165TIP3   OH245689   1.894   2.895   2.886  0.3700 -0.5006 -0.5546
 7165TIP3    H145690   1.837   2.924   2.958  1.5829  1.0124 -0.1342
 7165TIP3    H245691   1.964   2.847   2.929  0.6246 -0.3577 -0.8023
 7166TIP3   OH245692   2.232   7.334   2.211 -0.3083 -0.1354 -0.2946
 7166TIP3    H145693   2.294   7.261   2.211 -1.0646 -0.8147  1.0533
 7166TIP3    H245694   2.148   7.295   2.189 -0.5750  0.4831 -0.4175
 7167TIP3   OH245695   1.675   3.314   7.681 -0.0593 -0.5175  0.6934
 7167TIP3    H145696   1.688   3.310   7.586  0.4665 -2.3326  0.8007
 7167TIP3    H245697   1.660   3.407   7.699 -1.1688 -0.2599 -1.2770
 7168TIP3   OH245698   2.684   4.430   2.922 -0.1666 -0.1594  0.2331
 7168TIP3    H145699   2.706   4.470   2.838 -1.1494 -0.9736 -0.4261
 7168TIP3    H245700   2.626   4.493   2.964 -1.1624 -0.5592 -0.5084
 7169TIP3   OH245701   1.487   3.495   0.015  0.0918  0.6484  0.0732
 7169TIP3    H145702   1.526   3.449   0.089  0.0236  0.7011  0.1428
 7169TIP3    H245703   1.397   3.514   0.043 -0.7249 -1.4460 -0.9381
 7170TIP3   OH245704   0.076   4.814   1.775 -0.0777  0.5855 -0.5915
 7170TIP3    H145705  -0.003   4.780   1.819  0.4204 -1.9870 -1.5201
 7170TIP3    H245706   0.051   4.902   1.746 -1.6631  0.9105  1.5136
 7171TIP3   OH245707   3.217   5.667   9.184  0.1352  0.5845  0.0521
 7171TIP3    H145708   3.226   5.666   9.088  0.9941 -0.2147  0.1279
 7171TIP3    H245709   3.149   5.732   9.201 -0.3833  0.3713 -1.1281
 7172TIP3   OH245710   1.087   2.374   1.671 -0.3792 -0.3664 -0.4449
 7172TIP3    H145711   1.002   2.346   1.705 -0.6706 -1.2545 -1.8410
 7172TIP3    H245712   1.071   2.462   1.639 -0.1259  0.4564  1.5060
 7173TIP3   OH245713   3.142   3.069   0.858  0.0401  0.3287  0.1574
 7173TIP3    H145714   3.078   3.118   0.910  0.6878  0.6822  0.6422
 7173TIP3    H245715   3.134   2.978   0.889  0.0747  0.4501  0.5238
 7174TIP3   OH245716   0.829   0.113   7.647 -0.5140  0.1952  0.6385
 7174TIP3    H145717   0.825   0.113   7.743 -2.0210  1.8756  0.6299
 7174TIP3    H245718   0.739   0.099   7.620  0.1463 -2.1493 -0.6225
 7175TIP3   OH245719   6.449   6.438   1.505  0.0006 -0.0925 -0.1322
 7175TIP3    H145720   6.441   6.449   1.599 -0.4234 -1.2334 -0.0217
 7175TIP3    H245721   6.501   6.358   1.494  2.0226  1.2411 -0.8834
 7176TIP3   OH245722   1.599   5.602   9.615  0.1458 -0.0912 -0.1128
 7176TIP3    H145723   1.661   5.664   9.653  0.4793 -0.3869 -0.1618
 7176TIP3    H245724   1.620   5.601   9.521  0.5655 -0.7342 -0.0230
 7177TIP3   OH245725   4.554   5.383   7.895  0.5368  0.3020  0.0463
 7177TIP3    H145726   4.509   5.300   7.879 -0.4134  1.0816 -1.5434
 7177TIP3    H245727   4.523   5.410   7.981 -1.1917  0.2435 -0.5167
 7178TIP3   OH245728   1.203   6.985   0.511  0.4520  0.0281  0.1820
 7178TIP3    H145729   1.262   7.012   0.440  1.1890 -1.1873  0.3057
 7178TIP3    H245730   1.242   7.022   0.590  0.5866 -0.0644  0.1598
 7179TIP3   OH245731   0.209   5.890   8.445  0.4302 -0.3869  0.3924
 7179TIP3    H145732   0.278   5.829   8.472  2.3888  0.3986 -2.3349
 7179TIP3    H245733   0.206   5.955   8.515  2.6415 -0.3578  0.5307
 7180TIP3   OH245734   0.590   7.241   1.325  0.2154  0.0408  0.6363
 7180TIP3    H145735   0.596   7.332   1.354  0.1524 -0.1214  1.1750
 7180TIP3    H245736   0.516   7.239   1.265  0.2175  0.3428  0.6235
 7181TIP3   OH245737   7.011   4.151   0.510 -0.0120  0.2906  0.9262
 7181TIP3    H145738   6.967   4.154   0.595 -0.9524 -2.5383  0.6486
 7181TIP3    H245739   7.005   4.059   0.483 -0.6470  1.2075 -2.6501
 7182TIP3   OH245740   0.512   6.608   8.383  0.7041  0.3293  0.1485
 7182TIP3    H145741   0.437   6.664   8.404  1.7744  1.7123  0.4301
 7182TIP3    H245742   0.587   6.667   8.388  1.6080 -0.4928 -2.3532
 7183TIP3   OH245743   7.009   4.181   9.571 -0.3806 -0.0384  0.1297
 7183TIP3    H145744   6.988   4.273   9.556  0.7334  0.2993  0.5658
 7183TIP3    H245745   7.060   4.181   9.652  0.4423 -0.9327 -0.3680
 7184TIP3   OH245746   1.787   6.146   0.356 -0.3324  0.5366 -1.0021
 7184TIP3    H145747   1.698   6.181   0.352 -0.9461 -0.5718  1.3989
 7184TIP3    H245748   1.806   6.138   0.449  1.4803 -1.2765 -1.4474
 7185TIP3   OH245749   1.661   0.119   0.256 -0.1643  0.6855 -0.1826
 7185TIP3    H145750   1.694   0.162   0.177 -1.3998  1.9636 -0.0479
 7185TIP3    H245751   1.665   0.186   0.324  0.5766 -0.3001  0.7897
 7186TIP3   OH245752   3.475   0.200   9.769  0.1794  0.1651 -0.9727
 7186TIP3    H145753   3.450   0.231   9.856 -0.2513  0.0284 -1.0462
 7186TIP3    H245754   3.544   0.136   9.785  1.0768  1.1502 -0.8173
 7187TIP3   OH245755   4.928   0.014   2.642 -0.0199 -0.3282 -0.0837
 7187TIP3    H145756   4.996   0.045   2.583 -1.7318  2.3824 -0.7604
 7187TIP3    H245757   4.932   0.074   2.717 -2.5047  0.7937 -0.7742
 7188TIP3   OH245758   2.418   6.015   6.237 -0.4133 -0.2626 -0.1593
 7188TIP3    H145759   2.325   5.999   6.248 -0.8831  2.3348  0.3000
 7188TIP3    H245760   2.447   5.949   6.174 -2.4042 -1.4610  0.0986
 7189TIP3   OH245761   1.815   1.914   9.349  0.0633 -0.5504 -0.4156
 7189TIP3    H145762   1.885   1.889   9.289  0.6603 -1.0693  0.4859
 7189TIP3    H245763   1.738   1.924   9.292  0.8357 -0.0127 -1.4090
 7190TIP3   OH245764   5.426   0.136   2.408  0.3883  0.8942  0.7346
 7190TIP3    H145765   5.428   0.204   2.341 -2.2439  1.4979  1.1680
 7190TIP3    H245766   5.516   0.103   2.412  0.9680  1.9279 -1.9405
 7191TIP3   OH245767   1.317   2.742   2.410  0.1666  0.3941  1.0553
 7191TIP3    H145768   1.333   2.671   2.348 -2.9224  0.4385  0.0666
 7191TIP3    H245769   1.396   2.796   2.405  0.4758 -0.1382 -2.1350
 7192TIP3   OH245770   3.849   4.936   0.980  0.5187 -0.2215  0.2442
 7192TIP3    H145771   3.847   4.961   0.887 -0.0699 -1.6100 -0.1622
 7192TIP3    H245772   3.800   4.853   0.982  0.8469 -0.3953  1.7450
 7193TIP3   OH245773   2.463   2.611   0.482 -0.3543  0.2367 -0.0832
 7193TIP3    H145774   2.445   2.565   0.400  1.6529 -1.2983  0.2771
 7193TIP3    H245775   2.435   2.550   0.550  3.3127 -1.1089  0.4280
 7194TIP3   OH245776   4.486   2.195   0.559  0.0651  0.0491 -0.5774
 7194TIP3    H145777   4.405   2.158   0.522 -1.4794  0.0157  2.5182
 7194TIP3    H245778   4.519   2.127   0.617  0.4688  1.2715  0.6887
 7195TIP3   OH245779   4.855   4.299   8.965 -0.1816  0.7663  0.2947
 7195TIP3    H145780   4.825   4.376   8.917  0.3635  1.5244  1.1347
 7195TIP3    H245781   4.865   4.232   8.898 -1.3520  1.2097 -0.3492
 7196TIP3   OH245782   6.588   0.113   1.044  0.0046  0.0573 -0.6730
 7196TIP3    H145783   6.563   0.036   0.992  0.8139 -0.9334  0.3734
 7196TIP3    H245784   6.682   0.123   1.028  0.3500 -0.4949  0.8586
 7197TIP3   OH245785   1.552   6.832   0.880 -0.3970 -0.0835  0.0578
 7197TIP3    H145786   1.556   6.756   0.938 -1.2174 -0.0497  0.1742
 7197TIP3    H245787   1.578   6.797   0.794 -0.4033 -0.4091  0.1860
 7198TIP3   OH245788   4.609   5.708   9.550 -0.1936 -0.1988 -0.0834
 7198TIP3    H145789   4.533   5.766   9.553 -0.7358 -0.6634 -2.7912
 7198TIP3    H245790   4.573   5.620   9.563 -0.1611 -0.4173 -1.3485
 7199TIP3   OH245791   6.270   5.507   8.485 -0.3061 -0.1273 -0.3157
 7199TIP3    H145792   6.230   5.454   8.416 -0.7830 -0.8436  0.4913
 7199TIP3    H245793   6.329   5.566   8.439 -0.6315 -0.5818 -1.3365
 7200TIP3   OH245794   0.881   7.375   8.240  0.1042  0.1091  0.4555
 7200TIP3    H145795   0.882   7.310   8.170 -0.1914 -0.4188  0.9283
 7200TIP3    H245796   0.867   7.324   8.320  1.5032  0.5688  1.0373
 7201TIP3   OH245797   4.234   1.207   8.455  0.0662 -0.1202 -0.4319
 7201TIP3    H145798   4.262   1.126   8.412  0.0046  0.4731 -1.6213
 7201TIP3    H245799   4.154   1.184   8.501 -0.0051 -0.7244 -0.8468
 7202TIP3   OH245800   7.319   3.244   2.359  0.0850 -0.6725 -0.5176
 7202TIP3    H145801   7.269   3.297   2.421 -0.3132  0.6634 -1.9198
 7202TIP3    H245802   7.402   3.291   2.350 -0.7289  0.4667 -2.6923
 7203TIP3   OH245803   5.691   0.510   8.811  0.9286 -0.0245 -0.6315
 7203TIP3    H145804   5.761   0.558   8.767  0.7770  1.1524  0.3400
 7203TIP3    H245805   5.736   0.461   8.880  0.7327  1.4692  0.6000
 7204TIP3   OH245806   0.766   3.196   2.182  0.5447  0.6107  0.1984
 7204TIP3    H145807   0.699   3.209   2.115  0.1625  0.7418  0.6032
 7204TIP3    H245808   0.724   3.139   2.246  0.6822  1.0210  0.6553
 7205TIP3   OH245809   3.997   2.538   7.338  0.1167  0.0032  0.1360
 7205TIP3    H145810   3.984   2.560   7.246  1.1343  2.5593  0.5337
 7205TIP3    H245811   4.005   2.443   7.338  0.6275 -0.0438 -2.4944
 7206TIP3   OH245812   4.166   2.709   8.059  0.5299 -0.0452  0.2791
 7206TIP3    H145813   4.089   2.654   8.047  0.7280  0.2527 -3.3835
 7206TIP3    H245814   4.235   2.665   8.010  1.8160  1.3711  0.7372
 7207TIP3   OH245815   0.288   2.071   1.480  0.1927  0.3133 -0.2060
 7207TIP3    H145816   0.209   2.117   1.510 -0.2855 -0.3264 -0.4727
 7207TIP3    H245817   0.265   2.037   1.394 -0.1875 -2.1588  0.8046
 7208TIP3   OH245818   3.049   2.143   8.829  0.1139 -0.3343 -0.1076
 7208TIP3    H145819   3.068   2.158   8.922 -0.6518 -2.6792  0.4832
 7208TIP3    H245820   3.077   2.053   8.813 -0.8842 -0.3791 -1.8455
 7209TIP3   OH245821   6.824   4.005   8.026 -0.2456 -0.5642  0.1357
 7209TIP3    H145822   6.775   4.086   8.010  0.4320 -0.3237 -0.7711
 7209TIP3    H245823   6.756   3.938   8.031 -0.7213 -0.1507 -0.5461
 7210TIP3   OH245824   6.950   0.405   9.338 -0.4813 -0.1516  0.1092
 7210TIP3    H145825   6.956   0.440   9.427 -1.0352  0.2716 -0.0200
 7210TIP3    H245826   6.998   0.468   9.284 -1.2773  0.2844 -0.0886
 7211TIP3   OH245827   2.057   6.559   8.275 -0.2143 -0.1852  0.0089
 7211TIP3    H145828   2.052   6.522   8.187  4.0439  0.9327 -0.9295
 7211TIP3    H245829   1.986   6.623   8.278  0.6166  1.1225 -3.3855
 7212TIP3   OH245830   6.401   2.980   9.240 -0.1650 -0.2534  0.5580
 7212TIP3    H145831   6.339   2.985   9.313  1.0935 -0.8289  1.7194
 7212TIP3    H245832   6.348   2.952   9.165 -1.6966  1.3285  0.9649
 7213TIP3   OH245833   2.615   0.101   6.563 -0.2787  0.6517  0.6233
 7213TIP3    H145834   2.548   0.165   6.539 -1.6431 -0.7098  0.6162
 7213TIP3    H245835   2.640   0.124   6.652 -1.6537  0.4913  1.0765
 7214TIP3   OH245836   2.490   6.684   7.793  0.8938  0.4155 -0.1731
 7214TIP3    H145837   2.509   6.624   7.721  2.0131  1.1018 -0.4804
 7214TIP3    H245838   2.573   6.695   7.838  0.3745  0.6101  0.7560
 7215TIP3   OH245839   6.488   0.860   8.536 -0.3999 -0.1294  0.0999
 7215TIP3    H145840   6.478   0.802   8.611 -2.8531 -3.5571 -2.5758
 7215TIP3    H245841   6.578   0.847   8.506  0.0941  0.0744  1.4338
 7216TIP3   OH245842   1.887   5.712   7.896  0.3504  0.5400 -0.1487
 7216TIP3    H145843   1.818   5.695   7.832  1.9914 -0.9706 -1.6194
 7216TIP3    H245844   1.873   5.646   7.964  0.9270 -0.4939 -0.9913
 7217TIP3   OH245845   7.078   2.712   8.836  0.0265  0.3930 -0.7872
 7217TIP3    H145846   7.103   2.746   8.922 -0.0250 -1.7518  0.1643
 7217TIP3    H245847   6.983   2.697   8.843 -0.4231  2.3797 -2.0769
 7218TIP3   OH245848   1.459   2.725   7.228 -0.3975 -0.3126 -0.0374
 7218TIP3    H145849   1.501   2.808   7.252 -2.0140  0.6622 -0.4432
 7218TIP3    H245850   1.405   2.747   7.152 -2.7815 -1.1390  1.3057
 7219TIP3   OH245851   5.936   6.635   0.873 -0.5030  0.6299 -0.6788
 7219TIP3    H145852   5.905   6.590   0.794  0.7918  0.4732 -1.1242
 7219TIP3    H245853   5.968   6.720   0.841 -2.4433  1.7047  0.0770
 7220TIP3   OH245854   0.650   6.455   1.025  0.2810  0.8359  0.3820
 7220TIP3    H145855   0.665   6.378   1.079  1.8042  1.1549  0.4539
 7220TIP3    H245856   0.555   6.457   1.011  0.2437 -1.2095  0.1194
 7221TIP3   OH245857   0.090   0.732   0.661 -0.2351  0.3646 -0.0091
 7221TIP3    H145858   0.122   0.818   0.690  0.1903 -0.1483  1.1318
 7221TIP3    H245859   0.119   0.725   0.570  0.9431  0.8701  0.3062
 7222TIP3   OH245860   0.206   0.256   7.832 -0.0163  0.1399 -0.5392
 7222TIP3    H145861   0.193   0.301   7.749 -0.7852  0.1472 -0.4246
 7222TIP3    H245862   0.269   0.310   7.879 -0.4738  0.7797 -0.6467
 7223TIP3   OH245863   4.569   5.884   2.095  0.3192 -0.0905 -0.7520
 7223TIP3    H145864   4.626   5.957   2.073  0.6980 -0.7776 -2.1080
 7223TIP3    H245865   4.618   5.834   2.160  0.5704  0.1870 -0.7255
 7224TIP3   OH245866   0.666   0.810   9.720  1.0338  0.2408  0.2090
 7224TIP3    H145867   0.664   0.719   9.690  0.1828  0.0830  0.7297
 7224TIP3    H245868   0.737   0.849   9.670  0.7556 -0.4520 -0.7671
 7225TIP3   OH245869   2.378   2.093   7.759 -0.2858 -0.1390  0.0580
 7225TIP3    H145870   2.364   2.004   7.727 -1.3443 -0.1387  0.4610
 7225TIP3    H245871   2.290   2.126   7.776  0.1426  0.6528  0.8185
 7226TIP3   OH245872   1.181   5.262   2.519  0.3085  0.0535 -0.2179
 7226TIP3    H145873   1.128   5.183   2.527  0.8439 -0.3368 -0.4666
 7226TIP3    H245874   1.269   5.234   2.544  0.2015  0.9483  1.3098
 7227TIP3   OH245875   5.978   2.466   8.486  0.3011 -0.1312 -0.6340
 7227TIP3    H145876   6.041   2.525   8.444 -0.3119 -0.1915 -1.6878
 7227TIP3    H245877   6.011   2.454   8.574  1.2667  0.5737 -0.8837
 7228TIP3   OH245878   3.514   2.576   1.803 -0.1009 -0.3843  0.0701
 7228TIP3    H145879   3.427   2.614   1.813  0.0744 -0.0727  0.5089
 7228TIP3    H245880   3.538   2.592   1.712 -1.0861 -1.7741 -0.4632
 7229TIP3   OH245881   7.178   7.205   9.487 -0.5216  0.1713  0.3385
 7229TIP3    H145882   7.145   7.132   9.435  1.0933  1.3696 -2.6227
 7229TIP3    H245883   7.271   7.185   9.499  0.0387  1.8761 -0.8969
 7230TIP3   OH245884   6.345   0.158   8.515 -0.2398 -0.6259  0.0083
 7230TIP3    H145885   6.254   0.133   8.496 -0.7252  0.7694  0.3442
 7230TIP3    H245886   6.337   0.236   8.570  1.1615 -1.9733  2.2904
 7231TIP3   OH245887   0.429   2.952   0.490 -0.0463 -0.0696 -0.3658
 7231TIP3    H145888   0.428   2.870   0.538  2.2272  0.8142  1.3717
 7231TIP3    H245889   0.379   3.013   0.545 -1.4282 -0.1302 -1.4751
 7232TIP3   OH245890   3.149   2.004   2.290 -0.2620 -0.0784  0.2179
 7232TIP3    H145891   3.241   2.013   2.265 -0.4842  0.9888 -0.2640
 7232TIP3    H245892   3.136   2.069   2.359 -0.8703  0.4052 -0.3406
 7233TIP3   OH245893   3.623   3.704   1.308  0.0767  0.8685  0.3251
 7233TIP3    H145894   3.644   3.640   1.240 -0.7553  1.3943 -0.4605
 7233TIP3    H245895   3.628   3.656   1.390 -0.4619 -0.1893 -0.2422
 7234TIP3   OH245896   2.798   0.460   0.798 -0.3358  0.5127 -0.5954
 7234TIP3    H145897   2.832   0.511   0.871 -0.3813 -0.1302 -0.1255
 7234TIP3    H245898   2.872   0.410   0.766 -0.7778 -0.7550  0.3185
 7235TIP3   OH245899   2.704   0.628   2.006  0.0334  0.2138 -0.1483
 7235TIP3    H145900   2.622   0.668   2.037  0.0728  0.5440 -0.4624
 7235TIP3    H245901   2.712   0.657   1.915  1.8595  2.4408  0.6240
 7236TIP3   OH245902   6.661   4.441   9.051  0.0984 -0.4360 -0.2800
 7236TIP3    H145903   6.637   4.465   8.961 -0.8419  1.3361  0.3924
 7236TIP3    H245904   6.581   4.458   9.101  0.9941 -0.1664  1.0869
 7237TIP3   OH245905   3.568   2.287   0.897 -0.7500 -0.0955 -0.1718
 7237TIP3    H145906   3.652   2.294   0.850 -0.7572  1.3236 -0.0090
 7237TIP3    H245907   3.519   2.221   0.848  0.5617 -1.1916 -0.0881
 7238TIP3   OH245908   5.361   1.624   8.080  0.5947 -0.0808 -0.0344
 7238TIP3    H145909   5.405   1.661   8.004 -1.5836 -0.0676 -1.3608
 7238TIP3    H245910   5.346   1.533   8.057  0.5519 -0.2562  0.6781
 7239TIP3   OH245911   3.020   5.962   3.231 -0.0659  0.3949 -0.1972
 7239TIP3    H145912   3.011   5.944   3.138  0.0920 -1.4485  0.1112
 7239TIP3    H245913   3.113   5.947   3.250 -0.3917 -0.8483  0.5360
 7240TIP3   OH245914   2.304   1.216   7.519  0.4747  0.0725 -0.2753
 7240TIP3    H145915   2.235   1.228   7.454  1.5503 -0.7600 -1.6302
 7240TIP3    H245916   2.359   1.145   7.483  1.3768 -0.0775  1.3089
 7241TIP3   OH245917   4.974   3.842   8.986  0.6991 -0.9535 -0.1877
 7241TIP3    H145918   5.041   3.906   9.007 -0.7547  0.0515  1.6635
 7241TIP3    H245919   5.011   3.758   9.014  1.4551 -0.5139  0.1582
 7242TIP3   OH245920   2.632   0.002   1.959 -0.5017 -0.2760  0.0981
 7242TIP3    H145921   2.576   0.054   1.901 -0.9322 -0.8724 -0.0278
 7242TIP3    H245922   2.705  -0.026   1.903 -1.5082 -1.8372 -0.5027
 7243TIP3   OH245923   2.581   5.850   1.940  0.1494 -0.9085  0.2875
 7243TIP3    H145924   2.579   5.773   1.883  2.9856 -0.3897 -0.7157
 7243TIP3    H245925   2.531   5.916   1.893 -0.4802 -1.4958  0.1116
 7244TIP3   OH245926   1.580   3.740   8.146 -0.2215  0.3869 -0.2881
 7244TIP3    H145927   1.518   3.675   8.113 -0.8960  0.3276  1.0652
 7244TIP3    H245928   1.660   3.723   8.096 -1.0261 -0.0745 -1.4700
 7245TIP3   OH245929   2.490   3.963   9.972  0.0154  0.6038  0.0291
 7245TIP3    H145930   2.402   3.979  10.004 -0.6418 -0.1142 -1.3529
 7245TIP3    H245931   2.530   3.906  10.039 -1.9391 -2.4387 -1.1633
 7246TIP3   OH245932   3.757   3.402   8.196  0.2397  0.4944 -0.3687
 7246TIP3    H145933   3.742   3.367   8.108  1.0330  0.6767 -0.5862
 7246TIP3    H245934   3.849   3.428   8.196  0.4659 -0.2355  0.7847
 7247TIP3   OH245935   2.286   0.089   8.532  0.2096  0.2864 -0.5069
 7247TIP3    H145936   2.256   0.179   8.543 -1.4131 -0.3069  0.1497
 7247TIP3    H245937   2.263   0.046   8.614  0.7447 -0.7990 -0.9076
 7248TIP3   OH245938   2.511   4.952   0.132  0.4618 -0.2751 -0.3262
 7248TIP3    H145939   2.566   5.031   0.136  0.7349 -0.5015  1.7834
 7248TIP3    H245940   2.573   4.880   0.138  0.2731 -0.7308 -3.0114
 7249TIP3   OH245941   4.330   1.286   1.046  0.0456 -0.2607 -0.3814
 7249TIP3    H145942   4.359   1.251   0.962 -0.1705  1.0940 -1.0439
 7249TIP3    H245943   4.327   1.381   1.033 -0.7359 -0.0825  0.9223
 7250TIP3   OH245944   2.931   4.479   9.849 -0.3223  0.5276 -0.3645
 7250TIP3    H145945   2.840   4.471   9.877 -0.4087 -0.1356 -0.8255
 7250TIP3    H245946   2.974   4.526   9.921 -1.3530  2.3104 -0.8595
 7251TIP3   OH245947   3.822   4.629   0.674 -0.2122 -0.4024  0.4415
 7251TIP3    H145948   3.889   4.609   0.608  0.1892  0.8290  0.4568
 7251TIP3    H245949   3.793   4.718   0.652 -2.6030 -1.2570 -0.1983
 7252TIP3   OH245950   1.863   5.234   1.856 -0.3606  0.2572 -0.8489
 7252TIP3    H145951   1.841   5.211   1.766 -0.8375  1.0758 -0.9464
 7252TIP3    H245952   1.900   5.153   1.893  0.7225  0.1784 -2.0428
 7253TIP3   OH245953   7.323   1.843   1.791 -0.5605  0.0016 -0.5252
 7253TIP3    H145954   7.353   1.835   1.881 -2.8479 -0.3128  0.2793
 7253TIP3    H245955   7.400   1.821   1.738  0.3432 -1.7913  1.3697
 7254TIP3   OH245956   3.045   3.156   9.714  0.2308  0.2029  0.4256
 7254TIP3    H145957   3.025   3.180   9.805 -0.8027 -1.1558  0.5896
 7254TIP3    H245958   2.985   3.084   9.694  0.4717  0.4462 -1.3379
 7255TIP3   OH245959   4.373   3.542   1.937 -0.0791 -0.2369 -0.3719
 7255TIP3    H145960   4.337   3.473   1.883 -1.5885 -1.8485  2.4473
 7255TIP3    H245961   4.301   3.605   1.948 -0.3011 -0.6717  0.8542
 7256TIP3   OH245962   4.384   2.941   9.981  0.0670 -0.5082  0.3092
 7256TIP3    H145963   4.362   3.009   9.917  0.5757  0.7953  1.4577
 7256TIP3    H245964   4.321   2.871   9.964  1.5397 -1.1981 -3.0032
 7257TIP3   OH245965   0.113   4.965   6.957 -0.5550 -0.5034 -0.8737
 7257TIP3    H145966   0.177   4.927   6.897 -0.2903 -1.7327  0.1306
 7257TIP3    H245967   0.028   4.952   6.913 -0.3315 -1.0586 -1.1534
 7258TIP3   OH245968   5.844   4.405   0.022  0.0183  0.2084 -0.3582
 7258TIP3    H145969   5.835   4.341   0.093 -0.4455 -0.6176 -1.1372
 7258TIP3    H245970   5.876   4.484   0.065 -1.3316  0.0886  0.9762
 7259TIP3   OH245971   7.266   5.640   9.052  0.5729  0.0835 -0.6705
 7259TIP3    H145972   7.358   5.637   9.024  0.6212 -1.1387 -0.4633
 7259TIP3    H245973   7.241   5.548   9.060  0.2274  0.3297  2.1920
 7260TIP3   OH245974   1.270   3.603   9.738  0.0103  0.1828  0.2614
 7260TIP3    H145975   1.267   3.516   9.700 -0.0047  0.6359 -0.8218
 7260TIP3    H245976   1.239   3.661   9.668  1.5148  1.2290  0.4037
 7261TIP3   OH245977   1.430   6.906   8.179 -0.7747 -0.6179 -0.2313
 7261TIP3    H145978   1.499   6.972   8.191 -1.6256  0.4088 -0.8085
 7261TIP3    H245979   1.477   6.826   8.156  0.2494 -0.0476 -0.1803
 7262TIP3   OH245980   5.837   4.361   1.005 -0.2689 -0.6573 -0.5070
 7262TIP3    H145981   5.874   4.354   0.918 -0.9264 -0.5779 -0.7974
 7262TIP3    H245982   5.913   4.355   1.064  0.2372 -0.1600 -1.0948
 7263TIP3   OH245983   1.143   3.926   6.580 -0.1695 -0.7404 -0.1580
 7263TIP3    H145984   1.162   3.937   6.487  2.0478  2.9889  0.5257
 7263TIP3    H245985   1.077   3.993   6.598  0.7255 -0.1824  1.2043
 7264TIP3   OH245986   3.469   4.153   1.605  0.3479 -0.3149 -0.3733
 7264TIP3    H145987   3.395   4.189   1.655 -0.0430 -2.0528  0.3569
 7264TIP3    H245988   3.542   4.211   1.627 -0.4217  0.4966  0.1488
 7265TIP3   OH245989   5.897   6.173   7.438  0.3386 -0.4431 -0.0544
 7265TIP3    H145990   5.874   6.265   7.428  2.0586  0.3534  2.3909
 7265TIP3    H245991   5.834   6.126   7.384 -1.9299  2.0148  0.2924
 7266TIP3   OH245992   2.381   6.203   7.490 -0.2608  0.5160  0.7803
 7266TIP3    H145993   2.445   6.187   7.559  0.4099  2.3565  0.6297
 7266TIP3    H245994   2.297   6.206   7.537  0.1700  1.6135  1.5429
 7267TIP3   OH245995   2.324   4.050   1.855  0.1107 -0.1334  0.2351
 7267TIP3    H145996   2.315   3.984   1.924  2.2056 -0.0371  0.6738
 7267TIP3    H245997   2.237   4.056   1.815 -1.1537 -0.2627  2.7784
 7268TIP3   OH245998   2.273   1.682   2.758 -0.0753  0.0991 -0.2990
 7268TIP3    H145999   2.282   1.706   2.666 -0.4063  0.3726 -0.2610
 7268TIP3    H246000   2.194   1.629   2.761 -0.3023  0.4494 -0.1017
 7269TIP3   OH246001   1.786   4.916   1.152  0.2942  0.5801  0.7519
 7269TIP3    H146002   1.763   4.824   1.163  1.2385 -0.0517 -1.8708
 7269TIP3    H246003   1.711   4.954   1.107  1.3460  0.1703 -1.4629
 7270TIP3   OH246004   3.703   7.302   6.674  0.3745 -0.2950 -0.2455
 7270TIP3    H146005   3.791   7.331   6.699  0.1983  0.6062 -0.6339
 7270TIP3    H246006   3.663   7.273   6.755  0.3768  1.0632  0.2664
 7271TIP3   OH246007   5.420   2.967   9.300  0.7690 -0.5131  0.0066
 7271TIP3    H146008   5.438   2.953   9.393  2.1797  1.6406  0.1313
 7271TIP3    H246009   5.502   2.945   9.256  0.4644 -0.4257 -0.6223
 7272TIP3   OH246010   2.245   4.662   6.965 -0.2743 -0.7681  0.5245
 7272TIP3    H146011   2.316   4.718   6.996 -1.4430  1.2686 -0.2484
 7272TIP3    H246012   2.286   4.602   6.903  0.5300  1.8813 -1.7196
 7273TIP3   OH246013   0.225   6.394   0.308 -0.3055 -0.4238 -0.0035
 7273TIP3    H146014   0.176   6.381   0.227  0.6266  1.1416 -0.8747
 7273TIP3    H246015   0.253   6.306   0.334 -0.7063 -0.9619 -1.3335
 7274TIP3   OH246016   3.759   2.189   7.425  0.8011  0.1880  0.1099
 7274TIP3    H146017   3.764   2.248   7.500  1.4754 -0.4234  0.5628
 7274TIP3    H246018   3.850   2.167   7.406  0.5885 -0.2663 -0.4110
 7275TIP3   OH246019   3.870   1.131   8.869 -0.3368 -0.6723 -0.5501
 7275TIP3    H146020   3.776   1.113   8.865 -0.5639 -0.1018  1.1517
 7275TIP3    H246021   3.905   1.064   8.928 -0.3119  1.1205  1.6142
 7276TIP3   OH246022   5.125   3.798   0.137 -0.4344  1.0547 -0.4038
 7276TIP3    H146023   5.154   3.824   0.225 -2.2817  0.9374  0.2861
 7276TIP3    H246024   5.130   3.703   0.138  1.7330  1.0900 -1.2779
 7277TIP3   OH246025   3.005   3.049   7.753  0.0173  0.2459  0.4353
 7277TIP3    H146026   2.945   2.988   7.795  0.1443  0.0502  0.3336
 7277TIP3    H246027   3.086   2.999   7.741 -0.0978  0.2164 -0.2664
 7278TIP3   OH246028   6.222   6.791   7.279 -0.3280 -0.6059 -0.3432
 7278TIP3    H146029   6.244   6.873   7.235 -0.3662 -0.4497 -0.0717
 7278TIP3    H246030   6.299   6.770   7.331 -0.3711 -0.6734 -0.3062
 7279TIP3   OH246031   6.164   2.199   8.870 -0.1025 -0.1561  0.9267
 7279TIP3    H146032   6.259   2.190   8.877  0.1511  0.2554 -1.4357
 7279TIP3    H246033   6.133   2.186   8.960  1.9177 -3.1094  1.3473
 7280TIP3   OH246034   1.143   5.660   1.506  0.3593 -0.9894  0.3194
 7280TIP3    H146035   1.141   5.597   1.577 -0.6301 -0.1957  1.0242
 7280TIP3    H246036   1.181   5.739   1.544  1.1810 -1.0019 -0.4352
 7281TIP3   OH246037   1.367   0.918   2.795  0.3046 -0.3979 -0.0640
 7281TIP3    H146038   1.288   0.895   2.843  1.4968 -0.3556  2.0439
 7281TIP3    H246039   1.398   0.835   2.760 -0.7307 -0.3880 -1.0635
 7282TIP3   OH246040   6.731   4.680   2.398 -0.1952 -0.3665 -0.0476
 7282TIP3    H146041   6.727   4.585   2.387 -0.2252 -0.4082  0.3132
 7282TIP3    H246042   6.743   4.693   2.492  2.2546 -0.0845 -0.3339
 7283TIP3   OH246043   1.142   4.247   1.389  0.8598  0.1085 -0.1865
 7283TIP3    H146044   1.115   4.315   1.327  2.0786  1.1572  0.3830
 7283TIP3    H246045   1.064   4.231   1.442  0.1202 -0.0260 -1.2875
 7284TIP3   OH246046   3.078   5.764   2.271 -0.1359 -0.2573 -0.2186
 7284TIP3    H146047   3.006   5.813   2.232  0.0079 -0.2229 -0.4454
 7284TIP3    H246048   3.086   5.798   2.360 -1.3529 -1.2650  0.3186
 7285TIP3   OH246049   5.696   1.925   2.061  0.4819  0.8390  0.8975
 7285TIP3    H146050   5.612   1.970   2.056  0.8767  1.5296  0.2360
 7285TIP3    H246051   5.755   1.977   2.006  0.8574 -0.7318 -0.2932
 7286TIP3   OH246052   0.909   6.264   7.083 -0.6847 -0.1550 -0.1969
 7286TIP3    H146053   0.816   6.286   7.081 -0.3126  1.5622 -0.0058
 7286TIP3    H246054   0.926   6.241   7.175 -0.8283 -0.0191 -0.1363
 7287TIP3   OH246055   0.211   5.438   8.971  0.7332  0.5666  0.1205
 7287TIP3    H146056   0.277   5.419   8.904 -0.2309 -0.8558 -0.4554
 7287TIP3    H246057   0.135   5.467   8.921  0.3806  0.6113  0.6840
 7288TIP3   OH246058   3.473   0.450   7.164  0.0589 -0.2263 -0.4365
 7288TIP3    H146059   3.380   0.430   7.154  0.3824 -2.2072  0.0935
 7288TIP3    H246060   3.476   0.514   7.235 -1.0057  1.5126 -1.8626
 7289TIP3   OH246061   4.417   5.806   0.172  0.3936  0.2878  0.5107
 7289TIP3    H146062   4.490   5.797   0.232 -1.8179 -0.6469  3.3155
 7289TIP3    H246063   4.340   5.781   0.224 -1.9758  1.5005 -2.1292
 7290TIP3   OH246064   6.886   4.532   8.907  0.7122 -0.7329  0.4524
 7290TIP3    H146065   6.847   4.508   8.991  1.4478  1.9982  1.6929
 7290TIP3    H246066   6.876   4.627   8.902  0.4007 -0.8221 -2.7466
 7291TIP3   OH246067   2.843   4.635   1.965  0.3623  0.3693  0.4878
 7291TIP3    H146068   2.858   4.716   1.916  2.0976 -0.1594  0.0656
 7291TIP3    H246069   2.931   4.602   1.984 -0.3049 -0.9490  1.4417
 7292TIP3   OH246070   0.641   1.990   2.540 -0.2737  0.4140 -0.4863
 7292TIP3    H146071   0.589   1.925   2.588  1.5125  0.7111  2.0792
 7292TIP3    H246072   0.583   2.065   2.530 -1.3807 -0.4429 -0.7545
 7293TIP3   OH246073   5.530   2.777   8.134 -0.3038  0.1356  0.2019
 7293TIP3    H146074   5.515   2.752   8.225  0.7229 -1.7185 -0.0680
 7293TIP3    H246075   5.448   2.816   8.105 -1.2904 -0.9689  1.3927
 7294TIP3   OH246076   4.913   4.441   9.843  0.0668 -0.5070  0.2857
 7294TIP3    H146077   4.832   4.390   9.847 -0.0220 -0.3813  0.1054
 7294TIP3    H246078   4.945   4.430   9.754 -1.0270  1.3762 -0.4108
 7295TIP3   OH246079   2.903   1.615   7.945  0.0017 -0.4570  0.3415
 7295TIP3    H146080   2.978   1.635   7.890 -1.0473 -1.2320 -1.4905
 7295TIP3    H246081   2.873   1.529   7.913 -1.6353 -0.1692  1.0155
 7296TIP3   OH246082   3.921   2.098   1.421 -0.2517 -0.6577  0.1452
 7296TIP3    H146083   3.847   2.099   1.359 -0.3872 -0.0302  0.3062
 7296TIP3    H246084   3.890   2.150   1.496  0.1994 -0.7493  0.3996
 7297TIP3   OH246085   3.168   0.783   7.779 -0.2911  0.1209  0.1464
 7297TIP3    H146086   3.077   0.810   7.763 -0.4250  0.3358  1.1508
 7297TIP3    H246087   3.192   0.829   7.860 -0.2261 -2.0423  1.4549
 7298TIP3   OH246088   4.031   4.590   0.483  0.2483  0.3152 -0.3855
 7298TIP3    H146089   4.033   4.497   0.505  0.3970 -0.0495 -1.7954
 7298TIP3    H246090   4.106   4.602   0.424 -1.1345  0.7662 -2.1548
 7299TIP3   OH246091   3.918   6.108   8.966  0.4606 -0.5614 -0.2117
 7299TIP3    H146092   4.000   6.059   8.963 -1.0309 -3.1827 -1.2126
 7299TIP3    H246093   3.886   6.108   8.876  0.3569  2.4199 -0.2969
 7300TIP3   OH246094   0.411   4.626   2.175  0.4353 -1.1341 -0.1267
 7300TIP3    H146095   0.495   4.663   2.201 -0.4913  0.3446  0.9152
 7300TIP3    H246096   0.401   4.653   2.084  0.7466 -0.6499 -0.0230
 7301TIP3   OH246097   3.809   7.279   8.808  0.3604 -0.4155 -0.2135
 7301TIP3    H146098   3.799   7.251   8.899  0.5836 -0.2476 -0.1376
 7301TIP3    H246099   3.872   7.219   8.771  0.1051 -0.6188 -0.3165
 7302TIP3   OH246100   1.594   1.219   7.454 -0.3161 -0.0873 -0.3272
 7302TIP3    H146101   1.598   1.212   7.549 -0.3467 -1.2947 -0.3928
 7302TIP3    H246102   1.536   1.148   7.427 -0.5768  0.4479 -1.2299
 7303TIP3   OH246103   3.567   5.582   8.637  0.0541  0.3355  0.1637
 7303TIP3    H146104   3.594   5.495   8.611 -1.7916 -1.1572  2.7351
 7303TIP3    H246105   3.643   5.637   8.622  0.6710 -1.2224 -3.3846
 7304TIP3   OH246106   6.935   1.647   1.955 -0.0750  0.5634  0.3090
 7304TIP3    H146107   6.847   1.685   1.954  0.2045  1.2413  0.7243
 7304TIP3    H246108   6.931   1.580   2.024 -0.1804  0.7949  0.5278
 7305TIP3   OH246109   0.903   2.327   2.276  0.0433 -0.1324 -0.1389
 7305TIP3    H146110   0.836   2.368   2.220  0.1840 -0.9137 -0.9074
 7305TIP3    H246111   0.857   2.255   2.320  0.3827 -0.7254 -0.7346
 7306TIP3   OH246112   2.930   1.721   8.199 -0.1903 -0.0271  0.3722
 7306TIP3    H146113   3.024   1.718   8.181 -0.3027  0.3083 -0.3167
 7306TIP3    H246114   2.893   1.771   8.125 -0.8408  0.2961  0.9069
 7307TIP3   OH246115   3.564   4.569   0.390 -0.1175 -0.3028 -0.5538
 7307TIP3    H146116   3.644   4.518   0.385 -0.6633 -1.1399 -0.9646
 7307TIP3    H246117   3.554   4.589   0.483  0.4572 -0.3517 -0.4769
 7308TIP3   OH246118   0.523   2.963   9.171  0.0168 -0.1010 -0.2296
 7308TIP3    H146119   0.606   2.920   9.192 -0.0913 -1.4747 -2.2523
 7308TIP3    H246120   0.466   2.944   9.245  1.2324  0.0868  0.7723
 7309TIP3   OH246121   7.429   2.467   9.691 -0.1136 -0.0263 -0.1789
 7309TIP3    H146122   7.375   2.392   9.668 -0.3131 -0.5026  1.6539
 7309TIP3    H246123   7.519   2.437   9.680 -0.1423 -1.1442  2.0666
 7310TIP3   OH246124   6.402   6.003   9.754  0.0826  0.1674  0.0199
 7310TIP3    H146125   6.401   6.073   9.819  0.4186 -0.2650  0.4992
 7310TIP3    H246126   6.318   5.959   9.765  0.7347 -0.8490  1.2254
 7311TIP3   OH246127   0.162   1.585   8.273 -0.0444 -0.2158 -0.2945
 7311TIP3    H146128   0.208   1.503   8.255 -0.2804 -0.6628  1.0447
 7311TIP3    H246129   0.191   1.644   8.203  0.0699 -1.4477 -1.3296
 7312TIP3   OH246130   4.063   2.980   0.417 -0.2199  0.0790  0.5117
 7312TIP3    H146131   4.025   3.066   0.432 -2.0984 -1.0053  2.6209
 7312TIP3    H246132   4.144   2.980   0.467 -0.9484  0.1719  1.7273
 7313TIP3   OH246133   0.768   3.561   8.231  0.7447 -0.4664  0.3054
 7313TIP3    H146134   0.852   3.515   8.218  0.3840 -1.1232  0.2293
 7313TIP3    H246135   0.778   3.607   8.314  1.5620  0.3221 -0.2148
 7314TIP3   OH246136   7.231   5.275   0.971 -0.0103 -0.0214 -0.1595
 7314TIP3    H146137   7.165   5.211   0.944  1.7655 -2.1115  0.1535
 7314TIP3    H246138   7.200   5.359   0.936 -3.3972 -0.6462  0.9833
 7315TIP3   OH246139   6.144   5.966   0.927 -0.5144 -0.8959  0.5093
 7315TIP3    H146140   6.235   5.953   0.903 -0.6171 -1.0097  0.1830
 7315TIP3    H246141   6.115   5.880   0.961 -0.5110 -0.8691  0.5812
 7316TIP3   OH246142   5.095   4.794   7.625  0.6316 -0.4320 -0.1490
 7316TIP3    H146143   5.191   4.803   7.626  0.8409 -2.3294  1.0754
 7316TIP3    H246144   5.078   4.737   7.550  0.6215 -1.3385  0.5282
 7317TIP3   OH246145   6.415   4.539   0.091 -0.2442 -0.1682 -0.1395
 7317TIP3    H146146   6.462   4.607   0.042  0.6938  0.0153  0.9739
 7317TIP3    H246147   6.462   4.458   0.071  0.2944 -0.0535  0.6332
 7318TIP3   OH246148   6.061   0.601   9.939 -0.2613  0.3113  0.0481
 7318TIP3    H146149   6.089   0.619  10.028 -1.8934  0.9015  0.4674
 7318TIP3    H246150   5.967   0.585   9.945 -0.2383 -0.6489 -1.4297
 7319TIP3   OH246151   5.659   0.105   0.350 -0.3510  0.6256 -0.1400
 7319TIP3    H146152   5.565   0.088   0.346 -0.1659 -0.0387 -2.4086
 7319TIP3    H246153   5.666   0.187   0.400 -1.9595 -0.2530  1.6533
 7320TIP3   OH246154   0.942   2.880   3.046 -0.0313  0.3532  0.1386
 7320TIP3    H146155   0.908   2.954   2.997  0.4417 -0.7166 -1.9238
 7320TIP3    H246156   1.028   2.908   3.076  0.1802  0.6399 -0.7027
 7321TIP3   OH246157   4.242   3.964   2.305  0.3190  0.0888 -0.0104
 7321TIP3    H146158   4.190   4.041   2.284  0.8104  0.3806 -0.1551
 7321TIP3    H246159   4.308   3.995   2.368  0.3219 -0.2786  0.1744
 7322TIP3   OH246160   7.398   6.094   0.049 -0.2715 -0.1220 -0.0263
 7322TIP3    H146161   7.361   6.056  -0.031  2.8277  0.7530 -2.0990
 7322TIP3    H246162   7.417   6.019   0.105  1.1331 -1.2730 -1.9076
 7323TIP3   OH246163   3.635   5.987   8.398 -0.4011 -0.5380  0.1335
 7323TIP3    H146164   3.664   5.962   8.311 -1.3848 -0.6020 -0.1825
 7323TIP3    H246165   3.689   6.063   8.420  0.7397 -1.2954  0.0069
 7324TIP3   OH246166   6.275   3.589   0.921 -0.7768 -0.4313  0.3946
 7324TIP3    H146167   6.183   3.592   0.948 -1.1136  0.8408 -0.7845
 7324TIP3    H246168   6.312   3.672   0.951 -0.1243 -0.7473  0.4743
 7325TIP3   OH246169   3.460   3.418   0.648 -0.3425  0.4075 -0.1641
 7325TIP3    H146170   3.498   3.374   0.571 -1.1337 -1.6238  0.5398
 7325TIP3    H246171   3.517   3.494   0.662 -0.1827  0.8671 -2.7473
 7326TIP3   OH246172   4.788   3.033   1.367  0.2749  0.1027  0.2113
 7326TIP3    H146173   4.807   2.980   1.290  2.5428  0.4303  0.4765
 7326TIP3    H246174   4.775   2.970   1.438  1.0665 -0.1536  0.1328
 7327TIP3   OH246175   2.521   5.909   6.527  0.0888  0.0452 -0.8525
 7327TIP3    H146176   2.499   5.839   6.466 -0.4737  0.5258 -1.2096
 7327TIP3    H246177   2.579   5.967   6.478 -0.5577  0.5604 -1.0130
 7328TIP3   OH246178   6.961   6.989   1.147 -0.2072  0.3171 -0.3927
 7328TIP3    H146179   7.019   7.042   1.094 -0.1743  1.4630  0.7384
 7328TIP3    H246180   6.895   7.050   1.180 -1.2051 -0.6759 -0.4649
 7329TIP3   OH246181   2.075   1.222   1.553  0.8402  0.3203 -0.2374
 7329TIP3    H146182   2.050   1.312   1.575 -0.9463 -0.0699 -0.5183
 7329TIP3    H246183   2.169   1.218   1.574  0.5388  1.6639  1.7279
 7330TIP3   OH246184   3.925   7.408   0.765  0.0564  0.7644  0.2075
 7330TIP3    H146185   3.931   7.490   0.813  0.5689  0.1775  1.1691
 7330TIP3    H246186   3.972   7.344   0.819  1.3065  0.2242 -1.4066
 7331TIP3   OH246187   6.507   4.061   1.111  0.2494  0.0471  0.3323
 7331TIP3    H146188   6.580   4.023   1.160  0.7634  0.7064  0.0948
 7331TIP3    H246189   6.523   4.036   1.020  0.2079  0.2387  0.2719
 7332TIP3   OH246190   1.518   7.002   6.819  0.3798  0.1117 -0.8457
 7332TIP3    H146191   1.550   7.064   6.754  0.8007 -0.4998 -1.2296
 7332TIP3    H246192   1.462   7.055   6.877 -0.6041  0.5268 -2.1154
 7333TIP3   OH246193   6.710   4.334   0.701  0.0897  0.0991  0.0973
 7333TIP3    H146194   6.775   4.271   0.673 -1.9604 -1.6523 -1.0490
 7333TIP3    H246195   6.730   4.351   0.792  3.4659  1.4418 -0.7526
 7334TIP3   OH246196   6.931   1.858   8.895 -0.2405  0.2558 -0.4963
 7334TIP3    H146197   6.894   1.775   8.862 -0.1216 -0.8405  1.9304
 7334TIP3    H246198   6.854   1.908   8.924 -0.1452 -0.1233  0.4280
 7335TIP3   OH246199   2.517   1.863   0.237  0.4630 -0.6159 -0.2268
 7335TIP3    H146200   2.549   1.947   0.271  0.9896 -1.5678  1.8096
 7335TIP3    H246201   2.590   1.802   0.252 -1.1596 -2.2014  1.8144
 7336TIP3   OH246202   5.394   6.421   1.524 -0.4639  0.2397  0.5614
 7336TIP3    H146203   5.365   6.367   1.451 -1.0770  1.4828 -0.1389
 7336TIP3    H246204   5.315   6.434   1.577 -0.4445  0.8843  0.4379
 7337TIP3   OH246205   7.381   3.060   8.691  0.0377 -0.8775  0.0560
 7337TIP3    H146206   7.419   3.148   8.689 -0.1439 -0.8110 -0.6337
 7337TIP3    H246207   7.292   3.071   8.656 -0.7074 -1.0019  1.7887
 7338TIP3   OH246208   0.855   6.423   8.022  0.4038 -0.1111  0.1414
 7338TIP3    H146209   0.928   6.445   8.080  1.2428 -0.6837 -0.6763
 7338TIP3    H246210   0.781   6.472   8.058  1.0447  0.0433  1.3216
 7339TIP3   OH246211   0.254   3.355   9.088  0.1160  0.2562  0.3317
 7339TIP3    H146212   0.246   3.278   9.145  0.4975 -0.3674 -0.4509
 7339TIP3    H246213   0.182   3.412   9.116  0.2160 -0.0936  1.3524
 7340TIP3   OH246214   4.837   1.258   8.990  0.3513 -0.1861 -0.2782
 7340TIP3    H146215   4.881   1.328   9.038  0.5362  0.0666 -0.8048
 7340TIP3    H246216   4.893   1.243   8.914 -0.2035 -0.2233 -0.6852
 7341TIP3   OH246217   0.885   2.498   1.032  0.1001 -0.8317  0.2451
 7341TIP3    H146218   0.868   2.463   0.945  1.9443 -0.6245 -0.2504
 7341TIP3    H246219   0.860   2.428   1.093  1.0386 -1.9213 -0.5816
 7342TIP3   OH246220   0.343   6.301   1.915 -0.1235 -0.5887 -0.0132
 7342TIP3    H146221   0.252   6.308   1.946  0.5921  1.3193  1.9282
 7342TIP3    H246222   0.348   6.363   1.842 -0.4322 -0.9287 -0.3321
 7343TIP3   OH246223   1.232   3.055   2.347  0.8878  0.0708  0.4471
 7343TIP3    H146224   1.186   3.127   2.303  1.1165 -0.3153 -0.4623
 7343TIP3    H246225   1.274   3.095   2.423 -1.9359  0.2215  2.0637
 7344TIP3   OH246226   3.052   2.759   1.385  0.7934  0.5755  0.2383
 7344TIP3    H146227   2.998   2.698   1.434  0.2628  1.3897  0.6805
 7344TIP3    H246228   3.091   2.816   1.451 -0.6601  2.2762 -0.2950
 7345TIP3   OH246229   5.886   6.966   1.793 -0.1062  0.4684 -0.2728
 7345TIP3    H146230   5.950   6.943   1.860 -1.3570 -0.8309  0.5551
 7345TIP3    H246231   5.875   7.061   1.800  1.2902  0.6239 -0.0528
 7346TIP3   OH246232   1.711   7.357   7.652  0.2953 -0.2717  0.0282
 7346TIP3    H146233   1.739   7.377   7.742 -1.0132 -0.8619  0.5939
 7346TIP3    H246234   1.752   7.273   7.632 -0.2028 -0.6288  0.4664
 7347TIP3   OH246235   2.663   5.026   7.349  0.6997 -0.8205  0.8963
 7347TIP3    H146236   2.573   5.043   7.320  1.3681  3.4131  0.7032
 7347TIP3    H246237   2.695   4.957   7.290 -1.7959 -1.1257 -0.2269
 7348TIP3   OH246238   2.145   0.111   1.306  0.0211 -0.0430  0.4658
 7348TIP3    H146239   2.213   0.052   1.275 -0.4838 -1.2471  1.5722
 7348TIP3    H246240   2.191   0.192   1.329  0.4956  0.7983 -2.8666
 7349TIP3   OH246241   4.360   7.423   0.496 -0.0950 -0.1995  0.4180
 7349TIP3    H146242   4.264   7.428   0.492 -0.1686 -0.4708  1.5346
 7349TIP3    H246243   4.383   7.474   0.573  0.5879 -0.9751  0.7398
 7350TIP3   OH246244   7.052   0.370   0.340 -0.0968  0.3900  0.4685
 7350TIP3    H146245   7.092   0.397   0.423  2.1434 -0.6992 -0.1773
 7350TIP3    H246246   7.126   0.358   0.281 -1.3759 -1.7855 -0.8032
 7351TIP3   OH246247   1.816   7.440   1.774 -0.4897  0.1880 -1.1919
 7351TIP3    H146248   1.904   7.463   1.805 -0.5861 -2.5434  1.5856
 7351TIP3    H246249   1.766   7.521   1.781  0.9864  1.0073  0.5211
 7352TIP3   OH246250   2.644   2.583   0.727  0.2435 -0.2304  0.6273
 7352TIP3    H146251   2.597   2.600   0.645  0.7250  1.3503  0.6374
 7352TIP3    H246252   2.576   2.585   0.794  0.2284  1.8160  0.6143
 7353TIP3   OH246253   4.851   4.691   0.682 -0.3542 -0.4181 -0.0010
 7353TIP3    H146254   4.795   4.750   0.731  1.8153  0.5442  1.5049
 7353TIP3    H246255   4.877   4.742   0.605 -1.2602 -0.7595 -0.5491
 7354TIP3   OH246256   2.063   7.163   2.689 -0.2686  0.2342  0.2461
 7354TIP3    H146257   2.068   7.182   2.783 -0.4862  1.7807 -0.0262
 7354TIP3    H246258   1.991   7.217   2.657  0.8700  1.0173 -1.1059
 7355TIP3   OH246259   0.640   6.342   9.580  0.2454 -0.4870 -0.0445
 7355TIP3    H146260   0.676   6.310   9.497  0.5132 -2.3487  0.7256
 7355TIP3    H246261   0.714   6.386   9.623 -0.1064  1.2091 -1.0929
 7356TIP3   OH246262   3.383   6.021   2.013  0.1186 -0.3766  0.0614
 7356TIP3    H146263   3.300   6.062   2.038 -0.0415 -0.3971 -0.4346
 7356TIP3    H246264   3.361   5.929   1.999  0.5596 -0.7433  1.5838
 7357TIP3   OH246265   1.585   3.721   1.137  0.5033  0.4898  0.8275
 7357TIP3    H146266   1.566   3.627   1.145 -0.4452  0.7425  1.6703
 7357TIP3    H246267   1.679   3.724   1.118  0.6052 -0.6196  1.0341
 7358TIP3   OH246268   2.882   2.804   7.691  0.2670  0.3876  1.0242
 7358TIP3    H146269   2.831   2.854   7.628  0.5434 -0.5125  0.0561
 7358TIP3    H246270   2.937   2.747   7.637  1.0429  0.1227  2.0733
 7359TIP3   OH246271   1.721   2.485   7.914  0.5961  0.4862 -0.0719
 7359TIP3    H146272   1.636   2.523   7.889 -0.0787 -1.4314 -0.8596
 7359TIP3    H246273   1.708   2.391   7.906  2.3699  0.0862  1.2875
 7360TIP3   OH246274   1.877   5.358   3.699 -0.1571 -0.0693  0.3353
 7360TIP3    H146275   1.807   5.378   3.761 -1.4335 -1.7670 -0.4669
 7360TIP3    H246276   1.958   5.368   3.750 -1.0362  0.5615  1.6758
 7361TIP3   OH246277   6.189   2.962   9.425 -0.5278  0.3716  0.3286
 7361TIP3    H146278   6.184   2.918   9.510 -0.5718  0.3462  0.3136
 7361TIP3    H246279   6.115   2.927   9.376 -0.9021  0.8962  0.5137
 7362TIP3   OH246280   1.225   3.812   0.715 -0.1486  0.2821 -0.5302
 7362TIP3    H146281   1.132   3.807   0.695 -0.2426  0.7886 -0.2495
 7362TIP3    H246282   1.230   3.870   0.791  0.4573  0.8916 -1.0208
 7363TIP3   OH246283   5.457   2.939   0.634 -0.2088 -0.3814 -0.1424
 7363TIP3    H146284   5.375   2.927   0.683 -0.5597  0.5586 -0.4926
 7363TIP3    H246285   5.444   2.891   0.552 -1.9804  2.8747 -1.9612
 7364TIP3   OH246286   1.367   2.487   8.764  0.6881 -0.0379  0.3644
 7364TIP3    H146287   1.324   2.542   8.697  1.1673 -0.0758  0.0229
 7364TIP3    H246288   1.307   2.413   8.776  1.2857 -0.8010 -1.1132
 7365TIP3   OH246289   3.831   2.397   1.027 -0.6424  1.1655  0.5448
 7365TIP3    H146290   3.883   2.462   0.978 -0.5528  0.5755 -0.1496
 7365TIP3    H246291   3.872   2.313   1.007  0.3562  1.0249  2.8395
 7366TIP3   OH246292   1.607   4.054   2.183  0.0105  0.4258  0.4797
 7366TIP3    H146293   1.663   4.012   2.248  1.4042  1.1936 -0.1859
 7366TIP3    H246294   1.603   3.992   2.111 -0.0983  0.3184  0.5780
 7367TIP3   OH246295   1.042   0.016   9.932  0.4324  0.1436  0.3577
 7367TIP3    H146296   1.065  -0.012   9.843  0.3166 -1.5525  0.8217
 7367TIP3    H246297   0.992   0.097   9.920 -0.4898 -0.6095 -1.2121
 7368TIP3   OH246298   4.975   1.360   8.189  0.5259 -0.0967  0.1849
 7368TIP3    H146299   5.032   1.318   8.125 -0.0427 -0.6705  0.0566
 7368TIP3    H246300   4.891   1.317   8.179  0.2686  0.2250  0.9054
 7369TIP3   OH246301   2.669   5.979   1.011 -0.1304  0.3092  0.3816
 7369TIP3    H146302   2.607   6.048   1.033 -1.9313 -0.4986 -1.7843
 7369TIP3    H246303   2.646   5.907   1.070 -1.1866  0.0783 -0.2850
 7370TIP3   OH246304   2.096   2.753   3.048  0.1871 -0.2194  0.0382
 7370TIP3    H146305   2.189   2.777   3.051  0.1631 -0.2101  0.8487
 7370TIP3    H246306   2.091   2.673   3.100 -0.5112  0.6451  1.3584
 7371TIP3   OH246307   7.065   5.793   8.352 -0.2683  0.0700  0.1145
 7371TIP3    H146308   7.045   5.871   8.301 -1.1449 -0.4663 -0.3839
 7371TIP3    H246309   7.011   5.802   8.431 -1.1036 -0.4597 -0.3700
 7372TIP3   OH246310   3.290   3.435   1.174 -0.1873  0.1826 -0.0641
 7372TIP3    H146311   3.357   3.393   1.228 -0.3841  0.0625  0.0850
 7372TIP3    H246312   3.292   3.386   1.091 -2.1160 -1.7446  0.9506
 7373TIP3   OH246313   3.697   3.037   0.473 -0.2383 -0.4378  0.1188
 7373TIP3    H146314   3.718   2.987   0.395 -0.1793 -0.5058  0.1783
 7373TIP3    H246315   3.613   3.002   0.504 -0.7782  0.2757 -0.4909
 7374TIP3   OH246316   3.845   6.857   0.034 -0.2538  0.0745 -0.0667
 7374TIP3    H146317   3.780   6.799   0.075 -0.0097  0.8264  1.4667
 7374TIP3    H246318   3.808   6.944   0.041  1.2772  0.6572  1.7376
 7375TIP3   OH246319   0.759   1.446   7.147  0.5177 -0.0230  0.3954
 7375TIP3    H146320   0.782   1.532   7.183  0.2503  0.6749 -1.0513
 7375TIP3    H246321   0.710   1.404   7.218  0.4649  1.0917  1.0528
 7376TIP3   OH246322   6.688   7.379   1.342 -0.2009  0.0537 -0.3010
 7376TIP3    H146323   6.680   7.284   1.353  0.8870  0.1599  1.8737
 7376TIP3    H246324   6.767   7.391   1.290 -0.3860 -0.2149 -0.6507
 7377TIP3   OH246325   0.544   4.303   9.131 -0.1193  0.0472  0.5124
 7377TIP3    H146326   0.501   4.373   9.179 -0.4888 -0.0674  0.3504
 7377TIP3    H246327   0.600   4.348   9.067  0.4281  0.1988  1.0923
 7378TIP3   OH246328   6.855   4.405   0.302  0.0321  0.3248  0.1746
 7378TIP3    H146329   6.947   4.400   0.329  0.1238  0.2864 -0.1327
 7378TIP3    H246330   6.829   4.314   0.288 -0.7160  0.1527  2.3790
 7379TIP3   OH246331   4.175   3.785   0.819 -0.0774  0.4092  0.0655
 7379TIP3    H146332   4.150   3.729   0.745  1.3755 -0.2420  0.0162
 7379TIP3    H246333   4.097   3.835   0.840 -0.5829  0.4746 -1.8093
 7380TIP3   OH246334   1.728   2.896   8.536  0.1832  0.1406 -0.5637
 7380TIP3    H146335   1.696   2.905   8.626 -1.1794 -1.3359 -0.8559
 7380TIP3    H246336   1.792   2.824   8.542  0.5775  0.4762 -0.6791
 7381TIP3   OH246337   7.304   6.872   6.807  0.0677 -0.2637  0.7401
 7381TIP3    H146338   7.343   6.831   6.731 -2.3124 -0.6517 -0.3669
 7381TIP3    H246339   7.359   6.844   6.881  0.9811 -1.9163 -0.5040
 7382TIP3   OH246340   1.626   3.830   9.535 -0.1009  0.2477 -0.4296
 7382TIP3    H146341   1.699   3.773   9.556  0.0821  1.3945  2.4039
 7382TIP3    H246342   1.556   3.804   9.594 -0.9427  1.1383 -0.9980
 7383TIP3   OH246343   2.514   4.245   7.508 -0.1137  0.1648  0.7548
 7383TIP3    H146344   2.516   4.225   7.602 -0.8657 -1.0115  0.5401
 7383TIP3    H246345   2.435   4.201   7.476 -0.7228  1.8363 -0.1618
 7384TIP3   OH246346   4.011   2.892   0.903  0.3898 -0.1557 -0.1885
 7384TIP3    H146347   4.098   2.854   0.889  1.0200  0.2786  2.0918
 7384TIP3    H246348   4.012   2.973   0.852  1.3605 -0.1365 -0.1550
 7385TIP3   OH246349   4.694   4.450   1.882  0.5080 -0.3131  0.4746
 7385TIP3    H146350   4.682   4.372   1.828  0.0202  0.5501 -0.6924
 7385TIP3    H246351   4.633   4.437   1.956  1.0326 -1.4021  0.7370
 7386TIP3   OH246352   0.174   6.868   7.264  0.2318  0.0371  0.6623
 7386TIP3    H146353   0.128   6.846   7.345  1.2443 -0.0453  1.2225
 7386TIP3    H246354   0.163   6.962   7.255 -0.5557 -0.0618  0.4599
 7387TIP3   OH246355   7.380   4.250   9.288  0.2972 -0.3814 -0.2949
 7387TIP3    H146356   7.446   4.216   9.348  0.8287  1.0563 -0.0259
 7387TIP3    H246357   7.429   4.275   9.210  0.0060  0.1916 -0.3020
 7388TIP3   OH246358   0.820   5.236   0.541 -0.0203 -0.2055  0.2907
 7388TIP3    H146359   0.858   5.305   0.595  0.1090 -1.4338  1.8324
 7388TIP3    H246360   0.783   5.174   0.603 -0.5390 -1.3249 -1.0662
 7389TIP3   OH246361   0.043   2.952   8.906  0.5604  0.7190 -0.6072
 7389TIP3    H146362   0.008   2.971   8.819  0.9902  0.5785 -0.8137
 7389TIP3    H246363   0.096   2.874   8.894 -1.9761 -1.3284  0.4145
 7390TIP3   OH246364   7.351   1.685   1.109  0.0223 -0.4620 -0.4219
 7390TIP3    H146365   7.281   1.739   1.147  1.6466  0.5375  1.3391
 7390TIP3    H246366   7.380   1.629   1.181  1.1294 -0.7363 -1.0589
 7391TIP3   OH246367   0.173   3.133   2.193 -1.2337  0.1455  0.1028
 7391TIP3    H146368   0.255   3.084   2.201  0.0176  1.9776 -0.8106
 7391TIP3    H246369   0.177   3.198   2.264 -2.1313 -0.0327  0.3311
 7392TIP3   OH246370   4.350   5.794   1.947  0.1555  0.1235 -0.4269
 7392TIP3    H146371   4.423   5.806   2.007 -0.3753 -0.9159  0.4822
 7392TIP3    H246372   4.273   5.815   2.000 -0.4368 -2.3028 -0.1995
 7393TIP3   OH246373   0.834   6.305   7.735 -0.2425 -0.9469  0.0178
 7393TIP3    H146374   0.903   6.295   7.801 -0.4944 -0.7342  0.3175
 7393TIP3    H246375   0.765   6.354   7.780 -0.3353 -0.6298 -0.4684
 7394TIP3   OH246376   1.805   1.804   2.185 -0.3793 -0.3545 -0.0045
 7394TIP3    H146377   1.739   1.798   2.255  0.7593  0.9618  1.2476
 7394TIP3    H246378   1.785   1.887   2.141 -1.3830 -1.3906 -1.6339
 7395TIP3   OH246379   3.056   1.993   7.820 -0.1014 -0.2865 -0.5241
 7395TIP3    H146380   3.074   2.063   7.757  1.2426 -0.6954 -0.6282
 7395TIP3    H246381   3.094   2.024   7.902 -3.5482  1.1297  0.7221
 7396TIP3   OH246382   5.999   2.395   0.377  0.4440  0.0497  0.2115
 7396TIP3    H146383   5.933   2.375   0.443 -0.3961  0.4945 -0.4636
 7396TIP3    H246384   5.965   2.355   0.297  1.7770 -1.0721  0.1731
 7397TIP3   OH246385   4.714   0.236   8.417 -0.3560  0.6875  0.2579
 7397TIP3    H146386   4.741   0.276   8.500 -1.2514  1.2435  0.2955
 7397TIP3    H246387   4.795   0.224   8.368  0.4216 -1.3643  1.9434
 7398TIP3   OH246388   2.113   7.249   2.940  0.1055 -0.3646 -0.1399
 7398TIP3    H146389   2.060   7.309   2.993 -1.5586 -2.6396  0.9402
 7398TIP3    H246390   2.188   7.227   2.995  0.3775  0.2050 -0.2786
 7399TIP3   OH246391   1.660   1.337   8.318  0.5082  0.0679 -0.0472
 7399TIP3    H146392   1.716   1.391   8.374  1.6735 -0.4222 -0.7152
 7399TIP3    H246393   1.718   1.269   8.285 -0.4229 -0.2864 -0.9904
 7400TIP3   OH246394   2.066   0.399   9.275 -0.5942  0.3311 -0.0762
 7400TIP3    H146395   1.992   0.337   9.271 -0.6353  0.3878 -3.0407
 7400TIP3    H246396   2.040   0.469   9.215  1.8313  0.3230 -1.2522
 7401TIP3   OH246397   0.434   0.669   0.376 -0.1019  0.3220 -0.2232
 7401TIP3    H146398   0.526   0.644   0.385 -0.2040 -0.1721 -0.5031
 7401TIP3    H246399   0.408   0.697   0.463  0.2455  0.2226 -0.0842
 7402TIP3   OH246400   4.768   7.170   9.698  0.2086  0.0882  0.0285
 7402TIP3    H146401   4.716   7.096   9.669  0.8353  0.4684 -2.2602
 7402TIP3    H246402   4.858   7.145   9.679  0.7879  0.0499  2.5381
 7403TIP3   OH246403   4.036   1.925   8.340 -0.3827 -0.0463  0.3225
 7403TIP3    H146404   4.092   1.908   8.415  0.4051 -0.0194 -0.2520
 7403TIP3    H246405   3.950   1.891   8.366  0.1055 -0.8792  0.8632
 7404TIP3   OH246406   5.405   1.814   8.490  0.5162 -0.1804 -0.5396
 7404TIP3    H146407   5.371   1.899   8.517 -1.1375 -0.4884 -1.5261
 7404TIP3    H246408   5.389   1.810   8.396  0.5184 -1.5928 -0.5010
 7405TIP3   OH246409   6.679   1.547   8.035  0.3815 -0.7126 -0.1695
 7405TIP3    H146410   6.754   1.602   8.057  0.7360 -1.9722  1.9945
 7405TIP3    H246411   6.612   1.608   8.004  1.8293  0.5577 -0.9300
 7406TIP3   OH246412   4.593   4.061   9.018 -0.2254 -0.2729  0.1155
 7406TIP3    H146413   4.569   4.137   8.965  1.0895 -0.1453 -0.3123
 7406TIP3    H246414   4.515   4.044   9.071 -1.5653 -0.3665 -1.7812
 7407TIP3   OH246415   6.850   2.006   9.775 -0.3597  0.1621  0.1594
 7407TIP3    H146416   6.849   1.942   9.847 -1.1125  0.4497  0.4099
 7407TIP3    H246417   6.926   2.062   9.795  2.6259 -2.7663 -1.9932
 7408TIP3   OH246418   4.247   1.113   1.247  0.7338 -0.2412  0.0218
 7408TIP3    H146419   4.162   1.116   1.203 -0.1003  2.0996  1.5608
 7408TIP3    H246420   4.303   1.170   1.195 -0.2484  2.5152  1.7568
 7409TIP3   OH246421   2.185   0.945   8.779 -0.6089 -0.0876 -0.4869
 7409TIP3    H146422   2.224   0.975   8.697  2.3797 -1.4987  0.2645
 7409TIP3    H246423   2.198   1.018   8.839 -1.1510  0.2651 -0.7892
 7410TIP3   OH246424   0.885   4.587   6.904  0.0212  0.1596 -0.2488
 7410TIP3    H146425   0.854   4.502   6.935  0.9532 -0.7309 -1.6409
 7410TIP3    H246426   0.971   4.569   6.867  1.0925  2.0869  1.1529
 7411TIP3   OH246427   0.945   6.725   0.164  0.6174  0.0088  0.5526
 7411TIP3    H146428   0.931   6.762   0.251  1.1986  0.3989  0.4858
 7411TIP3    H246429   0.980   6.798   0.112 -1.4311  0.3164 -0.5125
 7412TIP3   OH246430   2.281   3.412   0.665 -0.6145 -0.5839  0.2785
 7412TIP3    H146431   2.373   3.386   0.667 -0.3921  0.1974  0.8617
 7412TIP3    H246432   2.282   3.504   0.694 -1.4575 -0.2258 -0.7880
 7413TIP3   OH246433   1.636   2.584   8.773  0.0452  0.2072  0.3343
 7413TIP3    H146434   1.545   2.560   8.787 -0.8215  0.8837 -3.1229
 7413TIP3    H246435   1.655   2.554   8.684  3.8478 -1.5728  1.5560
 7414TIP3   OH246436   2.851   5.052   6.251 -0.3370  0.3070  0.0937
 7414TIP3    H146437   2.809   4.974   6.215 -0.3195  0.7100 -0.8351
 7414TIP3    H246438   2.788   5.123   6.233  0.3041  0.7529 -0.4535
 7415TIP3   OH246439   0.771   5.363   9.121 -0.0463  0.0976  0.4781
 7415TIP3    H146440   0.826   5.286   9.107 -1.2672 -0.8892  0.9216
 7415TIP3    H246441   0.756   5.399   9.033 -1.1658 -1.4145 -0.0006
 7416TIP3   OH246442   0.222   5.584   9.988  0.2158  0.3101 -0.1534
 7416TIP3    H146443   0.296   5.543  10.032 -0.6582 -0.3034  0.7796
 7416TIP3    H246444   0.231   5.558   9.896 -0.1981 -1.8745  0.3671
 7417TIP3   OH246445   0.760   2.049   2.284  0.0218  0.2903 -0.0509
 7417TIP3    H146446   0.684   2.074   2.232 -1.3208  0.2853  1.8004
 7417TIP3    H246447   0.724   2.025   2.370  1.9288 -1.6552  0.2890
 7418TIP3   OH246448   5.029   5.381   7.822 -0.4569  0.0620  0.3901
 7418TIP3    H146449   4.942   5.347   7.841 -0.1649 -1.8816 -1.4110
 7418TIP3    H246450   5.023   5.413   7.732  0.6164  0.1497  0.3349
 7419TIP3   OH246451   4.276   3.114   8.069 -0.0794 -0.4901  0.2433
 7419TIP3    H146452   4.274   3.195   8.119  0.5315 -1.1720  1.4296
 7419TIP3    H246453   4.213   3.057   8.113 -1.8607 -0.1142 -1.6536
 7420TIP3   OH246454   0.299   6.544   7.511 -0.4436 -0.1922  0.8049
 7420TIP3    H146455   0.324   6.478   7.446  1.8036 -0.6581  2.0279
 7420TIP3    H246456   0.204   6.536   7.518 -0.4137 -2.2010 -0.2481
 7421TIP3   OH246457   2.457   4.829   7.071  0.2593  0.3431  0.0269
 7421TIP3    H146458   2.470   4.920   7.097 -0.2539  0.3620  0.2365
 7421TIP3    H246459   2.516   4.816   6.997  0.1521  0.9236 -0.1650
 7422TIP3   OH246460   6.174   4.139   1.367  0.0982 -0.1080  0.0503
 7422TIP3    H146461   6.237   4.184   1.311  1.0436 -0.8524  0.4761
 7422TIP3    H246462   6.096   4.193   1.363  1.3989  1.9804  1.1260
 7423TIP3   OH246463   2.906   4.151   8.914  0.1779  0.2672 -0.3826
 7423TIP3    H146464   2.919   4.134   9.007  1.9093  2.5516 -0.1439
 7423TIP3    H246465   2.843   4.222   8.911  1.1544  1.1337 -0.8675
 7424TIP3   OH246466   3.662   1.371   9.037 -0.0527 -0.1499 -0.0718
 7424TIP3    H146467   3.708   1.416   8.966  0.3378 -0.3170  0.0692
 7424TIP3    H246468   3.724   1.303   9.066  0.6419  1.1856  1.7506
 7425TIP3   OH246469   1.606   4.982   0.304  0.0211 -0.0266 -0.5254
 7425TIP3    H146470   1.678   4.919   0.308 -1.7571 -2.1458 -0.1979
 7425TIP3    H246471   1.588   4.991   0.210  0.7280  0.5746 -0.6136
 7426TIP3   OH246472   2.333   6.436   2.800  0.3152  0.2539  0.0018
 7426TIP3    H146473   2.392   6.501   2.838  0.1654 -0.8628  2.3416
 7426TIP3    H246474   2.303   6.475   2.718  2.7577  1.6968 -0.3172
 7427TIP3   OH246475   2.841   6.248   2.840  0.1616 -0.0190  0.3722
 7427TIP3    H146476   2.776   6.182   2.817  1.2595 -0.9277 -0.2463
 7427TIP3    H246477   2.791   6.329   2.850 -0.9917 -0.5810 -0.6091
 7428TIP3   OH246478   1.608   4.078   7.277  0.0506  0.2324  0.1005
 7428TIP3    H146479   1.683   4.020   7.263  0.8492  1.3324 -0.3752
 7428TIP3    H246480   1.633   4.160   7.233 -1.5346  0.5485 -0.2751
 7429TIP3   OH246481   2.245   0.357   8.467 -0.0631 -0.7421  0.0794
 7429TIP3    H146482   2.243   0.429   8.529  0.0015 -0.9713  0.3533
 7429TIP3    H246483   2.167   0.369   8.413 -0.3039 -0.7296  0.4251
 7430TIP3   OH246484   2.855   3.243   0.572  0.3066 -0.1828 -0.9506
 7430TIP3    H146485   2.842   3.245   0.667  0.1468  1.3953 -0.9907
 7430TIP3    H246486   2.906   3.163   0.557 -1.4145 -1.5555  0.2124
 7431TIP3   OH246487   5.008   2.737   0.567  0.2832  0.0497 -0.5469
 7431TIP3    H146488   5.061   2.816   0.568  0.2491  0.0889 -1.2095
 7431TIP3    H246489   5.036   2.689   0.489  1.9568 -1.7537  1.0429
 7432TIP3   OH246490   5.255   5.415   8.601  1.3193 -0.4997 -0.1151
 7432TIP3    H146491   5.261   5.365   8.519 -2.1969 -0.7697 -0.3837
 7432TIP3    H246492   5.238   5.350   8.668 -0.3176  0.0284  0.0279
 7433TIP3   OH246493   1.248   6.398   2.067  0.0418 -0.0833  0.4784
 7433TIP3    H146494   1.224   6.389   2.159 -0.1572 -1.7198  0.2819
 7433TIP3    H246495   1.342   6.414   2.069  0.0424 -0.1160  0.9555
 7434TIP3   OH246496   1.262   7.237   6.538  0.1100  0.0395  0.1301
 7434TIP3    H146497   1.221   7.252   6.453  1.5847 -1.9948 -1.0271
 7434TIP3    H246498   1.191   7.207   6.595 -0.8560  1.2401 -0.3885
 7435TIP3   OH246499   2.755   4.242   0.076 -0.6721  0.7345  0.7472
 7435TIP3    H146500   2.726   4.252  -0.015 -0.5798  2.1901  0.8581
 7435TIP3    H246501   2.849   4.229   0.071 -1.0258 -2.5522  0.4759
 7436TIP3   OH246502   4.550   1.329   8.940  0.0835 -0.1880  0.0145
 7436TIP3    H146503   4.641   1.302   8.932 -0.1367 -0.8727 -0.2623
 7436TIP3    H246504   4.523   1.296   9.026  0.1757  0.2716  0.2246
 7437TIP3   OH246505   0.007   1.291   9.313  0.1909  0.0425 -0.9007
 7437TIP3    H146506  -0.008   1.228   9.383  0.4972 -0.9213 -1.6760
 7437TIP3    H246507   0.084   1.341   9.341 -0.4485  0.5205  0.0196
 7438TIP3   OH246508   7.274   6.029   0.920  0.4314 -0.1449  0.8270
 7438TIP3    H146509   7.362   6.028   0.884  0.8590  1.8053  1.7160
 7438TIP3    H246510   7.273   6.101   0.983 -1.9595  0.2433  0.4663
 7439TIP3   OH246511   1.934   6.345   7.406  0.2140 -0.6921 -0.2199
 7439TIP3    H146512   1.908   6.329   7.315 -1.2612  2.7451 -0.5778
 7439TIP3    H246513   1.871   6.296   7.458 -1.0049 -0.1379 -1.1178
 7440TIP3   OH246514   2.563   0.736   7.571 -0.3369  0.0858  0.0105
 7440TIP3    H146515   2.561   0.748   7.665  0.6309  1.5154 -0.1251
 7440TIP3    H246516   2.543   0.643   7.558 -0.5762 -0.1075  1.5976
 7441TIP3   OH246517   0.117   5.109   0.627  0.1175 -0.0227  0.3960
 7441TIP3    H146518   0.171   5.130   0.551  0.0772  0.1597  0.4186
 7441TIP3    H246519   0.049   5.050   0.593 -0.4702  0.8146  0.0958
 7442TIP3   OH246520   0.649   5.777   9.045  0.3154  0.5005 -0.0966
 7442TIP3    H146521   0.589   5.758   8.972 -1.0152 -1.7798  1.4582
 7442TIP3    H246522   0.593   5.816   9.112  1.0198  0.3812  0.5731
 7443TIP3   OH246523   1.045   5.966   9.480 -0.3017  0.2661  1.0838
 7443TIP3    H146524   0.949   5.956   9.480 -0.2789 -1.0890 -1.7586
 7443TIP3    H246525   1.077   5.893   9.533 -0.8083  0.8484  2.2286
 7444TIP3   OH246526   2.777   2.195   8.815 -0.5930 -0.3008 -0.3798
 7444TIP3    H146527   2.736   2.145   8.885  1.3900 -1.9649 -0.3100
 7444TIP3    H246528   2.870   2.176   8.823  0.0923  2.2248 -1.3569
 7445TIP3   OH246529   2.226   6.238   9.341 -0.7795 -0.2646 -0.1889
 7445TIP3    H146530   2.192   6.327   9.347 -0.7776 -0.3433  1.8731
 7445TIP3    H246531   2.281   6.238   9.263 -0.4125  1.6680  0.0235
 7446TIP3   OH246532   2.409   1.992   8.634  0.2779  0.2352  0.1004
 7446TIP3    H146533   2.500   2.014   8.614  0.3852 -0.2179  0.0822
 7446TIP3    H246534   2.402   1.997   8.729  0.2900  0.3767  0.0944
 7447TIP3   OH246535   5.661   0.020   2.395  0.2790  0.0550  0.2258
 7447TIP3    H146536   5.656  -0.065   2.351  1.3246 -0.4552  1.0703
 7447TIP3    H246537   5.739   0.062   2.358  0.1291  0.3837  0.2762
 7448TIP3   OH246538   2.908   2.505   6.531  0.1775 -0.0744 -0.7246
 7448TIP3    H146539   2.856   2.557   6.592 -1.2764 -2.6178  0.3456
 7448TIP3    H246540   2.868   2.519   6.446 -0.4369  0.2392 -0.3865
 7449TIP3   OH246541   4.729   2.123   9.820  0.3958  0.1490 -0.2252
 7449TIP3    H146542   4.643   2.132   9.778 -0.2863 -0.5023  0.9634
 7449TIP3    H246543   4.765   2.042   9.782 -0.3656 -0.6260  0.6554
 7450TIP3   OH246544   0.179   0.340   7.579  0.1364  0.0011  0.0757
 7450TIP3    H146545   0.097   0.305   7.544  0.3421 -0.3882 -0.0365
 7450TIP3    H246546   0.176   0.434   7.560 -0.8253  0.2046  1.1751
 7451TIP3   OH246547   2.275   3.607   0.425  0.2805 -0.9950 -0.8135
 7451TIP3    H146548   2.256   3.619   0.518 -1.9662 -0.7251 -1.2616
 7451TIP3    H246549   2.367   3.631   0.417  0.2116  0.1741  1.1347
 7452TIP3   OH246550   6.047   4.511   8.453  0.2973 -0.2006  0.5897
 7452TIP3    H146551   6.121   4.503   8.393 -0.3290  0.5753 -0.3186
 7452TIP3    H246552   6.065   4.448   8.523  1.9910  0.2231  0.5735
 7453TIP3   OH246553   4.221   5.100   9.607  0.2298 -0.1275 -0.4183
 7453TIP3    H146554   4.146   5.050   9.574  1.1229 -1.1910 -0.8998
 7453TIP3    H246555   4.233   5.171   9.543 -0.7387  0.4366  0.0047
 7454TIP3   OH246556   5.060   7.067   7.707  0.3090 -0.2266  0.5849
 7454TIP3    H146557   5.032   7.141   7.760  1.9849 -0.5440  1.9923
 7454TIP3    H246558   5.012   6.992   7.743  0.7798 -0.2909  1.0922
 7455TIP3   OH246559   3.105   7.410   2.164 -0.2962  0.0744  0.1217
 7455TIP3    H146560   3.062   7.385   2.245 -0.0606  0.8950  0.5048
 7455TIP3    H246561   3.048   7.475   2.124 -0.6281 -0.6336 -0.5977
 7456TIP3   OH246562   2.192   3.793   1.483  0.2468  0.0155  0.2498
 7456TIP3    H146563   2.196   3.747   1.400  1.6902  0.8065 -0.1418
 7456TIP3    H246564   2.138   3.870   1.466 -0.4976 -0.4699  0.3840
 7457TIP3   OH246565   7.003   4.786   8.755 -0.1196 -0.1977  0.7081
 7457TIP3    H146566   7.014   4.692   8.739  0.3411 -0.1249  0.5911
 7457TIP3    H246567   6.912   4.804   8.732  0.0087 -0.4640 -0.0059
 7458TIP3   OH246568   7.136   1.141   7.848  0.0767  0.1075  0.1991
 7458TIP3    H146569   7.111   1.147   7.755  0.6471 -0.8196 -0.0258
 7458TIP3    H246570   7.141   1.232   7.877  0.0160  0.4180 -0.7146
 7459TIP3   OH246571   3.697   1.819   0.102  0.0901  0.1615  0.5975
 7459TIP3    H146572   3.679   1.881   0.031 -0.8043 -0.6911  0.0586
 7459TIP3    H246573   3.793   1.811   0.103  0.1226  0.2126 -0.5032
 7460TIP3   OH246574   2.386   6.155   1.546  0.1345 -0.0661  0.3675
 7460TIP3    H146575   2.441   6.086   1.511  1.5842 -0.1335  2.5648
 7460TIP3    H246576   2.414   6.234   1.500  0.7162 -0.4236  0.0975
 7461TIP3   OH246577   1.683   5.556   6.235 -0.3787  0.5239 -0.0499
 7461TIP3    H146578   1.598   5.585   6.267 -1.1111 -0.6552 -0.8339
 7461TIP3    H246579   1.713   5.626   6.178 -0.8029  0.9676  0.2658
 7462TIP3   OH246580   0.791   3.439   9.105 -0.1173  0.0108 -0.0898
 7462TIP3    H146581   0.827   3.436   9.194  0.4711 -0.2728 -0.3324
 7462TIP3    H246582   0.698   3.420   9.116 -0.4171  1.7304  0.6655
 7463TIP3   OH246583   5.338   6.161   1.134 -0.6235  0.5404  0.2623
 7463TIP3    H146584   5.340   6.086   1.075 -3.3108  1.1158 -0.7213
 7463TIP3    H246585   5.337   6.237   1.076 -1.4941  1.1889  1.0868
 7464TIP3   OH246586   0.767   0.463   0.302 -0.4717  0.7176 -0.1388
 7464TIP3    H146587   0.786   0.536   0.361  1.7699 -0.8376  1.2144
 7464TIP3    H246588   0.834   0.471   0.233  0.1021 -0.2919  0.2839
 7465TIP3   OH246589   6.814   3.994   9.707  0.4205 -0.3171 -0.0043
 7465TIP3    H146590   6.879   4.043   9.657  0.3237 -0.2399 -0.0569
 7465TIP3    H246591   6.732   4.009   9.661  0.4618 -0.8953 -0.2750
 7466TIP3   OH246592   6.748   3.120   1.582  0.8600 -0.2733  0.3157
 7466TIP3    H146593   6.659   3.093   1.600  0.2035  0.5617 -1.4290
 7466TIP3    H246594   6.803   3.049   1.616 -0.5189 -1.2833  0.4814
 7467TIP3   OH246595   1.363   5.960   1.914 -0.4002 -0.3905  0.0444
 7467TIP3    H146596   1.439   6.017   1.916 -1.5978  1.2626  0.4143
 7467TIP3    H246597   1.290   6.015   1.943 -1.4184 -2.4344  1.6498
 7468TIP3   OH246598   7.052   5.149   9.004  0.5513  0.0118  0.4360
 7468TIP3    H146599   7.009   5.231   9.031 -0.5531 -0.0384 -1.0253
 7468TIP3    H246600   7.059   5.156   8.909  0.7124 -1.4605  0.3140
 7469TIP3   OH246601   4.691   6.118   2.133  0.0505  0.4831 -0.3008
 7469TIP3    H146602   4.759   6.168   2.089  1.0935  0.2637  0.9855
 7469TIP3    H246603   4.698   6.144   2.225 -1.1582 -0.0502 -0.0373
 7470TIP3   OH246604   1.936   0.504   1.217 -0.3596  0.1382 -0.3363
 7470TIP3    H146605   1.948   0.593   1.184 -0.6829 -0.1457 -1.2415
 7470TIP3    H246606   1.844   0.484   1.201 -0.4956 -0.0606  0.6361
 7471TIP3   OH246607   2.788   2.876   9.375 -0.1060  0.0171  0.2309
 7471TIP3    H146608   2.809   2.846   9.286 -0.2319 -0.0085  0.2098
 7471TIP3    H246609   2.870   2.913   9.407  0.0632 -0.3790  0.2673
 7472TIP3   OH246610   0.520   7.148   7.203  0.0227  0.1220  0.0318
 7472TIP3    H146611   0.521   7.212   7.274  0.8478  1.6983 -1.3087
 7472TIP3    H246612   0.441   7.169   7.152  0.9888  1.0223 -1.1697
 7473TIP3   OH246613   5.660   0.964   8.683  0.2870  0.1350 -0.1598
 7473TIP3    H146614   5.641   0.913   8.762 -1.4731  0.5685 -0.2638
 7473TIP3    H246615   5.676   0.899   8.615  0.6329 -0.2492  0.2800
 7474TIP3   OH246616   2.430   7.271   8.198  0.6605 -0.1111  0.1760
 7474TIP3    H146617   2.451   7.357   8.233  1.0053  0.0809 -0.4812
 7474TIP3    H246618   2.424   7.214   8.275  1.1199  0.3554  0.5630
 7475TIP3   OH246619   7.439   6.802   7.039 -0.3707  0.1955  0.1173
 7475TIP3    H146620   7.516   6.829   7.090 -0.9839  0.2906  1.0185
 7475TIP3    H246621   7.411   6.720   7.079 -1.4616  0.7820  0.6038
 7476TIP3   OH246622   5.523   2.595   0.174  0.7482 -0.2276  0.2868
 7476TIP3    H146623   5.598   2.571   0.228  0.6162  3.6489  2.6156
 7476TIP3    H246624   5.457   2.528   0.193  1.5683 -0.3324  3.2007
 7477TIP3   OH246625   3.418   5.698   7.263  0.3507  0.1199  0.2823
 7477TIP3    H146626   3.461   5.623   7.221 -1.3576 -1.5218  1.3505
 7477TIP3    H246627   3.490   5.757   7.284  1.6965 -0.9387 -1.0962
 7478TIP3   OH246628   4.422   2.882   9.620 -0.1817 -0.0057 -0.2901
 7478TIP3    H146629   4.380   2.808   9.576 -0.3390  0.4493 -0.9207
 7478TIP3    H246630   4.350   2.928   9.664  0.1297 -1.1226  1.4647
 7479TIP3   OH246631   6.768   4.842   8.380  0.5305 -0.4668 -0.1276
 7479TIP3    H146632   6.840   4.905   8.381 -0.3294  0.5422 -0.5382
 7479TIP3    H246633   6.690   4.893   8.402  0.1415 -1.8646  2.1020
 7480TIP3   OH246634   2.232   4.197   6.710 -0.1925 -0.2733 -0.4342
 7480TIP3    H146635   2.293   4.272   6.713  0.3589 -0.7209 -0.1394
 7480TIP3    H246636   2.284   4.125   6.674 -1.5607  0.2122 -3.6561
 7481TIP3   OH246637   1.404   1.168   1.829 -0.3035  0.0323 -0.1161
 7481TIP3    H146638   1.370   1.084   1.861  0.8754 -0.8401 -1.0617
 7481TIP3    H246639   1.429   1.216   1.909 -0.7729 -0.6086  0.4253
 7482TIP3   OH246640   5.226   5.348   0.604 -0.2003 -0.2407 -0.3726
 7482TIP3    H146641   5.161   5.280   0.583 -1.1544 -0.6220  3.0391
 7482TIP3    H246642   5.285   5.306   0.667 -0.0372  1.6780  0.8499
 7483TIP3   OH246643   4.891   1.526   1.379  0.5583  0.1583  0.7625
 7483TIP3    H146644   4.859   1.495   1.464 -0.0626  0.1542  0.5293
 7483TIP3    H246645   4.893   1.622   1.387 -1.9217  0.3318 -0.0439
 7484TIP3   OH246646   7.344   0.262   1.879  0.6713 -0.0371  0.6102
 7484TIP3    H146647   7.431   0.297   1.898 -0.1133  1.6586  1.2532
 7484TIP3    H246648   7.297   0.266   1.962 -0.2152 -0.4126  0.1462
 7485TIP3   OH246649   7.029   3.528   0.005  0.2048 -0.4434  0.1073
 7485TIP3    H146650   6.988   3.594  -0.052 -0.2172  0.2829  1.2252
 7485TIP3    H246651   7.010   3.445  -0.038  1.0481  0.1665 -1.5266
 7486TIP3   OH246652   4.641   3.073   9.333 -0.1520  0.1866 -0.1793
 7486TIP3    H146653   4.643   3.164   9.307 -1.1199  0.8395  1.8126
 7486TIP3    H246654   4.701   3.068   9.408 -0.3233 -0.7360 -0.0889
 7487TIP3   OH246655   1.033   4.632   2.399  0.2823  0.4384 -0.3206
 7487TIP3    H146656   0.968   4.564   2.379  1.5726 -0.2813 -2.4487
 7487TIP3    H246657   1.030   4.642   2.494  0.0301 -2.6046  0.0801
 7488TIP3   OH246658   6.676   3.540   1.222  0.4985  0.1237 -0.1798
 7488TIP3    H146659   6.593   3.501   1.196  0.2363  0.1115  0.6453
 7488TIP3    H246660   6.660   3.576   1.309  0.8748  1.6469 -0.6996
 7489TIP3   OH246661   6.179   5.060   0.189 -0.6485 -0.0878  0.0371
 7489TIP3    H146662   6.224   5.011   0.119 -0.8021 -1.1906  0.6899
 7489TIP3    H246663   6.088   5.065   0.159 -1.0025 -1.7009  0.7130
 7490TIP3   OH246664   1.020   7.120   2.177 -0.4953  0.4630  0.3795
 7490TIP3    H146665   1.021   7.062   2.253  0.3441  0.3811  0.3178
 7490TIP3    H246666   0.955   7.081   2.118 -0.1341 -0.2686  0.4554
 7491TIP3   OH246667   5.209   0.392   9.655 -0.6789  0.6534 -0.0544
 7491TIP3    H146668   5.300   0.365   9.643 -0.5966  1.0207 -0.2932
 7491TIP3    H246669   5.211   0.454   9.728 -0.8943 -0.1174  0.6162
 7492TIP3   OH246670   1.534   3.606   8.883  0.0848 -0.7317 -0.2265
 7492TIP3    H146671   1.520   3.688   8.931 -0.2167 -0.3164 -1.0072
 7492TIP3    H246672   1.491   3.620   8.799  0.0584 -1.6874 -0.3813
 7493TIP3   OH246673   3.642   0.586   0.847 -0.4526  0.3616  0.4113
 7493TIP3    H146674   3.580   0.535   0.900  0.6228 -1.1090  0.3196
 7493TIP3    H246675   3.650   0.669   0.893 -2.1070  0.4145  0.6852
 7494TIP3   OH246676   5.085   1.572   9.961  0.1660 -0.3534  0.3905
 7494TIP3    H146677   5.097   1.657   9.920 -0.2868  0.1086  1.2018
 7494TIP3    H246678   4.991   1.554   9.954  0.4038 -1.3071 -0.7601
 7495TIP3   OH246679   5.254   0.554   8.243  0.3290 -0.7424 -0.2646
 7495TIP3    H146680   5.208   0.547   8.159 -0.1176  0.1581 -0.1077
 7495TIP3    H246681   5.196   0.511   8.306 -1.6637  2.6080  0.4180
 7496TIP3   OH246682   3.745   6.725   6.979 -0.3483 -0.2773  0.5018
 7496TIP3    H146683   3.682   6.686   6.918 -1.4560  0.3327  1.2325
 7496TIP3    H246684   3.712   6.703   7.066 -0.6652  1.7098  0.9278
 7497TIP3   OH246685   1.705   6.828   9.233 -0.4809 -0.4142 -0.0001
 7497TIP3    H146686   1.624   6.832   9.183 -0.7888  1.5829  0.5926
 7497TIP3    H246687   1.678   6.820   9.324  0.0482 -1.6217  0.0790
 7498TIP3   OH246688   4.351   1.328   9.858 -0.3394  0.0946  0.8240
 7498TIP3    H146689   4.310   1.290   9.780  0.3572 -1.6777  1.2787
 7498TIP3    H246690   4.445   1.328   9.838 -0.3392  2.3591  0.5496
 7499TIP3   OH246691   2.514   4.989   8.012  0.0386  0.4051  0.3453
 7499TIP3    H146692   2.502   5.084   8.006  0.9634  0.4943 -0.2321
 7499TIP3    H246693   2.463   4.964   8.089 -1.2128  1.1844 -0.1866
 7500TIP3   OH246694   2.277   6.575   1.393 -0.0270 -0.1003  0.4654
 7500TIP3    H146695   2.212   6.598   1.326  0.1904  0.0318  0.2993
 7500TIP3    H246696   2.268   6.643   1.459  0.2479  0.1722  0.2283
 7501TIP3   OH246697   0.663   6.916   9.950 -0.6721  0.1661  1.4131
 7501TIP3    H146698   0.570   6.940   9.946 -1.3491 -2.2918 -1.4546
 7501TIP3    H246699   0.663   6.830   9.993  0.2422  0.1125  1.3206
 7502TIP3   OH246700   0.374   2.522   7.682 -0.0337 -0.3525  0.0323
 7502TIP3    H146701   0.378   2.457   7.752  0.6148  0.2523  0.5808
 7502TIP3    H246702   0.460   2.519   7.641 -1.2323 -2.7323 -2.7095
 7503TIP3   OH246703   3.913   2.481   2.223 -0.0704 -0.4210 -0.5829
 7503TIP3    H146704   3.823   2.490   2.254  0.3835  1.0194  0.4492
 7503TIP3    H246705   3.956   2.427   2.290  0.3762  0.8684  0.2130
 7504TIP3   OH246706   0.303   1.647   7.134 -0.1721  0.0129 -0.2564
 7504TIP3    H146707   0.322   1.730   7.177  0.2970 -0.0898 -0.2524
 7504TIP3    H246708   0.357   1.648   7.055  1.0447 -0.9275  0.5078
 7505TIP3   OH246709   6.202   0.163   0.601  0.1103  0.2995  0.0617
 7505TIP3    H146710   6.207   0.171   0.697  1.8391 -0.0738  0.0464
 7505TIP3    H246711   6.293   0.146   0.575 -0.6476 -1.7814 -1.4504
 7506TIP3   OH246712   3.538   2.898   1.845  0.2361  0.5547 -0.7489
 7506TIP3    H146713   3.538   2.858   1.932  0.2480  0.9393 -0.5704
 7506TIP3    H246714   3.602   2.848   1.796  0.5412  0.6066 -0.4088
 7507TIP3   OH246715   5.004   2.275   9.507 -0.4976 -0.7946  0.6947
 7507TIP3    H146716   5.029   2.345   9.446 -3.1994 -0.3609 -0.0604
 7507TIP3    H246717   4.955   2.319   9.575 -2.3169 -1.9133  0.1715
 7508TIP3   OH246718   3.233   3.748   8.381  0.2439  0.0978 -0.3065
 7508TIP3    H146719   3.294   3.812   8.344  0.0067  1.2408  1.1797
 7508TIP3    H246720   3.277   3.716   8.460 -0.2287 -0.5698 -0.3018
 7509TIP3   OH246721   0.231   3.216   8.802  0.2823 -0.6733  0.0127
 7509TIP3    H146722   0.219   3.251   8.891  0.8607  0.3144 -0.2889
 7509TIP3    H246723   0.286   3.138   8.815 -0.0770 -0.8485  0.5659
 7510TIP3   OH246724   4.323   4.471   1.508 -0.6717 -0.1781 -0.0870
 7510TIP3    H146725   4.367   4.404   1.455 -0.6292  0.3009 -0.6760
 7510TIP3    H246726   4.325   4.437   1.597 -0.8915 -1.0865 -0.4169
 7511TIP3   OH246727   1.873   3.715   1.827 -0.1908  0.2313 -0.4177
 7511TIP3    H146728   1.861   3.627   1.792  0.6402  0.0016 -0.1496
 7511TIP3    H246729   1.968   3.725   1.836 -0.3393  0.4302  1.3636
 7512TIP3   OH246730   0.578   6.838   9.136 -0.0422 -0.3676 -0.0438
 7512TIP3    H146731   0.532   6.792   9.206 -0.0403 -0.5555 -0.1632
 7512TIP3    H246732   0.669   6.809   9.145  0.2511  0.7571  0.8081
 7513TIP3   OH246733   0.508   6.273   7.699  0.0287  0.0818 -0.4869
 7513TIP3    H146734   0.544   6.360   7.681  1.8043 -0.2255  1.2612
 7513TIP3    H246735   0.472   6.280   7.788  2.6180 -1.5683  0.8306
 7514TIP3   OH246736   1.575   7.229   2.709  0.4913  0.0060 -0.0676
 7514TIP3    H146737   1.538   7.148   2.674  1.0083 -0.6858  0.9449
 7514TIP3    H246738   1.536   7.237   2.796  0.9856  0.4754  0.1126
 7515TIP3   OH246739   1.561   0.381   0.404 -0.2297 -0.5569 -0.3027
 7515TIP3    H146740   1.578   0.374   0.310  1.2537 -0.2959 -0.0784
 7515TIP3    H246741   1.494   0.450   0.411  0.7154  0.4847 -1.0866
 7516TIP3   OH246742   1.929   5.154   7.512 -0.3839 -0.0291  0.5597
 7516TIP3    H146743   1.962   5.066   7.530  0.1302 -0.1361 -0.7823
 7516TIP3    H246744   2.005   5.201   7.477 -1.2340  0.2097 -1.0588
 7517TIP3   OH246745   0.323   0.392   0.425  0.2785  0.1483 -0.2176
 7517TIP3    H146746   0.413   0.369   0.404  0.1523 -0.5528 -0.0232
 7517TIP3    H246747   0.309   0.477   0.383  1.0493  0.2940 -0.1803
 7518TIP3   OH246748   3.915   1.398   2.147  0.1666 -0.3090 -0.2557
 7518TIP3    H146749   3.957   1.325   2.191  0.1061  1.2292  2.5657
 7518TIP3    H246750   3.823   1.392   2.173 -0.1110 -0.0030 -1.1221
 7519TIP3   OH246751   2.159   6.689   9.088 -0.2256 -0.3161 -0.2393
 7519TIP3    H146752   2.213   6.733   9.022  0.5292  1.2775  1.3414
 7519TIP3    H246753   2.078   6.669   9.043  0.5653 -0.0135 -1.8646
 7520TIP3   OH246754   6.474   7.024   8.484 -0.0751  0.4756  0.2600
 7520TIP3    H146755   6.419   7.101   8.497 -0.4475  0.0986  1.0178
 7520TIP3    H246756   6.448   6.989   8.399  0.4454  1.4516 -0.3244
 7521TIP3   OH246757   3.348   2.728   0.117  0.2299  0.5559  0.3155
 7521TIP3    H146758   3.419   2.675   0.151  1.4097  2.2314  0.6198
 7521TIP3    H246759   3.385   2.816   0.110 -1.9387  1.5976  0.9389
 7522TIP3   OH246760   5.238   5.451   0.905  0.7519 -0.0590  0.1267
 7522TIP3    H146761   5.282   5.368   0.887  1.3039 -0.1713  1.8345
 7522TIP3    H246762   5.265   5.508   0.834  1.3651 -0.9790 -0.3998
 7523TIP3   OH246763   2.649   7.150   7.540  0.2365  0.2071 -0.3021
 7523TIP3    H146764   2.566   7.183   7.575  0.5481  1.3061 -0.5558
 7523TIP3    H246765   2.708   7.225   7.543  1.3775 -0.6770  0.2975
 7524TIP3   OH246766   1.952   1.568   1.139  0.6189  0.1326  0.0144
 7524TIP3    H146767   2.003   1.516   1.077 -0.3954 -0.5966 -0.2140
 7524TIP3    H246768   2.009   1.643   1.158  1.8717 -0.7609 -0.0645
 7525TIP3   OH246769   2.576   0.431   8.710  0.0776  0.3516  0.0055
 7525TIP3    H146770   2.642   0.438   8.779 -0.1494  3.1341  0.0305
 7525TIP3    H246771   2.493   0.446   8.755 -0.2164  0.6698 -0.6347
 7526TIP3   OH246772   1.352   7.325   7.454 -0.0963  0.2904 -0.3623
 7526TIP3    H146773   1.327   7.297   7.366 -1.2024  1.0078 -0.2970
 7526TIP3    H246774   1.308   7.409   7.466 -1.0262 -0.3874  1.3570
 7527TIP3   OH246775   6.957   6.486   9.772  0.5618  0.0252 -0.5825
 7527TIP3    H146776   7.036   6.454   9.817  0.5663  0.4561 -0.2787
 7527TIP3    H246777   6.985   6.569   9.733  0.1657  0.3485 -0.1836
 7528TIP3   OH246778   7.005   0.118   7.632  0.5824  0.1512  0.3750
 7528TIP3    H146779   7.026   0.161   7.550  1.2226 -0.0256  0.4352
 7528TIP3    H246780   7.028   0.181   7.700  2.6284 -0.6640  0.5089
 7529TIP3   OH246781   3.588   0.260   7.642 -0.1133  0.1423  0.0336
 7529TIP3    H146782   3.625   0.234   7.726 -0.0564 -0.4572 -0.1661
 7529TIP3    H246783   3.646   0.219   7.577 -0.3472  0.3225 -0.2896
 7530TIP3   OH246784   4.700   0.438   9.165  0.3168  0.0068  0.3560
 7530TIP3    H146785   4.749   0.517   9.140 -0.7539  0.9903  1.2589
 7530TIP3    H246786   4.732   0.417   9.253 -0.7251  0.5615  0.8879
 7531TIP3   OH246787   3.375   4.152   8.335  0.5558  0.2376 -0.2372
 7531TIP3    H146788   3.436   4.217   8.370  2.2578 -1.8024  0.8299
 7531TIP3    H246789   3.370   4.171   8.241  1.9232  1.1741 -0.1445
 7532TIP3   OH246790   5.950   4.572   1.628  0.7819 -0.2932  0.8189
 7532TIP3    H146791   5.968   4.665   1.615  3.1811 -0.7073  0.6877
 7532TIP3    H246792   5.948   4.536   1.539 -1.4932 -0.2140  0.7783
 7533TIP3   OH246793   1.735   3.598   7.667 -0.3371 -0.0702  0.0718
 7533TIP3    H146794   1.780   3.538   7.607  0.7331  0.8510 -0.0851
 7533TIP3    H246795   1.804   3.659   7.696 -1.1643  0.4285  1.0506
 7534TIP3   OH246796   2.694   4.296   8.061  0.3948 -0.2695  0.1375
 7534TIP3    H146797   2.614   4.246   8.078 -0.3548  1.3132  1.5712
 7534TIP3    H246798   2.765   4.234   8.078 -0.5128 -1.2627  0.4006
 7535TIP3   OH246799   7.204   0.608   9.478 -0.2873 -0.6849  0.1535
 7535TIP3    H146800   7.224   0.694   9.514  0.8163 -0.3076 -1.2984
 7535TIP3    H246801   7.112   0.613   9.453 -0.3663 -0.0998  0.5480
 7536TIP3   OH246802   3.490   5.889   6.596  0.3727 -0.3494  0.5177
 7536TIP3    H146803   3.452   5.851   6.517  1.6590 -0.4048 -0.1013
 7536TIP3    H246804   3.509   5.813   6.652 -3.0656 -0.1911  2.1595
 7537TIP3   OH246805   6.803   3.898   7.640 -0.4833 -0.4046  0.5922
 7537TIP3    H146806   6.891   3.919   7.670 -0.3971  1.6940 -0.9232
 7537TIP3    H246807   6.811   3.811   7.602  0.2565 -1.4370  2.9281
 7538TIP3   OH246808   2.013   2.022   1.038 -0.2417 -0.4234  0.2029
 7538TIP3    H146809   1.926   2.052   1.066 -0.0716  0.5739 -0.2592
 7538TIP3    H246810   2.042   1.962   1.106 -0.5645  0.5897  1.2689
 7539TIP3   OH246811   4.229   5.979   0.672  0.4219 -0.4724 -0.2749
 7539TIP3    H146812   4.158   5.937   0.721  0.2953  2.0542  1.9630
 7539TIP3    H246813   4.191   5.998   0.586 -1.4526  0.2500  0.6563
 7540TIP3   OH246814   0.462   1.368   8.043  0.1002  0.2820 -0.9834
 7540TIP3    H146815   0.401   1.401   8.109  1.6798 -2.6574  2.2441
 7540TIP3    H246816   0.455   1.273   8.050  2.3285 -0.1459 -3.2112
 7541TIP3   OH246817   3.511   1.198   1.912 -0.0412 -0.0846  0.5219
 7541TIP3    H146818   3.586   1.249   1.943 -0.1915  0.1570  0.4924
 7541TIP3    H246819   3.518   1.114   1.958 -0.1530  0.1971  1.0686
 7542TIP3   OH246820   5.666   2.974   2.014 -0.5639  0.4835  0.3441
 7542TIP3    H146821   5.655   2.957   2.108 -0.5859  0.9568  0.4299
 7542TIP3    H246822   5.693   2.890   1.977  1.1811  0.6990  1.0608
 7543TIP3   OH246823   4.768   1.987   0.297  0.0392  0.3372 -0.0643
 7543TIP3    H146824   4.807   2.037   0.225 -0.8947  0.8884 -0.2172
 7543TIP3    H246825   4.675   1.982   0.274 -0.1977  0.1514  0.8900
 7544TIP3   OH246826   7.192   0.921   1.576  0.7665 -0.7039 -0.1031
 7544TIP3    H146827   7.138   0.905   1.653  0.6478 -0.5227 -0.1485
 7544TIP3    H246828   7.280   0.937   1.611  0.8172 -1.1138 -0.0374
 7545TIP3   OH246829   4.804   4.303   1.612  0.0964  0.3046  0.4048
 7545TIP3    H146830   4.788   4.221   1.566  1.4727  0.3353 -0.1670
 7545TIP3    H246831   4.865   4.280   1.683 -1.3522  0.4109  1.7470
 7546TIP3   OH246832   2.266   6.963   2.644 -0.0013 -0.5703 -0.7537
 7546TIP3    H146833   2.233   7.048   2.674 -0.4372  0.1015 -2.9474
 7546TIP3    H246834   2.337   6.942   2.705  0.3592  1.5411 -0.3622
 7547TIP3   OH246835   3.507   2.455   0.226 -0.2177 -0.5337 -0.1692
 7547TIP3    H146836   3.510   2.482   0.318  1.1873  1.4448 -0.7058
 7547TIP3    H246837   3.579   2.393   0.217  1.1346  0.9807 -0.3377
 7548TIP3   OH246838   0.250   5.204   0.842 -0.6203  0.2427 -0.3854
 7548TIP3    H146839   0.184   5.168   0.784  0.8089 -1.4462 -1.0246
 7548TIP3    H246840   0.328   5.214   0.788 -0.7334  4.0014 -0.1660
 7549TIP3   OH246841   1.209   3.521   9.418  0.2215  0.2261 -0.2057
 7549TIP3    H146842   1.156   3.589   9.460  4.0018  2.5672  1.3372
 7549TIP3    H246843   1.188   3.528   9.325 -2.5068  0.5735  0.3666
 7550TIP3   OH246844   3.025   0.896   3.180  0.0732 -0.0497 -0.0248
 7550TIP3    H146845   3.114   0.863   3.190 -0.0751 -0.3964  0.1814
 7550TIP3    H246846   3.032   0.990   3.198  0.3515 -0.1220  0.2495
 7551TIP3   OH246847   1.901   5.766   1.918  0.1928 -0.0533  0.5526
 7551TIP3    H146848   1.876   5.831   1.852  3.9715  2.8634  1.6602
 7551TIP3    H246849   1.893   5.682   1.873 -2.0852  1.3331 -1.9306
 7552TIP3   OH246850   3.861   3.086   1.083  0.0187  0.1906 -0.1279
 7552TIP3    H146851   3.922   3.035   1.028  0.5458  0.3240  0.3200
 7552TIP3    H246852   3.782   3.095   1.029  0.0420 -0.8089 -0.3425
 7553TIP3   OH246853   4.261   7.385   8.733  0.4706 -0.9283 -0.9669
 7553TIP3    H146854   4.234   7.369   8.824 -3.6335  3.0657 -1.1412
 7553TIP3    H246855   4.278   7.297   8.698 -0.2037 -2.8545  2.9646
 7554TIP3   OH246856   6.051   0.606   1.110  0.0939 -0.0597 -0.1633
 7554TIP3    H146857   5.973   0.638   1.065  0.0230  0.5068  0.3453
 7554TIP3    H246858   6.071   0.675   1.174 -0.4470 -1.3149  1.4186
 7555TIP3   OH246859   0.856   1.189   0.306  0.1948  0.1758  0.1369
 7555TIP3    H146860   0.797   1.113   0.313  0.1619  0.1118 -0.7275
 7555TIP3    H246861   0.886   1.187   0.216  2.8745 -0.7796  0.9645
 7556TIP3   OH246862   1.293   1.742   0.834  0.1204 -0.7951  0.2014
 7556TIP3    H146863   1.221   1.679   0.833  0.3607 -1.0703  0.3484
 7556TIP3    H246864   1.271   1.804   0.764 -0.0649 -1.0953 -0.0059
 7557TIP3   OH246865   1.356   1.847   2.285 -1.5498 -0.1384 -0.4225
 7557TIP3    H146866   1.348   1.943   2.289  1.3240  0.2249 -1.0089
 7557TIP3    H246867   1.326   1.825   2.197 -1.3424  0.3414 -0.6188
 7558TIP3   OH246868   6.273   5.875   8.616 -0.0217 -0.2185 -0.4813
 7558TIP3    H146869   6.240   5.909   8.699  1.9217  2.9676 -0.8548
 7558TIP3    H246870   6.326   5.799   8.640 -0.3239  0.0275  1.0502
 7559TIP3   OH246871   0.249   1.556   1.748 -0.7428 -0.4750 -0.1632
 7559TIP3    H146872   0.290   1.637   1.716 -0.6533  0.0620  1.2001
 7559TIP3    H246873   0.308   1.486   1.721 -0.3536  0.0193 -0.6036
 7560TIP3   OH246874   0.391   2.033   8.599  0.0399 -0.2354 -0.1561
 7560TIP3    H146875   0.429   2.070   8.679 -2.4732  0.3884  0.8471
 7560TIP3    H246876   0.351   2.108   8.555 -1.9964 -1.1587  0.0433
 7561TIP3   OH246877   1.794   3.317   1.319 -0.4223  0.3350  0.0781
 7561TIP3    H146878   1.864   3.346   1.376 -1.0637  1.4368  0.3374
 7561TIP3    H246879   1.722   3.294   1.379 -1.0032  1.2381 -0.2523
 7562TIP3   OH246880   2.781   1.681   8.425 -0.0167  0.6801  0.1723
 7562TIP3    H146881   2.830   1.722   8.496  1.7361 -1.9964  0.6183
 7562TIP3    H246882   2.831   1.702   8.346 -0.0491  0.7683  0.1750
 7563TIP3   OH246883   2.866   1.936   1.189  0.3109 -0.1535 -0.4714
 7563TIP3    H146884   2.778   1.952   1.224  0.6387  1.0719 -0.1719
 7563TIP3    H246885   2.856   1.859   1.133 -0.4993 -1.3828  1.2698
 7564TIP3   OH246886   1.250   5.223   1.093 -0.0637  0.0999 -0.1420
 7564TIP3    H146887   1.159   5.199   1.080  0.3263 -0.5304 -2.0800
 7564TIP3    H246888   1.293   5.141   1.118  0.0494  0.2769  0.2383
 7565TIP3   OH246889   1.320   3.602   7.201 -0.6200 -0.4187  0.4935
 7565TIP3    H146890   1.295   3.552   7.280  0.7470  1.4877  2.2455
 7565TIP3    H246891   1.407   3.568   7.179  0.9420  1.9057  2.5247
 7566TIP3   OH246892   0.705   4.808   1.416  0.7835  0.1605  0.2034
 7566TIP3    H146893   0.669   4.855   1.341  0.7576  0.4000  0.3651
 7566TIP3    H246894   0.799   4.803   1.398  0.8886  0.8879  0.5151
 7567TIP3   OH246895   6.702   0.412   0.351 -0.3308  0.0137  0.6003
 7567TIP3    H146896   6.757   0.367   0.414  0.2756 -0.3651 -0.1727
 7567TIP3    H246897   6.733   0.381   0.266 -1.9491 -0.4520  0.1439
 7568TIP3   OH246898   1.838   5.013   9.986  0.7963  0.0138  0.3914
 7568TIP3    H146899   1.763   4.981   9.936 -0.1726  1.4368  0.8926
 7568TIP3    H246900   1.910   4.954   9.961 -0.5798 -1.6710  0.2748
 7569TIP3   OH246901   0.215   1.657   2.001 -0.1616  0.0497 -0.3946
 7569TIP3    H146902   0.218   1.622   1.912  1.6511  1.8201 -1.1099
 7569TIP3    H246903   0.266   1.594   2.052 -1.2621 -1.0118 -0.5693
 7570TIP3   OH246904   1.880   5.233   8.180 -0.4118  0.2988 -0.5699
 7570TIP3    H146905   1.902   5.147   8.144 -1.6322  0.4282 -1.6936
 7570TIP3    H246906   1.789   5.226   8.207 -0.7451  1.4188 -1.3145
 7571TIP3   OH246907   3.069   1.936   1.396  0.0245 -0.0709 -0.1849
 7571TIP3    H146908   2.985   1.950   1.351 -2.3649  1.5295  4.2157
 7571TIP3    H246909   3.121   2.013   1.373 -0.6850  0.1781 -1.0123
 7572TIP3   OH246910   6.386   5.881   0.851 -0.1913 -0.1131 -0.6231
 7572TIP3    H146911   6.398   5.807   0.911  1.2869  1.3858  1.0599
 7572TIP3    H246912   6.460   5.874   0.791  0.0391  0.0552 -0.3652
 7573TIP3   OH246913   3.235   3.048   0.612 -0.1528 -0.1844 -0.0835
 7573TIP3    H146914   3.275   3.132   0.636  0.5105 -0.3234 -0.6643
 7573TIP3    H246915   3.188   3.020   0.690  0.3629  0.2965  0.4038
 7574TIP3   OH246916   4.599   0.983   9.295 -0.1934 -0.6077  0.1720
 7574TIP3    H146917   4.563   0.894   9.298 -1.1044 -0.2997 -1.0367
 7574TIP3    H246918   4.659   0.983   9.221 -0.0401 -0.2595  0.2919
 7575TIP3   OH246919   5.878   0.133   2.287 -0.1268  0.1593  0.5015
 7575TIP3    H146920   5.908   0.204   2.343  0.3379  0.2912  0.0894
 7575TIP3    H246921   5.957   0.098   2.246 -0.5206  0.6460 -0.7492
 7576TIP3   OH246922   2.042   4.712   1.876  0.2081  0.2068 -0.5173
 7576TIP3    H146923   1.958   4.757   1.880 -0.0371  0.0361 -2.6960
 7576TIP3    H246924   2.043   4.655   1.953 -2.5744 -1.2752 -1.4459
 7577TIP3   OH246925   0.473   5.864   9.376  0.2717 -0.1958 -0.4520
 7577TIP3    H146926   0.388   5.825   9.396 -0.5388  1.9383  0.5439
 7577TIP3    H246927   0.480   5.937   9.437  1.8886  0.9544 -1.9471
 7578TIP3   OH246928   1.594   6.098   7.692  0.4546  0.0424 -0.0934
 7578TIP3    H146929   1.573   6.127   7.781 -0.2512 -0.0170 -0.2332
 7578TIP3    H246930   1.530   6.143   7.636 -1.1175 -2.2361 -0.2503
 7579TIP3   OH246931   1.751   1.808   0.862  0.9384 -0.0135  0.0838
 7579TIP3    H146932   1.745   1.762   0.779 -0.3208  0.9365 -0.3878
 7579TIP3    H246933   1.673   1.781   0.910  2.0460 -1.1620  1.3115
 7580TIP3   OH246934   5.785   6.704   9.118  0.7128  0.4542 -0.2532
 7580TIP3    H146935   5.792   6.626   9.063  1.2417 -0.0247  0.4701
 7580TIP3    H246936   5.700   6.695   9.161  0.8535  0.1729 -0.0283
 7581TIP3   OH246937   0.237   2.381   9.673 -0.3692 -0.4070  0.5085
 7581TIP3    H146938   0.323   2.420   9.654  0.1089 -0.6411  2.0221
 7581TIP3    H246939   0.246   2.290   9.647 -0.0959 -0.4636  0.7868
 7582TIP3   OH246940   7.263   7.272   9.175  0.3236 -0.0127 -0.4925
 7582TIP3    H146941   7.345   7.253   9.221  0.0705 -0.1588 -0.0988
 7582TIP3    H246942   7.261   7.210   9.102  0.4440 -0.1763 -0.3563
 7583TIP3   OH246943   5.004   7.458   1.147 -0.4723 -0.7775 -0.0089
 7583TIP3    H146944   5.018   7.454   1.241 -0.8474 -2.2249  0.0177
 7583TIP3    H246945   5.072   7.516   1.114 -0.9682  0.5692  1.2574
 7584TIP3   OH246946   6.073   5.729   9.426 -0.0583 -0.1366  0.4816
 7584TIP3    H146947   6.006   5.709   9.361 -0.2670  0.5442  0.4805
 7584TIP3    H246948   6.027   5.782   9.492  0.5795  0.6852  0.2650
 7585TIP3   OH246949   3.124   4.083   1.321  0.3078 -0.3786 -0.2544
 7585TIP3    H146950   3.129   3.992   1.350 -0.4795 -0.4628 -0.3534
 7585TIP3    H246951   3.154   4.134   1.397  1.0998 -0.7281 -0.3239
 7586TIP3   OH246952   1.866   5.246   7.239  0.2877  0.3185  0.8102
 7586TIP3    H146953   1.816   5.326   7.253  0.8116  0.5533  1.3875
 7586TIP3    H246954   1.831   5.184   7.303 -1.3748 -0.5463 -0.8078
 7587TIP3   OH246955   6.747   2.311   2.030 -0.0205  0.1586  0.4612
 7587TIP3    H146956   6.775   2.364   1.955  0.1936 -2.8764 -1.7949
 7587TIP3    H246957   6.828   2.274   2.063 -0.3262 -0.0839  0.9387
 7588TIP3   OH246958   1.856   5.111   6.979  0.1469  0.2052 -0.3302
 7588TIP3    H146959   1.862   5.182   7.043  1.3580  0.4433 -0.6768
 7588TIP3    H246960   1.834   5.034   7.031 -2.2144  0.9587 -0.0619
 7589TIP3   OH246961   0.741   0.021   9.615 -0.7850 -0.2722 -0.5070
 7589TIP3    H146962   0.677   0.077   9.658 -0.3953  0.5498 -0.9833
 7589TIP3    H246963   0.757   0.063   9.530  0.9957  0.0168 -0.0668
 7590TIP3   OH246964   3.711   2.565   9.207  0.6327 -0.3346 -0.1230
 7590TIP3    H146965   3.805   2.578   9.200  0.6323  0.2495  0.8127
 7590TIP3    H246966   3.697   2.536   9.297 -0.2772  1.3734  0.3192
 7591TIP3   OH246967   6.955   0.719   9.876 -0.3628 -0.0829 -0.0416
 7591TIP3    H146968   6.917   0.795   9.833 -1.4093  0.5096  1.8217
 7591TIP3    H246969   7.040   0.707   9.834 -0.8883  1.0850 -1.4998
 7592TIP3   OH246970   3.290   0.851   3.117  0.2428 -0.0173  0.0784
 7592TIP3    H146971   3.367   0.898   3.086  0.0036  0.8410  0.7690
 7592TIP3    H246972   3.318   0.759   3.119  1.4854  0.3496  0.9785
 7593TIP3   OH246973   2.919   5.503   8.169  0.1190  0.3436  0.3210
 7593TIP3    H146974   2.901   5.596   8.182 -1.0646  0.2027 -0.1538
 7593TIP3    H246975   2.998   5.501   8.115  1.5376  1.0020  2.3004
 7594TIP3   OH246976   3.549   0.244   0.239 -0.4564 -0.4726  0.8854
 7594TIP3    H146977   3.575   0.159   0.275  0.0081 -0.9528 -0.5288
 7594TIP3    H246978   3.620   0.303   0.263 -0.8795 -0.4190  2.0554
 7595TIP3   OH246979   4.602   4.577   0.419  0.0550 -0.6187  0.4119
 7595TIP3    H146980   4.667   4.641   0.392 -0.6111 -0.2599 -0.3660
 7595TIP3    H246981   4.640   4.492   0.396  0.0566 -0.3835 -0.4651
 7596TIP3   OH246982   6.692   2.061   8.879 -0.3951 -0.4132  0.3979
 7596TIP3    H146983   6.673   2.093   8.791  2.0241 -0.1693 -0.1130
 7596TIP3    H246984   6.649   1.976   8.884  2.7358 -2.4990 -2.6836
 7597TIP3   OH246985   4.097   0.555   8.337 -0.8943  0.0498  0.0206
 7597TIP3    H146986   4.158   0.521   8.272 -2.4053 -0.7729 -1.0338
 7597TIP3    H246987   4.080   0.645   8.310  1.1838  0.9332  1.3791
 7598TIP3   OH246988   0.109   1.899   9.137 -0.0010  0.3969  0.2759
 7598TIP3    H146989   0.039   1.849   9.178 -1.1373  2.0749  0.4739
 7598TIP3    H246990   0.173   1.913   9.206  0.0097 -0.2123  0.3907
 7599TIP3   OH246991   5.727   5.517   8.701  0.1529 -0.1549  0.3214
 7599TIP3    H146992   5.813   5.503   8.741  0.3654  1.3719  0.4783
 7599TIP3    H246993   5.666   5.518   8.774 -0.0921 -1.7253  0.1664
 7600TIP3   OH246994   4.694   3.095   0.309  0.4044 -0.2202  0.1415
 7600TIP3    H146995   4.775   3.142   0.288  0.0272  0.2491 -0.3097
 7600TIP3    H246996   4.719   3.002   0.308  0.8814 -0.0923 -0.2259
 7601TIP3   OH246997   5.640   2.528   9.902 -0.0493  0.1807 -0.2732
 7601TIP3    H146998   5.706   2.483   9.850  0.3553  0.5165 -0.0619
 7601TIP3    H246999   5.645   2.486   9.988 -0.6243 -0.2846 -0.4628
 7602TIP3   OH247000   2.154   3.710   1.834 -0.3280 -0.2695  0.1754
 7602TIP3    H147001   2.209   3.730   1.758 -1.4978  1.7985 -0.1909
 7602TIP3    H247002   2.212   3.720   1.909  0.2149  0.1472 -0.2932
 7603TIP3   OH247003   0.155   2.835   2.019 -0.2274  0.0240 -0.5822
 7603TIP3    H147004   0.094   2.903   2.046  0.8856  1.1981 -0.9014
 7603TIP3    H247005   0.110   2.789   1.948 -0.9416  0.5122 -0.4505
 7604TIP3   OH247006   2.082   4.859   8.448 -0.0598 -0.2798 -1.0768
 7604TIP3    H147007   2.057   4.815   8.366  0.4649  1.3335 -2.1477
 7604TIP3    H247008   2.047   4.948   8.439 -0.4363 -0.2250  0.6971
 7605TIP3   OH247009   5.984   2.692   8.766  0.0828 -0.1017 -0.1552
 7605TIP3    H147010   6.036   2.761   8.724 -1.1735  0.2328 -1.2407
 7605TIP3    H247011   5.978   2.623   8.700 -0.1837 -0.4710  0.2490
 7606TIP3   OH247012   1.371   6.002   9.218  0.2985 -0.4631  0.6103
 7606TIP3    H147013   1.325   5.922   9.244  0.4611 -0.3975  1.1091
 7606TIP3    H247014   1.461   5.989   9.246  0.8846 -1.0542 -1.3522
 7607TIP3   OH247015   0.839   4.951   7.498 -0.3298  0.7245 -0.6057
 7607TIP3    H147016   0.900   4.999   7.555 -2.1370  1.4293  0.8264
 7607TIP3    H247017   0.776   5.017   7.470 -0.3662  0.0487 -2.2233
 7608TIP3   OH247018   1.795   7.223   9.021  0.7333 -0.1043  0.8239
 7608TIP3    H147019   1.711   7.267   9.007  0.7843  0.7795  2.9283
 7608TIP3    H247020   1.783   7.137   8.982 -0.8696  0.2846  0.3527
 7609TIP3   OH247021   6.750   6.177   7.528  0.2525  0.1355  0.2403
 7609TIP3    H147022   6.767   6.146   7.439 -0.1295  1.7102 -0.4127
 7609TIP3    H247023   6.711   6.102   7.572 -0.8624 -0.2557 -1.3338
 7610TIP3   OH247024   6.774   5.264   9.133  0.0797  0.6587 -0.5288
 7610TIP3    H147025   6.711   5.316   9.182  0.6505  0.2900  0.6217
 7610TIP3    H247026   6.843   5.243   9.196  0.3782 -0.6116 -1.2318
 7611TIP3   OH247027   1.501   4.426   7.641  0.2052  0.0997  0.3460
 7611TIP3    H147028   1.596   4.418   7.648  0.0042 -2.6443  1.2563
 7611TIP3    H247029   1.477   4.370   7.568 -0.6930  1.4370 -0.4318
 7612TIP3   OH247030   0.206   7.022   0.304 -0.4636 -0.9714  0.4445
 7612TIP3    H147031   0.130   6.976   0.339 -0.4829 -1.4710 -0.2363
 7612TIP3    H247032   0.224   6.978   0.220 -0.4143  0.1898 -0.1645
 7613TIP3   OH247033   7.004   5.171   1.843 -0.5081 -0.2631 -0.0211
 7613TIP3    H147034   6.917   5.173   1.805 -0.4160  0.5790 -0.1994
 7613TIP3    H247035   7.007   5.088   1.891 -0.4838 -1.5738 -2.1604
 7614TIP3   OH247036   4.692   1.996   8.348 -0.4310 -0.3344 -0.1462
 7614TIP3    H147037   4.634   1.929   8.385 -0.1374 -1.0832 -1.0007
 7614TIP3    H247038   4.681   2.072   8.405 -1.4056 -0.8369  0.3533
 7615TIP3   OH247039   3.610   5.168   8.976  0.5031  0.5783 -0.3005
 7615TIP3    H147040   3.535   5.199   9.027  1.1776 -1.4982  2.1560
 7615TIP3    H247041   3.587   5.079   8.951  1.7825  0.2039 -0.2302
 7616TIP3   OH247042   2.289   3.671   8.781 -0.1406 -0.4307  0.2157
 7616TIP3    H147043   2.212   3.726   8.797 -0.0373 -0.7713  2.1017
 7616TIP3    H247044   2.360   3.734   8.763 -0.0400  0.0978  2.2643
 7617TIP3   OH247045   2.953   6.421   2.276  0.9930 -0.5633  0.2465
 7617TIP3    H147046   2.870   6.376   2.289  1.4343 -1.6172 -0.3964
 7617TIP3    H247047   2.949   6.455   2.186  0.4034  1.3054  0.9375
 7618TIP3   OH247048   6.490   4.136   0.624 -0.0776 -0.4328 -0.2487
 7618TIP3    H147049   6.406   4.175   0.647 -0.4938 -0.7615 -1.1488
 7618TIP3    H247050   6.542   4.209   0.590 -0.2912 -0.3719 -0.4475
 7619TIP3   OH247051   6.706   1.425   9.254 -0.4403 -0.4797  0.5153
 7619TIP3    H147052   6.758   1.494   9.294 -0.9790  0.1983  0.0845
 7619TIP3    H247053   6.730   1.345   9.301  0.8470 -0.1634  0.4428
 7620TIP3   OH247054   7.251   3.615   1.601 -0.3620  0.3825 -0.0229
 7620TIP3    H147055   7.244   3.701   1.560 -0.5596  0.9709  1.2066
 7620TIP3    H247056   7.340   3.587   1.582 -0.2255  0.9523 -0.2475
 7621TIP3   OH247057   0.624   5.838   9.646 -0.6108 -0.3117  0.0970
 7621TIP3    H147058   0.642   5.910   9.585 -3.6000 -0.4957 -1.1756
 7621TIP3    H247059   0.690   5.772   9.624 -0.4163  0.4040 -1.6513
 7622TIP3   OH247060   7.305   4.569   8.764  0.5441 -0.1450  0.2035
 7622TIP3    H147061   7.396   4.544   8.749  0.3140 -0.5048 -0.7010
 7622TIP3    H247062   7.258   4.532   8.689 -0.3533 -0.0065  0.6824
 7623TIP3   OH247063   2.150   4.399   9.117  0.5765 -0.1668  0.3922
 7623TIP3    H147064   2.081   4.428   9.176 -0.3261  0.8631 -1.1091
 7623TIP3    H247065   2.179   4.316   9.153  1.1133  1.0787  3.1424
 7624TIP3   OH247066   1.907   6.047   2.576 -0.3970 -0.5090  0.1611
 7624TIP3    H147067   1.934   5.955   2.578 -0.3866 -0.5049  0.2143
 7624TIP3    H247068   1.858   6.056   2.495  1.3080 -0.0700 -0.8680
 7625TIP3   OH247069   6.226   3.904   8.467 -0.2821  0.2229  0.5685
 7625TIP3    H147070   6.186   3.828   8.511 -0.3489 -0.5677 -0.8198
 7625TIP3    H247071   6.152   3.957   8.438 -0.2467  0.4073  0.8060
 7626TIP3   OH247072   4.451   3.126   1.437  0.0356 -0.0319  0.0449
 7626TIP3    H147073   4.468   3.034   1.418 -0.8873 -0.0797 -0.6151
 7626TIP3    H247074   4.496   3.142   1.520 -0.2529 -1.2257  0.4540
 7627TIP3   OH247075   1.904   2.106   7.569 -0.4109  0.0684  0.1945
 7627TIP3    H147076   1.868   2.066   7.489  0.4742  1.0726 -0.7311
 7627TIP3    H247077   1.858   2.189   7.577  0.7484  0.7795 -0.2879
 7628TIP3   OH247078   0.226   6.085   0.409  0.3187  0.0971  0.1727
 7628TIP3    H147079   0.205   6.023   0.340 -3.4504  1.2124  0.0935
 7628TIP3    H247080   0.160   6.069   0.477  0.2830  2.7717  0.8977
 7629TIP3   OH247081   3.056   5.337   2.044  0.0299  0.4641  0.2980
 7629TIP3    H147082   3.089   5.254   2.079  0.3584  1.0976  1.5327
 7629TIP3    H247083   2.979   5.357   2.099 -0.9045  0.2897 -0.9008
 7630TIP3   OH247084   1.453   0.770   0.141  0.1077 -0.3388  0.2379
 7630TIP3    H147085   1.421   0.780   0.051  2.0287 -1.1268 -0.5930
 7630TIP3    H247086   1.493   0.854   0.162  0.2151 -0.3570  0.1081
 7631TIP3   OH247087   5.650   1.541   9.418 -0.7014 -0.0030  0.0728
 7631TIP3    H147088   5.675   1.507   9.504  0.2461  0.0529 -0.1666
 7631TIP3    H247089   5.667   1.635   9.424 -1.5778  0.1645  0.1324
 7632TIP3   OH247090   4.398   0.456   9.430 -0.1936 -0.5629 -0.6907
 7632TIP3    H147091   4.425   0.388   9.492  2.3635  0.9877  0.0662
 7632TIP3    H247092   4.388   0.410   9.347  4.0272 -1.6490 -0.8434
 7633TIP3   OH247093   2.507   0.060   8.332 -0.1146 -0.2571  0.4518
 7633TIP3    H147094   2.589   0.049   8.379  0.3741  1.4615  0.0812
 7633TIP3    H247095   2.442   0.081   8.399  0.3862  1.2589  0.5027
 7634TIP3   OH247096   3.368   5.587   8.160  0.0653 -0.5041 -0.4543
 7634TIP3    H147097   3.456   5.613   8.186 -0.2703  0.9511 -0.6805
 7634TIP3    H247098   3.353   5.504   8.205  0.8987  0.0741  0.9497
 7635TIP3   OH247099   2.653   4.990   0.935  0.1175 -0.3427  0.5409
 7635TIP3    H147100   2.680   4.925   1.000 -1.8863  0.1526  1.9602
 7635TIP3    H247101   2.633   4.938   0.857 -2.3378 -1.6853  1.9186
 7636TIP3   OH247102   7.334   0.042   9.685 -0.2926  0.0805 -0.2686
 7636TIP3    H147103   7.420   0.023   9.648  0.5267 -1.5846  2.1999
 7636TIP3    H247104   7.277   0.054   9.609  1.3690 -2.3262 -2.0723
 7637TIP3   OH247105   5.682   0.679   1.223  0.4040 -0.1601 -0.0083
 7637TIP3    H147106   5.612   0.641   1.169 -0.2553  0.0595  0.6753
 7637TIP3    H247107   5.641   0.695   1.308  0.9319  1.1967  0.0165
 7638TIP3   OH247108   4.139   6.317   1.228  0.0244 -0.3716 -0.0078
 7638TIP3    H147109   4.113   6.227   1.244 -1.1556 -0.0818 -0.2216
 7638TIP3    H247110   4.164   6.319   1.135  0.4642 -0.5669  0.1048
 7639TIP3   OH247111   3.718   2.055   7.954  0.0863  0.1058  0.1321
 7639TIP3    H147112   3.668   1.979   7.924 -0.8148  1.0030 -0.7239
 7639TIP3    H247113   3.776   2.021   8.022  2.1852 -2.0704 -2.4920
 7640TIP3   OH247114   7.020   6.303   0.879 -0.6116 -0.4409 -0.7906
 7640TIP3    H147115   6.962   6.284   0.805 -0.6927  0.0524 -0.8599
 7640TIP3    H247116   6.978   6.263   0.954 -1.3717  0.4392 -0.7322
 7641TIP3   OH247117   0.551   0.460   0.651  0.4440 -0.0109  0.2999
 7641TIP3    H147118   0.538   0.554   0.644  1.3772  0.2205  1.3388
 7641TIP3    H247119   0.477   0.429   0.703  1.3022  0.5220  1.9036
 7642TIP3   OH247120   1.459   5.703   6.685 -0.1043  0.4337 -0.0583
 7642TIP3    H147121   1.470   5.798   6.687  0.5129  0.3712 -0.1688
 7642TIP3    H247122   1.506   5.672   6.762 -0.4815  0.2305  0.0925
 7643TIP3   OH247123   4.317   0.145   0.923 -0.2821 -0.3033  0.4912
 7643TIP3    H147124   4.224   0.170   0.927 -0.1460  0.3591 -0.3327
 7643TIP3    H247125   4.349   0.162   1.011 -0.2471  2.3429  0.0715
 7644TIP3   OH247126   0.226   6.815   9.102 -0.5623  0.4767  0.3472
 7644TIP3    H147127   0.278   6.749   9.148  0.5031  1.5033  0.6693
 7644TIP3    H247128   0.150   6.767   9.070 -1.2444 -0.3696  2.9296
 7645TIP3   OH247129   4.931   0.828   0.969 -0.0914  1.0532  0.5164
 7645TIP3    H147130   4.963   0.865   1.051  0.8456  1.3626  0.0224
 7645TIP3    H247131   4.836   0.839   0.973  0.0394  2.0570  1.0876
 7646TIP3   OH247132   1.619   5.897   0.145  0.0800  0.0443  0.7210
 7646TIP3    H147133   1.700   5.938   0.113 -0.2886 -0.4410 -0.9318
 7646TIP3    H247134   1.550   5.961   0.125 -0.2070 -0.4283  0.1770
 7647TIP3   OH247135   2.627   3.321   1.271  0.2259 -0.0533 -0.1961
 7647TIP3    H147136   2.688   3.292   1.339  0.7076  0.2199 -0.5055
 7647TIP3    H247137   2.643   3.415   1.262 -0.1741  0.0043 -0.3468
 7648TIP3   OH247138   7.408   6.088   1.290  0.5977  0.1221  0.4515
 7648TIP3    H147139   7.386   6.146   1.363 -0.9413  1.5503 -1.0359
 7648TIP3    H247140   7.400   6.144   1.213  2.2762 -1.2980 -0.8267
 7649TIP3   OH247141   0.428   5.682   7.834 -0.1473  0.7000  0.2579
 7649TIP3    H147142   0.454   5.679   7.926 -1.3371 -0.0580  0.5907
 7649TIP3    H247143   0.384   5.766   7.825 -0.3754  0.6095  0.4919
 7650TIP3   OH247144   6.988   0.092   8.525 -0.5422  0.4835 -0.1900
 7650TIP3    H147145   7.080   0.067   8.528 -0.4372  0.8895  0.0140
 7650TIP3    H247146   6.987   0.185   8.548 -1.2412 -0.0557  2.2522
 7651TIP3   OH247147   4.789   4.338   2.220  0.2131  0.0974  0.1573
 7651TIP3    H147148   4.819   4.424   2.191 -0.9982  0.3356 -0.4677
 7651TIP3    H247149   4.734   4.307   2.148  0.1894 -0.9646  0.6134
 7652TIP3   OH247150   0.208   2.880   0.272  0.2687  0.0788 -0.3515
 7652TIP3    H147151   0.149   2.888   0.196  1.1239 -1.4165 -1.2182
 7652TIP3    H247152   0.202   2.965   0.316 -2.8976 -0.1400 -0.1133
 7653TIP3   OH247153   1.240   3.319   8.125 -0.1030  0.0936  0.2853
 7653TIP3    H147154   1.231   3.229   8.095  0.6614 -0.6271  2.0601
 7653TIP3    H247155   1.335   3.332   8.134 -0.2423  0.8008  0.8311
 7654TIP3   OH247156   4.426   0.667   9.711 -0.1062 -0.1788 -0.3729
 7654TIP3    H147157   4.342   0.690   9.752  0.7192  0.7850  0.8453
 7654TIP3    H247158   4.484   0.740   9.734  1.4819 -1.5339  0.0622
 7655TIP3   OH247159   5.552   5.790   0.872  0.0128  0.5718 -0.6797
 7655TIP3    H147160   5.521   5.788   0.781 -0.4875 -0.0095 -0.4958
 7655TIP3    H247161   5.636   5.744   0.869  0.6222  1.6563 -1.0712
 7656TIP3   OH247162   2.765   6.785   8.397 -0.3780  0.1547  0.1585
 7656TIP3    H147163   2.714   6.856   8.436 -0.3218  0.4586 -0.3076
 7656TIP3    H247164   2.856   6.807   8.417 -0.3090  0.5914 -0.5662
 7657TIP3   OH247165   0.691   5.053   1.076 -0.0307 -0.1282  0.2888
 7657TIP3    H147166   0.636   5.130   1.088 -2.3960 -1.7252  0.4184
 7657TIP3    H247167   0.630   4.979   1.083  2.2566 -2.0607  1.0846
 7658TIP3   OH247168   0.550   7.437   2.319 -0.1890  0.3468  0.7736
 7658TIP3    H147169   0.619   7.381   2.284 -1.2262 -0.4975  0.0322
 7658TIP3    H247170   0.567   7.439   2.414  1.2689  0.7764  0.5375
 7659TIP3   OH247171   1.015   2.357   7.279  0.0155 -0.0741  0.4310
 7659TIP3    H147172   1.077   2.411   7.328 -0.1711 -0.0329  0.6239
 7659TIP3    H247173   1.057   2.272   7.273 -0.2966 -0.3079  1.3448
 7660TIP3   OH247174   4.289   1.331   0.643 -0.3438 -0.5637  0.3227
 7660TIP3    H147175   4.318   1.271   0.575 -1.1420  0.8110 -1.3092
 7660TIP3    H247176   4.356   1.325   0.711  1.0395 -1.2244 -1.0412
 7661TIP3   OH247177   5.780   3.917   9.579 -0.1205 -0.0315 -0.9237
 7661TIP3    H147178   5.808   3.873   9.499  1.5425 -1.0785  0.1750
 7661TIP3    H247179   5.851   3.979   9.598 -1.2551  1.3595 -1.0919
 7662TIP3   OH247180   2.935   0.113   1.104  0.8975 -0.1326 -0.0613
 7662TIP3    H147181   3.028   0.133   1.090  1.1327 -1.1919 -0.0913
 7662TIP3    H247182   2.897   0.195   1.134  1.8918  0.2551  0.1683
 7663TIP3   OH247183   0.989   2.292   1.965 -0.4079 -0.1282  0.2485
 7663TIP3    H147184   0.949   2.312   2.049 -2.4870 -1.4607 -0.3393
 7663TIP3    H247185   0.915   2.279   1.906  0.9665  1.9308 -2.1351
 7664TIP3   OH247186   0.356   3.094   1.917 -0.1460 -0.1499  0.0259
 7664TIP3    H147187   0.272   3.100   1.871 -0.6130 -0.2516  0.8557
 7664TIP3    H247188   0.352   3.011   1.963  0.2612  0.0187  0.3681
 7665TIP3   OH247189   5.267   1.210   0.270  0.1966 -0.4412  0.4432
 7665TIP3    H147190   5.192   1.263   0.298 -0.1612 -0.1971 -0.8985
 7665TIP3    H247191   5.302   1.174   0.352 -0.5468  0.5355  1.2306
 7666TIP3   OH247192   6.415   1.620   0.652  0.3457  0.2859 -0.4801
 7666TIP3    H147193   6.441   1.551   0.590 -0.4230 -0.2766 -0.1893
 7666TIP3    H247194   6.394   1.572   0.732  1.5349  1.0192  0.3046
 7667TIP3   OH247195   6.020   1.209   9.512 -0.4419  0.1018  0.0841
 7667TIP3    H147196   5.984   1.286   9.469 -1.9125 -0.7610 -0.2698
 7667TIP3    H247197   6.113   1.211   9.490 -0.6701  1.1627 -0.8435
 7668TIP3   OH247198   2.859   6.990   1.125  0.2781  0.3933  0.1561
 7668TIP3    H147199   2.825   6.906   1.156 -0.3723  0.7208  0.3499
 7668TIP3    H247200   2.817   7.003   1.040 -0.7417  1.1795  0.7556
 7669TIP3   OH247201   3.324   5.423   9.814  0.2584 -0.1290  0.2998
 7669TIP3    H147202   3.335   5.329   9.801  0.8454  0.1194 -1.2080
 7669TIP3    H247203   3.230   5.438   9.803  0.1534 -0.5400  0.6149
 7670TIP3   OH247204   6.774   1.714   7.638  0.3127  0.0120  0.0913
 7670TIP3    H147205   6.739   1.782   7.580  0.3278 -0.2636 -0.2423
 7670TIP3    H247206   6.697   1.663   7.663  0.3999 -0.2648 -0.2071
 7671TIP3   OH247207   2.009   3.417   7.993 -0.3603 -0.3353 -0.3832
 7671TIP3    H147208   1.965   3.346   8.040  1.5547 -1.5195 -0.2746
 7671TIP3    H247209   1.989   3.401   7.901  0.3615 -1.2735 -0.3938
 7672TIP3   OH247210   2.714   2.826   2.453  0.3871  0.3034 -0.1394
 7672TIP3    H147211   2.676   2.787   2.531 -0.6645  1.6795  0.0792
 7672TIP3    H247212   2.809   2.820   2.466  0.2235 -0.4982  0.7008
 7673TIP3   OH247213   1.184   2.111   7.328 -0.2539  0.6441 -0.2095
 7673TIP3    H147214   1.273   2.144   7.314 -0.1263  0.3938  0.0141
 7673TIP3    H247215   1.179   2.034   7.271  0.0568 -0.0136  0.6428
 7674TIP3   OH247216   5.419   1.028   1.634  0.7259 -0.2175  0.1362
 7674TIP3    H147217   5.422   1.124   1.638 -0.9767 -0.0798 -0.8998
 7674TIP3    H247218   5.382   1.009   1.547  1.1384 -1.8137  0.2890
 7675TIP3   OH247219   3.603   7.457   0.359  0.5106 -0.4887 -0.0074
 7675TIP3    H147220   3.520   7.411   0.346 -0.5395  1.4898 -0.6942
 7675TIP3    H247221   3.628   7.437   0.449 -1.1700 -0.4610  0.5027
 7676TIP3   OH247222   5.431   4.454   9.677  0.1318  0.4713  0.5211
 7676TIP3    H147223   5.427   4.360   9.691  0.7900  0.2360 -0.7111
 7676TIP3    H247224   5.402   4.492   9.760 -1.7429 -0.8079  0.5136
 7677TIP3   OH247225   7.281   0.422   8.513 -0.2059 -0.2564  0.1195
 7677TIP3    H147226   7.250   0.463   8.433 -0.0644  0.0264  0.2095
 7677TIP3    H247227   7.335   0.348   8.483  0.7532  0.4995 -0.0665
 7678TIP3   OH247228   1.865   1.938   0.508 -0.0884 -0.1092 -0.0960
 7678TIP3    H147229   1.882   1.857   0.555  1.1702  0.4189  0.3958
 7678TIP3    H247230   1.906   1.925   0.422  0.0045 -0.0287 -0.0629
 7679TIP3   OH247231   1.101   4.371   0.594 -0.3347  0.3851  0.1814
 7679TIP3    H147232   1.143   4.300   0.641  0.3054  1.3296  1.0732
 7679TIP3    H247233   1.040   4.409   0.657 -1.0781  0.2886 -0.4671
 7680TIP3   OH247234   1.340   2.604   8.234 -0.1064  0.5507 -0.5454
 7680TIP3    H147235   1.283   2.570   8.303  1.1582 -0.4205  0.0798
 7680TIP3    H247236   1.422   2.626   8.280 -0.8286  4.6277 -0.8820
 7681TIP3   OH247237   6.773   3.884   2.315  0.0526 -0.0343 -0.1472
 7681TIP3    H147238   6.797   3.975   2.335 -0.0099  0.4645 -2.1165
 7681TIP3    H247239   6.824   3.832   2.377  1.2416  1.2974  0.0577
 7682TIP3   OH247240   1.502   4.574   9.590 -0.3249  0.6068  0.2750
 7682TIP3    H147241   1.472   4.492   9.630 -0.2691  0.6315  0.3686
 7682TIP3    H247242   1.510   4.635   9.664  1.2894  0.2051  0.4653
 7683TIP3   OH247243   4.274   6.361   9.955 -0.3039  0.1173  0.2003
 7683TIP3    H147244   4.304   6.270   9.954 -0.7486 -0.0313 -0.7956
 7683TIP3    H247245   4.206   6.363  10.022  1.0858  0.1901  1.6585
 7684TIP3   OH247246   2.012   0.744   1.042  0.3216  0.3359  0.0864
 7684TIP3    H147247   2.100   0.706   1.032 -0.0603 -0.2852 -1.1049
 7684TIP3    H247248   1.987   0.769   0.954 -1.9055 -2.2712 -0.1644
 7685TIP3   OH247249   5.209   0.427   1.382  0.3767 -0.2870  0.4972
 7685TIP3    H147250   5.129   0.384   1.414  0.1667 -0.3958 -0.1694
 7685TIP3    H247251   5.275   0.404   1.448  0.3766 -1.9953 -0.0444
 7686TIP3   OH247252   4.775   6.232   0.527  0.2495  1.0576 -0.1785
 7686TIP3    H147253   4.719   6.242   0.450  0.1825 -1.3317 -0.4835
 7686TIP3    H247254   4.847   6.294   0.513 -0.7452  2.0362 -1.1937
 7687TIP3   OH247255   5.483   5.563   8.483 -0.0797  0.1784 -0.1446
 7687TIP3    H147256   5.411   5.509   8.514  0.7477 -0.4671  0.7172
 7687TIP3    H247257   5.554   5.548   8.546  0.1034  2.4935  0.3179
 7688TIP3   OH247258   4.779   5.382   7.701 -0.0510 -0.2584 -0.4187
 7688TIP3    H147259   4.770   5.413   7.611  2.0380 -2.0540 -1.3408
 7688TIP3    H247260   4.704   5.419   7.747  0.2133  2.8602 -2.2464
 7689TIP3   OH247261   0.723   2.509   1.658 -0.2219  0.4971  0.5713
 7689TIP3    H147262   0.726   2.599   1.627  0.0738 -0.6306 -3.1394
 7689TIP3    H247263   0.633   2.481   1.643  0.2415 -0.4753 -0.5045
 7690TIP3   OH247264   4.558   0.341   2.139  0.0872  0.2994 -0.2145
 7690TIP3    H147265   4.516   0.270   2.186 -2.4266 -0.1117 -2.8102
 7690TIP3    H247266   4.588   0.401   2.208 -0.3462 -1.8115  1.9353
 7691TIP3   OH247267   4.933   6.707   2.232 -0.1333 -0.3937 -0.1366
 7691TIP3    H147268   4.958   6.635   2.174  1.7609  0.5446 -0.5526
 7691TIP3    H247269   4.985   6.781   2.202 -4.0884  2.0858 -1.6655
 7692TIP3   OH247270   1.992   3.024   9.974 -0.2108  0.8462  0.3864
 7692TIP3    H147271   2.070   2.998   9.926 -1.1184  0.0627 -0.7099
 7692TIP3    H247272   1.974   3.113   9.944 -1.1487  0.1271 -1.2756
 7693TIP3   OH247273   4.954   0.712   8.100  0.3219  0.6066 -0.3050
 7693TIP3    H147274   4.948   0.626   8.058 -0.6937  0.7149 -0.4211
 7693TIP3    H247275   4.873   0.719   8.150  0.1006  1.7502 -0.7929
 7694TIP3   OH247276   4.589   1.737   1.340  0.0578 -0.2553  0.8803
 7694TIP3    H147277   4.534   1.669   1.302  0.0077  0.0219  0.4536
 7694TIP3    H247278   4.549   1.755   1.425 -0.3489 -0.2545  0.6916
 7695TIP3   OH247279   0.048   5.317   2.203 -0.0894  0.1333 -0.0300
 7695TIP3    H147280   0.046   5.405   2.241 -0.3764  0.2660 -0.3475
 7695TIP3    H247281  -0.041   5.285   2.213 -0.4982  0.6568 -1.7048
 7696TIP3   OH247282   5.718   3.589   1.634 -0.1771  0.0631  0.2316
 7696TIP3    H147283   5.664   3.574   1.712 -0.0556  2.0979  0.7818
 7696TIP3    H247284   5.808   3.581   1.666 -0.1322  0.1293  0.1200
 7697TIP3   OH247285   7.329   4.497   1.848 -0.5457  0.2223  0.5747
 7697TIP3    H147286   7.407   4.507   1.903 -0.0407  0.9624 -0.2401
 7697TIP3    H247287   7.341   4.413   1.805  0.4326  0.8549 -0.4597
 7698TIP3   OH247288   3.453   5.752   0.709  0.1165  0.3875  0.5695
 7698TIP3    H147289   3.533   5.800   0.729  0.6508 -0.4672  0.5502
 7698TIP3    H247290   3.388   5.819   0.690  0.2146  1.1932  2.7478
 7699TIP3   OH247291   4.971   4.342   0.977 -0.0961  0.5631  0.4621
 7699TIP3    H147292   5.014   4.288   0.911 -0.7577  1.1507 -0.4720
 7699TIP3    H247293   4.994   4.301   1.061  1.4257  0.2754 -0.0637
 7700TIP3   OH247294   1.131   6.761   8.608 -0.4007  0.1480  0.1445
 7700TIP3    H147295   1.164   6.688   8.556  1.9934  0.5852  0.9009
 7700TIP3    H247296   1.135   6.836   8.549 -0.9584  0.0458 -0.0324
 7701TIP3   OH247297   5.732   0.949   9.322  0.6490 -0.0356 -0.2684
 7701TIP3    H147298   5.639   0.930   9.336  0.8679 -1.0329 -0.0603
 7701TIP3    H247299   5.733   1.033   9.277 -0.3134  0.4701  0.6126
 7702TIP3   OH247300   2.087   7.450   1.923  0.4062  0.5559  0.6900
 7702TIP3    H147301   2.072   7.394   1.999  1.1586  0.7848  1.0136
 7702TIP3    H247302   2.182   7.449   1.911  0.3151  0.7344 -0.0893
 7703TIP3   OH247303   1.834   3.633   8.931  0.7266 -0.1042  0.8476
 7703TIP3    H147304   1.741   3.621   8.909  1.4222 -2.9042 -1.2278
 7703TIP3    H247305   1.837   3.715   8.980 -2.5872  1.0392 -0.5617
 7704TIP3   OH247306   5.464   2.752   2.469 -0.5130 -0.5766 -0.4652
 7704TIP3    H147307   5.396   2.761   2.536 -0.8476 -0.2891 -0.8357
 7704TIP3    H247308   5.513   2.674   2.494 -1.6934 -1.4614 -0.8057
 7705TIP3   OH247309   0.024   0.669   8.384 -0.0274  0.6283 -0.1567
 7705TIP3    H147310   0.045   0.635   8.471  2.0809  0.8810 -0.5200
 7705TIP3    H247311   0.009   0.763   8.398 -0.8126  0.4764  0.0813
 7706TIP3   OH247312   4.446   5.402   1.568  0.1575  0.0893 -0.5224
 7706TIP3    H147313   4.365   5.355   1.588 -1.1829  1.8871 -1.3218
 7706TIP3    H247314   4.446   5.476   1.630  1.2468  0.0584 -0.4751
 7707TIP3   OH247315   1.458   3.240   9.245 -1.0256  0.3188  0.0942
 7707TIP3    H147316   1.507   3.320   9.263 -1.0240  0.4399 -0.4302
 7707TIP3    H247317   1.387   3.240   9.309 -2.6203  2.1100 -1.5380
 7708TIP3   OH247318   1.969   4.401   1.895 -0.0795 -0.0079  0.0405
 7708TIP3    H147319   2.064   4.409   1.885 -0.1694 -0.2979 -1.3511
 7708TIP3    H247320   1.936   4.400   1.805 -1.4160  0.2044  0.5050
 7709TIP3   OH247321   7.068   5.528   1.288 -0.1694 -0.3347 -0.2930
 7709TIP3    H147322   7.114   5.445   1.289 -1.4032 -1.0763  1.7008
 7709TIP3    H247323   6.996   5.516   1.226  1.3084  0.2948 -2.2115
 7710TIP3   OH247324   1.328   0.247   8.504 -0.2266  0.6204 -0.2130
 7710TIP3    H147325   1.257   0.282   8.557 -0.6088 -0.7114  0.2030
 7710TIP3    H247326   1.308   0.154   8.495  0.3351  0.6245 -1.9274
 7711TIP3   OH247327   5.928   4.590   0.218 -0.5258 -0.3344  0.1346
 7711TIP3    H147328   5.877   4.578   0.298  0.6008 -0.6550  0.8315
 7711TIP3    H247329   6.013   4.552   0.238 -0.2834 -0.6081 -1.3012
 7712TIP3   OH247330   3.834   4.393   2.484  0.0963 -0.2239  0.2687
 7712TIP3    H147331   3.889   4.428   2.414 -1.2715 -0.6322 -1.0522
 7712TIP3    H247332   3.803   4.308   2.451  0.1009 -0.8295  1.7269
 7713TIP3   OH247333   2.152   2.896   8.007  0.0474  0.2638  0.4041
 7713TIP3    H147334   2.159   2.859   8.095 -0.8403  0.7998  0.7186
 7713TIP3    H247335   2.083   2.962   8.014 -0.9378 -0.5503 -0.9685
 7714TIP3   OH247336   4.401   1.758   1.538 -0.1755  0.4697 -0.1226
 7714TIP3    H147337   4.354   1.838   1.562 -2.3006 -0.8747  0.4466
 7714TIP3    H247338   4.355   1.725   1.461  0.3878 -0.4347 -0.0936
 7715TIP3   OH247339   0.275   2.718   1.542 -0.3957 -0.3627 -0.0723
 7715TIP3    H147340   0.327   2.640   1.520 -1.0328 -1.1749  1.1272
 7715TIP3    H247341   0.331   2.767   1.602 -0.2767 -0.2708 -0.2585
 7716TIP3   OH247342   0.677   0.489   9.065  0.5161  0.0139  0.2521
 7716TIP3    H147343   0.762   0.464   9.030  1.2845 -0.3466  2.2450
 7716TIP3    H247344   0.646   0.411   9.113 -0.8437  0.2061 -0.2650
 7717TIP3   OH247345   3.530   1.016   7.247  0.3580 -0.1679 -0.7379
 7717TIP3    H147346   3.585   0.953   7.200 -0.1060 -0.8185 -0.4334
 7717TIP3    H247347   3.492   1.071   7.178  0.7023 -0.2743 -1.0169
 7718TIP3   OH247348   0.714   5.166   8.073  0.3352 -0.1263 -0.0835
 7718TIP3    H147349   0.704   5.083   8.120 -0.6723  0.3173  0.5062
 7718TIP3    H247350   0.639   5.218   8.100  1.2326  1.1867 -0.0336
 7719TIP3   OH247351   6.289   4.511   1.785 -0.4631  0.3956  0.5757
 7719TIP3    H147352   6.326   4.450   1.849  0.1643 -0.7432 -0.8154
 7719TIP3    H247353   6.278   4.458   1.706 -2.8514  1.3098  0.2058
 7720TIP3   OH247354   1.873   5.977   0.866 -0.1206 -0.4630  0.0433
 7720TIP3    H147355   1.946   5.994   0.925  0.2224  0.2276 -0.5549
 7720TIP3    H247356   1.808   5.933   0.920 -1.2538  3.0809  1.9114
 7721TIP3   OH247357   1.884   0.963   0.787 -0.3660  0.3141  0.3633
 7721TIP3    H147358   1.795   0.927   0.783 -0.0679 -0.7127  2.1862
 7721TIP3    H247359   1.939   0.889   0.814  0.6214  1.5424  1.8869
 7722TIP3   OH247360   1.496   5.089   3.275  0.4713 -0.3573 -0.2445
 7722TIP3    H147361   1.570   5.029   3.281 -0.7700 -1.7857  2.9053
 7722TIP3    H247362   1.472   5.087   3.182  2.0610 -2.7347 -0.7196
 7723TIP3   OH247363   5.933   5.087   0.071 -0.7764 -0.0737 -0.1661
 7723TIP3    H147364   5.897   5.171   0.045 -1.8036 -0.3496  0.3005
 7723TIP3    H247365   5.856   5.034   0.094 -0.2094 -1.3535 -1.0573
 7724TIP3   OH247366   1.596   2.907   7.884  0.4001  0.2335 -0.6149
 7724TIP3    H147367   1.538   2.859   7.824  1.1891 -1.6882  0.0629
 7724TIP3    H247368   1.594   2.855   7.965  0.8597  1.7124  0.3841
 7725TIP3   OH247369   5.767   5.302   1.221  0.1675 -0.0470  0.1492
 7725TIP3    H147370   5.846   5.275   1.268  0.4153  0.3177 -0.0593
 7725TIP3    H247371   5.715   5.221   1.214  0.5580 -0.3053  0.2081
 7726TIP3   OH247372   0.449   4.326   7.265  0.3823 -0.1296 -0.2657
 7726TIP3    H147373   0.421   4.260   7.201 -0.8013  1.1107 -1.0804
 7726TIP3    H247374   0.455   4.277   7.347 -1.1740 -1.1558 -0.7020
 7727TIP3   OH247375   5.595   6.145   8.753  0.3495  0.4020 -0.7152
 7727TIP3    H147376   5.681   6.103   8.752  0.7237  1.0624  0.5964
 7727TIP3    H247377   5.563   6.137   8.663  1.3564 -0.7062 -1.0028
 7728TIP3   OH247378   3.748   5.110   9.720  0.4967  0.0953  0.2404
 7728TIP3    H147379   3.699   5.182   9.759 -0.4007  0.3886 -1.3310
 7728TIP3    H247380   3.802   5.151   9.653 -1.8583 -0.8191 -2.4577
 7729TIP3   OH247381   7.319   1.166   7.617 -0.1359 -0.1808  0.2384
 7729TIP3    H147382   7.306   1.137   7.526  0.2524  0.1228  0.0883
 7729TIP3    H247383   7.318   1.084   7.667 -0.0079 -0.3794 -0.0753
 7730TIP3   OH247384   0.714   5.124   1.536 -0.1891  0.1410 -0.1960
 7730TIP3    H147385   0.769   5.046   1.541 -0.4452 -0.0446 -0.2227
 7730TIP3    H247386   0.769   5.195   1.569 -0.2620 -0.2219  0.7298
 7731TIP3   OH247387   7.323   5.212   3.096  0.3266  0.1945  0.0768
 7731TIP3    H147388   7.264   5.261   3.038  1.5040 -0.1709 -1.4903
 7731TIP3    H247389   7.276   5.208   3.179 -1.5686  0.4863 -0.9141
 7732TIP3   OH247390   7.016   4.858   9.041  0.1582  0.3664  0.4236
 7732TIP3    H147391   6.969   4.849   8.959 -1.4240  0.9870  1.2190
 7732TIP3    H247392   7.028   4.952   9.052 -0.8713  0.3956  1.5304
 7733TIP3   OH247393   3.280   0.555   8.692  0.2750 -0.6431 -0.5371
 7733TIP3    H147394   3.311   0.537   8.604 -1.4089  1.5654 -1.6623
 7733TIP3    H247395   3.194   0.595   8.680  1.5332  3.3405  1.8263
 7734TIP3   OH247396   1.153   5.581   9.606  0.2744  0.0217 -0.4530
 7734TIP3    H147397   1.175   5.673   9.622  0.5373 -0.2439  0.8375
 7734TIP3    H247398   1.102   5.555   9.683  0.3305 -0.9525 -0.7332
 7735TIP3   OH247399   0.822   1.462   2.141 -0.4858 -1.0662  0.2596
 7735TIP3    H147400   0.825   1.367   2.138 -0.1012 -1.0657  0.5218
 7735TIP3    H247401   0.734   1.485   2.111 -0.2121 -1.4481 -0.8765
 7736TIP3   OH247402   3.899   6.849   1.253  0.4752 -0.7610 -0.1495
 7736TIP3    H147403   3.815   6.857   1.298 -0.3397  0.7525 -1.7822
 7736TIP3    H247404   3.877   6.807   1.170  0.7065  2.1730 -1.8577
 7737TIP3   OH247405   7.197   4.131   1.332 -0.1389 -0.3062 -0.2328
 7737TIP3    H147406   7.223   4.043   1.307 -0.4910 -0.7981  1.0529
 7737TIP3    H247407   7.215   4.185   1.255 -0.5074 -1.6073 -1.2461
 7738TIP3   OH247408   6.565   2.726   9.333  0.5318  0.0090 -0.1589
 7738TIP3    H147409   6.653   2.698   9.361  1.3968  4.0593  2.0688
 7738TIP3    H247410   6.508   2.701   9.406  0.9244  1.9390  0.8710
 7739TIP3   OH247411   2.642   4.035   8.540 -0.3065  0.5648  0.5669
 7739TIP3    H147412   2.720   3.986   8.565 -0.1543  0.3968 -0.2179
 7739TIP3    H247413   2.656   4.123   8.576  0.5784  0.7418 -0.1751
 7740TIP3   OH247414   2.544   3.918   7.908 -0.5312  0.0299  0.4136
 7740TIP3    H147415   2.474   3.958   7.960 -1.0989 -0.3417 -0.0532
 7740TIP3    H247416   2.500   3.851   7.856 -0.1132  0.8790 -1.0904
 7741TIP3   OH247417   5.072   5.134   0.507  0.0489  0.4921 -0.1974
 7741TIP3    H147418   5.115   5.073   0.447  0.5056  0.1709  0.4546
 7741TIP3    H247419   5.015   5.187   0.450 -0.5847 -0.7319 -0.7232
 7742TIP3   OH247420   3.909   6.455   2.067  0.5172  0.0197 -0.2689
 7742TIP3    H147421   3.856   6.433   2.143  1.1633  0.3712  0.2967
 7742TIP3    H247422   3.994   6.480   2.104  1.1883 -0.8678 -1.1654
 7743TIP3   OH247423   3.261   0.942   1.658  0.3930  0.2407  0.2299
 7743TIP3    H147424   3.180   0.973   1.617  0.8702  1.3787  0.1065
 7743TIP3    H247425   3.324   1.012   1.641  1.4024 -0.6314  0.3260
 7744TIP3   OH247426   4.026   1.748   0.026  0.8333  0.3133  0.2434
 7744TIP3    H147427   4.102   1.691   0.039  1.0297  0.2351 -1.1447
 7744TIP3    H247428   3.993   1.725  -0.061 -0.2996  0.9119  0.4992
 7745TIP3   OH247429   3.544   6.722   1.857 -0.1477  0.3822  0.7525
 7745TIP3    H147430   3.621   6.729   1.801 -0.2300  0.0445  0.5939
 7745TIP3    H247431   3.554   6.637   1.901 -0.5276  0.2453  0.5793
 7746TIP3   OH247432   2.759   5.717   2.350 -0.5147 -0.2199  0.1057
 7746TIP3    H147433   2.793   5.630   2.368 -0.2593 -0.0135  0.6396
 7746TIP3    H247434   2.782   5.734   2.259 -1.7459 -1.2479 -0.4253
 7747TIP3   OH247435   5.150   0.702   1.302  0.2507  0.7443  0.0761
 7747TIP3    H147436   5.071   0.696   1.356 -0.1550  0.6953 -0.5157
 7747TIP3    H247437   5.201   0.624   1.326 -0.9626 -0.5250 -1.2124
 7748TIP3   OH247438   3.716   6.255   8.759 -0.0005  0.3616 -0.3679
 7748TIP3    H147439   3.759   6.172   8.741  1.0404  0.7897  0.0579
 7748TIP3    H247440   3.623   6.232   8.769  0.3141 -0.8069  0.1113
 7749TIP3   OH247441   0.356   2.945   9.377  0.4507 -0.3728 -0.3989
 7749TIP3    H147442   0.412   2.946   9.455  1.7956 -0.7971 -1.3152
 7749TIP3    H247443   0.267   2.934   9.411  0.9196  0.2323  1.1043
 7750TIP3   OH247444   2.457   7.323   0.349  0.3818  0.1894  0.2919
 7750TIP3    H147445   2.473   7.405   0.303  2.6683 -0.9188 -1.0767
 7750TIP3    H247446   2.434   7.349   0.438  0.7189  2.3032 -0.1852
 7751TIP3   OH247447   4.396   5.858   9.693 -0.2355 -0.1092  0.1885
 7751TIP3    H147448   4.317   5.910   9.704 -0.5557 -0.6341  0.4153
 7751TIP3    H247449   4.395   5.796   9.766 -0.4553 -1.1773 -0.6908
 7752TIP3   OH247450   5.660   1.574   8.408 -0.2090 -0.0603 -0.4505
 7752TIP3    H147451   5.735   1.588   8.350 -0.4694 -0.2065 -0.8238
 7752TIP3    H247452   5.603   1.650   8.394 -0.9976 -0.8145 -1.5186
 7753TIP3   OH247453   5.261   3.156   0.550 -0.2584  0.0219 -0.2424
 7753TIP3    H147454   5.219   3.070   0.559  1.2291 -0.6646  0.5363
 7753TIP3    H247455   5.345   3.136   0.507  0.1510  1.0794  0.0534
 7754TIP3   OH247456   2.781   2.485   1.184 -0.3815  0.7144  0.0281
 7754TIP3    H147457   2.742   2.569   1.208  0.8282  1.4889 -0.6152
 7754TIP3    H247458   2.799   2.494   1.090  0.8224  0.1872  0.1947
 7755TIP3   OH247459   7.346   5.609   7.922  0.3450 -0.0806 -0.1691
 7755TIP3    H147460   7.303   5.607   8.008 -0.0641 -0.0495 -0.3704
 7755TIP3    H247461   7.288   5.663   7.868  1.5183  1.4502  0.0293
 7756TIP3   OH247462   4.715   0.906   1.391 -0.4032 -0.5270 -0.2667
 7756TIP3    H147463   4.684   0.851   1.319  0.9026 -0.2059 -1.1206
 7756TIP3    H247464   4.747   0.986   1.348 -0.0142 -0.1338  0.7142
 7757TIP3   OH247465   0.546   0.935   1.129  0.3625 -0.9655 -0.1818
 7757TIP3    H147466   0.599   0.856   1.132 -0.1470 -1.3384 -0.8580
 7757TIP3    H247467   0.608   1.006   1.148  0.4824 -1.6382  2.3624
 7758TIP3   OH247468   1.823   1.125   8.249  0.0105 -0.1753 -0.3043
 7758TIP3    H147469   1.846   1.033   8.234  0.1616 -0.0953 -0.5670
 7758TIP3    H247470   1.906   1.167   8.271  0.1893  0.1674 -1.5198
 7759TIP3   OH247471   5.026   3.491   9.711 -0.6241 -0.9498  0.5136
 7759TIP3    H147472   5.010   3.498   9.617  2.7493  3.5546 -0.0519
 7759TIP3    H247473   4.944   3.519   9.752 -1.9375 -2.3927 -0.9856
 7760TIP3   OH247474   3.946   1.485   9.379  0.5598  0.2810  0.1580
 7760TIP3    H147475   3.907   1.447   9.457  2.3699  0.2104  1.0862
 7760TIP3    H247476   4.010   1.548   9.412 -0.9603  2.7541 -1.3233
 7761TIP3   OH247477   7.266   2.668   8.257 -0.6987  0.4020  0.0063
 7761TIP3    H147478   7.355   2.639   8.238 -1.0752 -0.3662 -0.6053
 7761TIP3    H247479   7.249   2.737   8.193 -0.1899  1.2827  0.7808
 7762TIP3   OH247480   5.073   2.353   1.598  0.0705  0.0574 -0.0338
 7762TIP3    H147481   5.097   2.438   1.562 -0.3034  0.4286  0.5699
 7762TIP3    H247482   4.984   2.366   1.633 -0.3631 -0.8271 -0.7590
 7763TIP3   OH247483   1.930   0.881   8.146  0.1672  0.8921  0.2877
 7763TIP3    H147484   1.978   0.881   8.064  0.0237  0.0723  0.1938
 7763TIP3    H247485   1.970   0.811   8.198 -0.9416  0.1568  0.1846
 7764TIP3   OH247486   4.476   1.882   9.602  0.1986 -0.0662  0.6814
 7764TIP3    H147487   4.547   1.852   9.545  0.3116  0.0778  0.7469
 7764TIP3    H247488   4.441   1.802   9.641 -1.9133 -0.5862 -1.9116
 7765TIP3   OH247489   3.327   0.201   2.814  0.0692  0.1478 -0.3893
 7765TIP3    H147490   3.394   0.241   2.758  0.8970  1.4416  1.4349
 7765TIP3    H247491   3.326   0.109   2.788  1.6857  0.3549 -1.3079
 7766TIP3   OH247492   2.572   3.245   7.278 -0.2059 -0.3295  0.2998
 7766TIP3    H147493   2.667   3.240   7.287  0.1103  2.2108 -0.7228
 7766TIP3    H247494   2.544   3.299   7.351 -0.4205  1.4912 -1.0562
 7767TIP3   OH247495   6.376   4.689   1.061 -0.3552 -0.0359  0.9692
 7767TIP3    H147496   6.339   4.604   1.083 -0.4739 -0.0094  0.8679
 7767TIP3    H247497   6.342   4.709   0.974  2.2753 -1.4012 -0.5025
 7768TIP3   OH247498   2.903   1.678   1.515  0.3925 -0.0957  0.0039
 7768TIP3    H147499   2.963   1.732   1.566 -0.2884  1.0124 -0.3462
 7768TIP3    H247500   2.949   1.661   1.433  0.3550  0.4944 -0.1400
 7769TIP3   OH247501   0.617   3.170   1.414 -0.2920  0.0649  0.0393
 7769TIP3    H147502   0.577   3.137   1.494  1.9371  0.9929  1.6353
 7769TIP3    H247503   0.645   3.259   1.436  0.7308  0.2082 -1.6442
 7770TIP3   OH247504   3.601   4.158   1.909 -0.2282 -0.3833 -0.1376
 7770TIP3    H147505   3.612   4.205   1.992 -1.6731  1.6791 -1.0621
 7770TIP3    H247506   3.677   4.183   1.857 -0.2090 -0.3146 -0.0763
 7771TIP3   OH247507   3.467   3.761   8.854 -0.0474 -0.4555  1.1047
 7771TIP3    H147508   3.562   3.767   8.839  0.1224  1.4558  2.4570
 7771TIP3    H247509   3.459   3.716   8.938 -0.3194 -0.5889  1.0061
 7772TIP3   OH247510   5.149   0.080   2.487  0.3335  0.2833  0.2831
 7772TIP3    H147511   5.225   0.028   2.460 -0.2555  0.1090 -1.0732
 7772TIP3    H247512   5.185   0.168   2.503  0.5754  0.6811 -2.1084
 7773TIP3   OH247513   2.276   6.340   2.496 -0.0340 -0.1578 -0.2293
 7773TIP3    H147514   2.335   6.407   2.462 -1.0684  1.4489  0.9497
 7773TIP3    H247515   2.320   6.257   2.478  1.1258  0.8006 -2.0925
 7774TIP3   OH247516   3.731   0.524   9.715 -0.3378 -0.1321  0.1955
 7774TIP3    H147517   3.777   0.441   9.701  0.0849 -0.2296  1.9560
 7774TIP3    H247518   3.790   0.574   9.772 -1.2951  0.7432  0.4334
 7775TIP3   OH247519   0.812   4.284   1.074  0.6028 -0.0604 -0.0626
 7775TIP3    H147520   0.726   4.304   1.110 -0.3931  1.2386 -2.8954
 7775TIP3    H247521   0.874   4.315   1.140 -1.0244 -1.5579  2.3073
 7776TIP3   OH247522   2.749   0.215   8.088 -0.1237  0.1767  0.1474
 7776TIP3    H147523   2.824   0.268   8.115  0.0373 -0.0177  0.0826
 7776TIP3    H247524   2.723   0.252   8.003 -0.1251  0.2681  0.1876
 7777TIP3   OH247525   3.064   1.122   7.092  0.2793 -0.4649 -0.4848
 7777TIP3    H147526   3.036   1.032   7.074  1.6250 -1.1163  0.4207
 7777TIP3    H247527   3.118   1.146   7.017  0.2307 -0.5651 -0.5514
 7778TIP3   OH247528   5.757   6.166   1.072 -0.3590 -0.0794  0.0344
 7778TIP3    H147529   5.756   6.172   1.168 -0.0742 -1.8968  0.1824
 7778TIP3    H247530   5.805   6.086   1.053  0.9516  1.0256 -1.7131
 7779TIP3   OH247531   2.431   2.529   7.677 -0.2096  0.2014  0.9029
 7779TIP3    H147532   2.497   2.515   7.745  1.3256  1.2696 -0.2997
 7779TIP3    H247533   2.422   2.444   7.634 -0.2149 -0.1443  1.5677
 7780TIP3   OH247534   7.158   4.307   0.755  0.4347 -0.2879 -0.0667
 7780TIP3    H147535   7.190   4.264   0.835 -1.6809 -1.3565  0.2768
 7780TIP3    H247536   7.113   4.238   0.707  1.3548  0.4242 -2.0607
 7781TIP3   OH247537   2.019   2.483   1.653 -0.2952  0.5051 -0.1328
 7781TIP3    H147538   2.058   2.432   1.582  0.8380 -1.7070  1.9362
 7781TIP3    H247539   1.932   2.507   1.620 -0.1826 -1.2621 -1.9153
 7782TIP3   OH247540   6.218   2.799   0.704 -0.1609  0.7272  0.6398
 7782TIP3    H147541   6.214   2.712   0.744 -0.7418  0.1264 -0.6675
 7782TIP3    H247542   6.296   2.797   0.649  1.3444  1.9686  2.5729
 7783TIP3   OH247543   6.914   1.615   9.295 -0.5370  0.3611  0.0854
 7783TIP3    H147544   6.924   1.525   9.264 -1.5809 -0.2340  1.3953
 7783TIP3    H247545   6.988   1.628   9.355 -1.0474 -0.0392  0.8088
 7784TIP3   OH247546   0.812   0.385   0.676  0.4095 -0.0187  0.1310
 7784TIP3    H147547   0.718   0.368   0.673  0.1984  0.7121  1.5827
 7784TIP3    H247548   0.820   0.478   0.653  0.9851 -0.5246 -1.8769
 7785TIP3   OH247549   3.015   3.021   7.464 -0.0493  0.9789  0.3072
 7785TIP3    H147550   3.044   2.998   7.552  1.3057  1.2678 -0.0297
 7785TIP3    H247551   3.086   3.075   7.429 -0.2428  0.3115 -1.2084
 7786TIP3   OH247552   1.052   4.668   0.247  0.2696 -0.0876  0.3804
 7786TIP3    H147553   1.143   4.666   0.278  0.5017  0.0666 -0.2667
 7786TIP3    H247554   0.999   4.651   0.325  0.9391 -2.4489  0.3836
 7787TIP3   OH247555   3.087   3.173   8.121  0.3057 -0.3385  0.4803
 7787TIP3    H147556   3.051   3.248   8.073  0.9900  0.4652  1.1925
 7787TIP3    H247557   3.165   3.207   8.164  0.4698 -1.3936  1.0536
 7788TIP3   OH247558   2.305   1.361   2.766 -0.4231  0.1920 -0.0268
 7788TIP3    H147559   2.281   1.322   2.682 -2.1287 -1.1674  1.0163
 7788TIP3    H247560   2.300   1.455   2.751  1.4853  0.0480 -2.0045
 7789TIP3   OH247561   7.253   6.477   9.072 -0.3119  0.4611 -0.0108
 7789TIP3    H147562   7.220   6.442   9.155 -0.6780  1.9582  0.5066
 7789TIP3    H247563   7.240   6.406   9.010 -0.9197 -0.3653  1.0133
 7790TIP3   OH247564   3.981   3.341   2.803  0.0993 -0.4450 -0.2640
 7790TIP3    H147565   4.038   3.379   2.869  0.0557  0.4718 -0.7347
 7790TIP3    H247566   4.033   3.342   2.723 -0.0994 -0.8713 -0.3990
 7791TIP3   OH247567   4.412   4.582   9.315 -0.1465 -0.6294  0.4372
 7791TIP3    H147568   4.382   4.501   9.357  0.4095 -2.2013 -1.9951
 7791TIP3    H247569   4.504   4.565   9.294  0.8600  1.8134  2.4406
 7792TIP3   OH247570   5.057   2.437   9.299  0.2830  0.4364  0.0042
 7792TIP3    H147571   5.113   2.392   9.235 -0.2209  1.0301 -0.8675
 7792TIP3    H247572   5.078   2.530   9.288 -0.8243  0.6621 -0.2914
 7793TIP3   OH247573   6.482   3.191   8.541 -0.3242  0.2432  0.5496
 7793TIP3    H147574   6.470   3.166   8.632  1.2117  1.5556  1.1571
 7793TIP3    H247575   6.553   3.134   8.510 -0.0932  0.5556  0.5029
 7794TIP3   OH247576   1.789   4.355   9.086  0.1877  0.0273 -0.3419
 7794TIP3    H147577   1.718   4.371   9.149  0.2501 -0.9102 -0.0321
 7794TIP3    H247578   1.811   4.443   9.053 -3.2675  0.1870 -2.8348
 7795TIP3   OH247579   3.571   4.792   8.365 -0.0294  0.4349  0.1524
 7795TIP3    H147580   3.504   4.861   8.358 -0.0037  0.4740  0.2855
 7795TIP3    H247581   3.647   4.837   8.402  0.0295  0.3628  0.1166
 7796TIP3   OH247582   5.334   3.756   8.193 -0.3230  0.0818  0.0095
 7796TIP3    H147583   5.370   3.844   8.208  0.7452 -0.2304 -0.5801
 7796TIP3    H247584   5.246   3.771   8.160 -0.1566  0.9412 -0.0737
 7797TIP3   OH247585   2.145   5.615   7.337 -0.1780  0.2170 -0.5274
 7797TIP3    H147586   2.125   5.702   7.368 -1.6483 -0.0999 -0.5414
 7797TIP3    H247587   2.209   5.581   7.400 -2.1256  0.0520  1.4760
 7798TIP3   OH247588   5.953   4.387   0.738  0.2853 -0.0368  0.5151
 7798TIP3    H147589   5.934   4.374   0.645  1.2878 -3.1026  0.6290
 7798TIP3    H247590   6.047   4.407   0.740  0.3193 -0.2249  0.8726
 7799TIP3   OH247591   4.660   2.759   9.689  0.4757  0.1539 -0.9505
 7799TIP3    H147592   4.640   2.747   9.782 -2.0718 -2.3089 -1.6831
 7799TIP3    H247593   4.581   2.801   9.654 -0.0230 -1.9650 -2.5170
 7800TIP3   OH247594   1.248   3.611   0.024 -0.1663  0.1094 -0.0115
 7800TIP3    H147595   1.243   3.609  -0.071 -0.8675 -0.5212  0.0341
 7800TIP3    H247596   1.168   3.654   0.052  0.2671  0.7487  0.2864
 7801TIP3   OH247597   2.636   6.156   6.737  0.1508  0.0220  0.1633
 7801TIP3    H147598   2.650   6.097   6.663  1.9466  2.2115 -1.3501
 7801TIP3    H247599   2.671   6.240   6.709 -3.4511  2.2896  1.7024
 7802TIP3   OH247600   6.931   3.335   9.096 -0.0591 -0.5318 -0.4252
 7802TIP3    H147601   6.911   3.252   9.052  1.0274  0.4894 -3.0550
 7802TIP3    H247602   6.860   3.393   9.068 -0.5280 -0.4045  0.9821
 7803TIP3   OH247603   6.838   2.788   1.967 -0.0894 -0.1580  0.1365
 7803TIP3    H147604   6.747   2.810   1.989  0.3682  1.6057  0.4451
 7803TIP3    H247605   6.853   2.829   1.882  0.6839  0.4167  0.5328
 7804TIP3   OH247606   6.779   4.143   0.279  0.3189  0.1878  0.7982
 7804TIP3    H147607   6.762   4.083   0.352 -1.8846 -1.7600 -1.1680
 7804TIP3    H247608   6.797   4.086   0.204  0.2083  2.0365 -0.7141
 7805TIP3   OH247609   1.945   5.412   2.068  0.0464 -0.2087  0.2659
 7805TIP3    H147610   1.886   5.478   2.104 -0.8974 -0.7703 -0.2003
 7805TIP3    H247611   1.894   5.369   1.999  1.5509  0.3934 -1.3096
 7806TIP3   OH247612   6.427   6.321   9.185 -0.0102 -0.2163 -0.1123
 7806TIP3    H147613   6.342   6.320   9.227  1.6610 -0.7946  3.6470
 7806TIP3    H247614   6.425   6.398   9.129 -2.1674  1.2285  1.7736
 7807TIP3   OH247615   6.193   2.789   0.068 -0.0714 -0.3760  0.5976
 7807TIP3    H147616   6.194   2.699   0.035 -0.3910 -0.2285  0.1846
 7807TIP3    H247617   6.207   2.780   0.162  1.5144 -0.7643  0.3495
 7808TIP3   OH247618   5.949   3.399   7.974  0.1845 -0.3178  0.1324
 7808TIP3    H147619   6.010   3.361   7.910  0.9248 -0.1871  0.7398
 7808TIP3    H247620   5.897   3.462   7.924 -1.4307 -2.4396 -1.0194
 7809TIP3   OH247621   2.038   6.528   2.754  0.9587  0.1602 -0.2148
 7809TIP3    H147622   2.061   6.442   2.719  0.1322  0.3382 -1.2271
 7809TIP3    H247623   2.036   6.515   2.849 -1.4865 -1.5659 -0.4020
 7810TIP3   OH247624   5.861   5.343   9.227 -0.9804  0.2091  0.0078
 7810TIP3    H147625   5.878   5.434   9.200  0.1887 -0.3453 -1.2242
 7810TIP3    H247626   5.802   5.352   9.303  0.2912  2.0512  0.8728
 7811TIP3   OH247627   6.134   7.188   8.401 -0.1073  0.1633 -0.5951
 7811TIP3    H147628   6.228   7.206   8.408 -0.2679  0.6520  0.6239
 7811TIP3    H247629   6.099   7.260   8.349  0.1909  0.0007 -1.0177
 7812TIP3   OH247630   7.022   4.651   8.094 -0.4006  0.3163 -0.7674
 7812TIP3    H147631   7.055   4.731   8.134 -0.3354  0.3808 -0.9521
 7812TIP3    H247632   7.031   4.584   8.162 -2.5953  0.9359  0.2386
 7813TIP3   OH247633   6.143   7.166   0.648 -0.1382 -0.3234  0.0756
 7813TIP3    H147634   6.057   7.177   0.608 -0.3599  0.5595  0.7612
 7813TIP3    H247635   6.195   7.239   0.614 -0.3652  0.5203  1.4524
 7814TIP3   OH247636   0.155   2.391   0.514 -0.0415 -0.4864  0.0741
 7814TIP3    H147637   0.085   2.340   0.473  1.1468 -2.4984  0.4108
 7814TIP3    H247638   0.221   2.400   0.445 -0.0789  0.3299  0.1335
 7815TIP3   OH247639   0.094   5.439   1.229 -0.1767  0.0566 -0.1200
 7815TIP3    H147640   0.031   5.444   1.300  1.6714 -1.2860  1.7047
 7815TIP3    H247641   0.145   5.520   1.236  0.3860 -0.3467  0.4670
 7816TIP3   OH247642   5.175   6.657   1.447 -0.7432  0.1057  0.1114
 7816TIP3    H147643   5.198   6.725   1.383  1.5776 -0.1029  0.6178
 7816TIP3    H247644   5.245   6.660   1.511 -1.5202 -1.5989  1.1103
 7817TIP3   OH247645   7.083   5.976   9.465 -0.1692 -0.0166  0.2620
 7817TIP3    H147646   7.167   6.015   9.490  0.5829 -0.9840 -0.6729
 7817TIP3    H247647   7.103   5.922   9.389 -1.8160  0.3988 -0.5025
 7818TIP3   OH247648   0.339   5.908   0.650  0.2547  0.2843 -0.3263
 7818TIP3    H147649   0.258   5.957   0.665 -0.2431 -0.4774 -0.4705
 7818TIP3    H247650   0.319   5.851   0.575  0.7448 -0.2936 -0.0278
 7819TIP3   OH247651   6.652   4.132   8.961  0.1181 -0.3231  0.3555
 7819TIP3    H147652   6.580   4.097   9.014 -0.4987 -0.5271 -0.5950
 7819TIP3    H247653   6.641   4.227   8.965  0.9905 -0.2490  1.8262
 7820TIP3   OH247654   1.254   5.788   8.275  0.0427 -0.0040  0.0480
 7820TIP3    H147655   1.212   5.766   8.192 -0.6941  1.9964 -0.1529
 7820TIP3    H247656   1.234   5.713   8.332 -0.6335 -0.7669 -1.1389
 7821TIP3   OH247657   2.863   2.638   7.385 -0.6831 -0.0087 -0.0645
 7821TIP3    H147658   2.818   2.708   7.431  0.8869 -0.1903  1.8692
 7821TIP3    H247659   2.863   2.666   7.293 -2.3329  1.2338  0.2638
 7822TIP3   OH247660   1.680   6.806   1.200 -0.0873 -0.2671  0.2672
 7822TIP3    H147661   1.743   6.877   1.194  0.6469 -0.7098  1.9765
 7822TIP3    H247662   1.610   6.830   1.140  1.5640  0.3706 -1.4940
 7823TIP3   OH247663   0.751   1.395   2.482  0.2969  0.1098 -0.2681
 7823TIP3    H147664   0.768   1.420   2.572  1.3129  1.8572 -0.8997
 7823TIP3    H247665   0.756   1.299   2.482 -0.0721  0.0566  1.5714
 7824TIP3   OH247666   2.396   5.773   1.238  0.4495 -0.2217  0.3077
 7824TIP3    H147667   2.489   5.782   1.218  0.3344  0.4311  0.0613
 7824TIP3    H247668   2.378   5.680   1.225  1.1283 -0.4030  0.6234
 7825TIP3   OH247669   3.002   2.330   9.324  0.2909  0.0737 -0.2320
 7825TIP3    H147670   2.912   2.332   9.292 -0.7015 -0.6976  2.2393
 7825TIP3    H247671   3.021   2.421   9.349 -0.3133  0.0278  0.4341
 7826TIP3   OH247672   0.754   1.415   1.521 -0.0136  0.3898  0.2578
 7826TIP3    H147673   0.827   1.442   1.577 -0.4756 -0.1716  1.1527
 7826TIP3    H247674   0.796   1.367   1.449  0.4221 -2.1272  2.0350
 7827TIP3   OH247675   1.924   5.364   1.564  0.4784  0.4186  0.1136
 7827TIP3    H147676   1.938   5.458   1.554  0.6042  0.6854  2.2537
 7827TIP3    H247677   1.829   5.354   1.556  0.1611  1.1444  2.1756
 7828TIP3   OH247678   7.263   5.490   0.289 -0.2660  0.0459 -0.3742
 7828TIP3    H147679   7.319   5.488   0.211  0.9406  0.5091  0.4496
 7828TIP3    H247680   7.239   5.398   0.303  1.6481 -0.4115  0.1827
 7829TIP3   OH247681   2.625   1.692   6.590  0.0485 -0.2204 -0.2564
 7829TIP3    H147682   2.615   1.786   6.574  0.0193 -0.0399  0.7216
 7829TIP3    H247683   2.688   1.687   6.661 -0.6386 -0.8832  0.3269
 7830TIP3   OH247684   3.079   2.214   8.500 -0.1226  0.4681 -0.8104
 7830TIP3    H147685   3.087   2.292   8.446 -0.8097  1.8991  1.0350
 7830TIP3    H247686   3.090   2.246   8.590  1.7596 -1.9232 -0.0898
 7831TIP3   OH247687   3.104   1.770   9.068  0.6967 -0.4940 -0.0092
 7831TIP3    H147688   3.159   1.790   9.144  0.9184 -1.2342  0.0323
 7831TIP3    H247689   3.033   1.716   9.103 -0.8726  1.5424  0.1945
 7832TIP3   OH247690   6.384   6.632   7.746  0.1093  0.1737  0.1859
 7832TIP3    H147691   6.348   6.601   7.662  0.1103  1.9439 -0.5128
 7832TIP3    H247692   6.317   6.691   7.780 -0.2764 -1.1827  1.9057
 7833TIP3   OH247693   5.561   5.439   1.650 -0.4059  0.1066  0.3865
 7833TIP3    H147694   5.533   5.386   1.575 -1.8648  2.4482 -0.8492
 7833TIP3    H247695   5.656   5.439   1.646 -0.4313  0.9216 -2.1153
 7834TIP3   OH247696   6.587   1.555   9.772  0.0490  0.5800  0.1972
 7834TIP3    H147697   6.610   1.490   9.838 -2.3217  0.8033  1.3693
 7834TIP3    H247698   6.595   1.509   9.689 -0.7525 -0.9842  0.9331
 7835TIP3   OH247699   6.481   4.462   0.637  0.4630 -0.1020  0.2616
 7835TIP3    H147700   6.563   4.425   0.669  1.4392  0.9024 -1.0053
 7835TIP3    H247701   6.497   4.482   0.545 -1.6605 -1.1886 -0.4240
 7836TIP3   OH247702   5.777   3.719   8.155 -0.3209  0.9302  0.0765
 7836TIP3    H147703   5.864   3.690   8.127 -0.2519  0.8838  0.3329
 7836TIP3    H247704   5.750   3.654   8.219 -0.9764  0.3917 -0.7394
 7837TIP3   OH247705   5.844   4.646   0.828 -0.6355  0.1635 -0.2859
 7837TIP3    H147706   5.862   4.553   0.813 -2.4503 -0.2603 -0.0147
 7837TIP3    H247707   5.869   4.689   0.746  0.3817 -0.5193 -0.3518
 7838TIP3   OH247708   2.384   3.263   1.128  0.5541  0.3481  0.1192
 7838TIP3    H147709   2.469   3.255   1.172  0.1352 -1.7610  0.6629
 7838TIP3    H247710   2.398   3.223   1.042  0.3382  0.8414 -0.1483
 7839TIP3   OH247711   1.171   2.973   8.930  0.5061  0.8889 -0.3338
 7839TIP3    H147712   1.227   2.896   8.942 -1.5613 -0.8364 -1.2205
 7839TIP3    H247713   1.226   3.035   8.881  2.0844 -0.1650  0.0308
 7840TIP3   OH247714   3.622   5.892   7.387 -0.2836 -0.6295  0.4356
 7840TIP3    H147715   3.642   5.981   7.416  1.2135 -0.6316 -0.4738
 7840TIP3    H247716   3.628   5.839   7.466  1.4628 -0.3017  0.5655
 7841TIP3   OH247717   3.765   6.695   9.398 -0.4767 -0.1165  0.9839
 7841TIP3    H147718   3.831   6.747   9.352 -2.5195  1.5593 -0.1679
 7841TIP3    H247719   3.795   6.605   9.388  0.3440  0.3796 -1.6935
 7842TIP3   OH247720   1.924   1.280   7.910 -0.0194 -0.6648  0.4031
 7842TIP3    H147721   1.991   1.332   7.956  2.1635 -0.2665 -2.8873
 7842TIP3    H247722   1.973   1.228   7.847 -2.6973 -1.8933 -0.8269
 7843TIP3   OH247723   6.040   6.761   0.431  0.3042  0.3245 -0.2494
 7843TIP3    H147724   5.964   6.704   0.426 -0.0872  0.9245 -1.4837
 7843TIP3    H247725   6.009   6.846   0.398  1.4908  0.5970 -0.7259
 7844TIP3   OH247726   1.961   3.340   7.757 -0.2585  0.5638  0.0020
 7844TIP3    H147727   1.873   3.312   7.731 -0.7290  1.2275  0.7992
 7844TIP3    H247728   2.003   3.365   7.675 -0.2732 -1.1601 -0.5731
 7845TIP3   OH247729   6.537   7.028   8.740 -0.2877 -0.3523 -0.0957
 7845TIP3    H147730   6.631   7.015   8.757 -0.7160 -2.3704  1.0393
 7845TIP3    H247731   6.527   7.006   8.648  0.7009  2.3877 -0.9628
 7846TIP3   OH247732   6.117   7.249   2.193 -0.5564  0.4739 -0.2804
 7846TIP3    H147733   6.056   7.177   2.175  0.6284 -0.6262 -0.0941
 7846TIP3    H247734   6.171   7.255   2.114  2.5296 -2.1842  1.3874
 7847TIP3   OH247735   5.817   2.735   1.920  0.4051  0.2946  0.3183
 7847TIP3    H147736   5.859   2.761   1.838  0.5086  0.8830  0.5478
 7847TIP3    H247737   5.879   2.675   1.961 -0.6943 -1.9616 -1.1356
 7848TIP3   OH247738   3.175   3.551   8.203 -0.3438  0.5866  0.6961
 7848TIP3    H147739   3.205   3.594   8.283  0.6393  1.3555 -0.0639
 7848TIP3    H247740   3.230   3.473   8.196  0.6951  1.3573 -0.0509
 7849TIP3   OH247741   6.151   4.474   1.067  0.3307 -0.0246 -0.1233
 7849TIP3    H147742   6.120   4.400   1.119  2.0624 -0.6411  0.1161
 7849TIP3    H247743   6.184   4.435   0.987 -1.0407  0.7844 -1.1356
 7850TIP3   OH247744   4.138   2.318   7.845  0.5800  0.1260 -0.0977
 7850TIP3    H147745   4.055   2.320   7.797  0.6354  0.5096 -0.1865
 7850TIP3    H247746   4.172   2.407   7.837  0.7907  0.0872  0.3075
 7851TIP3   OH247747   5.429   5.075   7.884  0.3508 -0.2056  0.0059
 7851TIP3    H147748   5.438   5.110   7.795  0.0578 -0.2197 -0.0298
 7851TIP3    H247749   5.335   5.072   7.899  0.4064 -0.0299  0.3875
 7852TIP3   OH247750   7.202   5.975   9.888 -0.5557  0.2699 -0.1053
 7852TIP3    H147751   7.121   6.025   9.896 -0.9004 -0.0038 -1.5479
 7852TIP3    H247752   7.191   5.924   9.808  0.5182 -0.7717  0.3770
 7853TIP3   OH247753   1.798   5.171   0.405 -0.1012 -0.5670  0.1003
 7853TIP3    H147754   1.794   5.215   0.320 -0.6310  0.6188  0.7177
 7853TIP3    H247755   1.735   5.100   0.398  0.7439 -1.2415 -0.9035
 7854TIP3   OH247756   4.526   0.138   8.654 -0.0209  0.7664 -0.1699
 7854TIP3    H147757   4.573   0.055   8.665 -0.9589  0.3310  0.6736
 7854TIP3    H247758   4.443   0.125   8.700 -0.6955  1.7522 -1.0727
 7855TIP3   OH247759   5.102   2.665   0.040 -0.0309 -0.3863 -0.1138
 7855TIP3    H147760   5.180   2.695  -0.007 -0.2240  0.8057  0.2812
 7855TIP3    H247761   5.074   2.742   0.090 -2.4469 -0.2313 -1.5782
 7856TIP3   OH247762   1.098   5.355   9.234 -0.1458 -0.0936  0.5457
 7856TIP3    H147763   1.121   5.264   9.250  0.3584 -0.2434 -0.8658
 7856TIP3    H247764   1.054   5.384   9.314  2.6208 -0.5748  2.3383
 7857TIP3   OH247765   5.593   5.984   8.268  0.3061  0.2694  0.0174
 7857TIP3    H147766   5.583   5.912   8.206  0.8800  2.3946 -2.7472
 7857TIP3    H247767   5.538   6.054   8.233  0.2550  1.4303  2.2331
 7858TIP3   OH247768   1.620   4.219   0.994 -0.8276 -0.1681 -0.1712
 7858TIP3    H147769   1.589   4.129   0.983 -1.1010 -0.3883  2.0526
 7858TIP3    H247770   1.553   4.262   1.045 -0.8129  1.4249 -1.4074
 7859TIP3   OH247771   6.413   1.227   0.956 -0.5960 -0.1490  0.8682
 7859TIP3    H147772   6.343   1.194   0.900 -0.1172 -0.2266  0.3093
 7859TIP3    H247773   6.420   1.320   0.934  0.4972 -0.4611 -0.1946
 7860TIP3   OH247774   4.417   3.983   7.638  0.8651 -0.1888 -0.9794
 7860TIP3    H147775   4.485   3.916   7.630 -0.4622 -1.7366 -0.0274
 7860TIP3    H247776   4.345   3.950   7.584  0.6893  1.2191 -1.6419
 7861TIP3   OH247777   2.582   5.948   8.694  0.0518  0.0554 -0.3991
 7861TIP3    H147778   2.498   5.904   8.712 -0.2370  0.6093 -0.3627
 7861TIP3    H247779   2.564   6.004   8.618  0.2660  0.5093 -0.1186
 7862TIP3   OH247780   0.419   7.084   6.956  1.0400 -0.4331 -0.3273
 7862TIP3    H147781   0.355   7.014   6.965  0.0967  0.4495  0.0150
 7862TIP3    H247782   0.503   7.039   6.942  0.1432 -1.5915 -2.3652
 7863TIP3   OH247783   1.468   0.313   7.385  0.1686  0.2927 -0.2870
 7863TIP3    H147784   1.527   0.287   7.455 -0.0564  1.1086  0.2230
 7863TIP3    H247785   1.391   0.257   7.396  0.1682  0.3640  0.0629
 7864TIP3   OH247786   4.361   1.560   0.925 -0.1221 -0.3890 -0.1380
 7864TIP3    H147787   4.383   1.528   0.838 -0.8071  0.2169 -0.5522
 7864TIP3    H247788   4.308   1.639   0.908 -0.8879 -0.6843  0.8115
 7865TIP3   OH247789   1.417   5.930   8.781 -0.5077  0.0321  0.3597
 7865TIP3    H147790   1.424   5.995   8.851  0.7409 -2.0611  2.2819
 7865TIP3    H247791   1.356   5.865   8.814 -0.0757 -0.8934 -0.6042
 7866TIP3   OH247792   1.799   7.356   8.604  0.2405  0.3375 -0.1679
 7866TIP3    H147793   1.888   7.338   8.632  0.0406  0.7617  0.7903
 7866TIP3    H247794   1.774   7.436   8.652  0.1209  1.5487 -2.1269
 7867TIP3   OH247795   3.659   0.835   7.125 -0.2016 -0.1336 -0.2894
 7867TIP3    H147796   3.667   0.761   7.185  1.0203  0.4665  0.3123
 7867TIP3    H247797   3.723   0.817   7.056  0.7432  0.7833  0.3285
 7868TIP3   OH247798   4.214   0.554   0.460 -0.4161  0.2767  0.2691
 7868TIP3    H147799   4.278   0.484   0.446  0.2162  0.7938  0.5229
 7868TIP3    H247800   4.201   0.555   0.555 -1.4701 -0.4080  0.1368
 7869TIP3   OH247801   2.568   1.225   8.218  0.8451 -0.2312 -0.1625
 7869TIP3    H147802   2.634   1.294   8.217 -0.9916  1.6789  1.1069
 7869TIP3    H247803   2.586   1.176   8.299 -0.0475  1.1408  0.9087
 7870TIP3   OH247804   2.508   4.953   6.346  0.2144  0.0511  0.1655
 7870TIP3    H147805   2.516   4.967   6.440  0.2413  1.0623  0.0188
 7870TIP3    H247806   2.537   5.035   6.307  0.4818 -0.4631 -0.7370
 7871TIP3   OH247807   4.067   4.844   9.130  0.1346 -0.2988 -0.9119
 7871TIP3    H147808   3.995   4.800   9.174 -0.6609  0.9470 -0.9204
 7871TIP3    H247809   4.032   4.930   9.107  0.9148 -0.4591 -2.8870
 7872TIP3   OH247810   0.043   7.329   9.330 -0.0103 -0.3777  0.2228
 7872TIP3    H147811   0.118   7.273   9.314  0.0907 -0.5421  1.2219
 7872TIP3    H247812   0.001   7.292   9.407  0.9365  1.7873  1.8999
 7873TIP3   OH247813   1.825   1.844   1.765 -0.0683  0.3641 -0.2612
 7873TIP3    H147814   1.852   1.755   1.786  1.6051  0.5412 -1.3755
 7873TIP3    H247815   1.866   1.861   1.679  1.3204  2.8510  0.7835
 7874TIP3   OH247816   5.406   5.395   0.362  0.6455  0.2893  0.0854
 7874TIP3    H147817   5.357   5.360   0.437 -0.8997  2.0090 -0.0623
 7874TIP3    H247818   5.339   5.416   0.298  1.6440  2.0555 -0.4295
 7875TIP3   OH247819   2.101   4.201   0.146 -0.1613 -0.2019 -0.0688
 7875TIP3    H147820   2.049   4.159   0.077 -0.4845  0.3867 -0.1912
 7875TIP3    H247821   2.167   4.251   0.099  0.3929 -0.7762  0.0843
 7876TIP3   OH247822   4.171   7.368   1.824 -1.0236 -0.3458  0.0570
 7876TIP3    H147823   4.222   7.317   1.887  0.6163  0.9315 -0.1815
 7876TIP3    H247824   4.231   7.385   1.752 -1.5899  1.6552 -0.0020
 7877TIP3   OH247825   3.574   3.983   7.673  0.1711 -0.0646 -0.4533
 7877TIP3    H147826   3.495   3.963   7.724  1.1064  0.0106  1.0887
 7877TIP3    H247827   3.596   4.073   7.695  0.9582 -0.2373 -0.4850
 7878TIP3   OH247828   3.729   4.850   2.282  0.1421  0.4344 -0.1361
 7878TIP3    H147829   3.800   4.883   2.227  0.3396  1.1567  0.5469
 7878TIP3    H247830   3.773   4.818   2.361 -0.0966 -0.9690 -0.5284
 7879TIP3   OH247831   0.129   4.589   0.447  0.4020  0.2425 -0.1567
 7879TIP3    H147832   0.050   4.591   0.393 -0.2290  1.5889  0.7560
 7879TIP3    H247833   0.140   4.497   0.469 -0.9076  0.0203 -0.3379
 7880TIP3   OH247834   7.196   2.906   9.289 -0.4466 -0.5325 -0.3297
 7880TIP3    H147835   7.192   2.819   9.329  0.5575 -0.8121 -0.8140
 7880TIP3    H247836   7.148   2.962   9.350  0.7936 -0.9985  1.1249
 7881TIP3   OH247837   0.458   0.054   8.681  0.0995  0.5554  0.4246
 7881TIP3    H147838   0.364   0.036   8.677  0.3311 -0.6047 -0.2988
 7881TIP3    H247839   0.484   0.028   8.769 -0.5993  2.8291  1.3737
 7882TIP3   OH247840   0.711   2.248   2.761 -0.0498 -0.3705 -0.2621
 7882TIP3    H147841   0.730   2.202   2.680  0.7990  0.4295 -0.5314
 7882TIP3    H247842   0.794   2.250   2.808 -0.2955  0.0669  0.1653
 7883TIP3   OH247843   0.842   6.432   9.757  0.1797 -0.0351 -0.0214
 7883TIP3    H147844   0.818   6.469   9.843  0.6108 -0.0719  0.1154
 7883TIP3    H247845   0.851   6.508   9.700  2.2610  0.2052  0.5490
 7884TIP3   OH247846   5.391   2.092   9.026 -0.0836  0.3235 -0.4185
 7884TIP3    H147847   5.429   2.088   8.938  0.0859 -1.4199 -0.3036
 7884TIP3    H247848   5.362   2.183   9.036  1.0224  0.8555 -1.7871
 7885TIP3   OH247849   3.582   5.477   0.335  0.1411 -0.8056  0.2472
 7885TIP3    H147850   3.531   5.425   0.398 -1.7186 -0.3206 -0.7615
 7885TIP3    H247851   3.520   5.496   0.265  1.1618  1.5844 -0.1052
 7886TIP3   OH247852   5.148   0.717   9.566  0.0226 -0.3147  0.1057
 7886TIP3    H147853   5.078   0.700   9.503 -0.2985 -0.9303  0.6151
 7886TIP3    H247854   5.159   0.812   9.565 -0.5387 -0.2494 -0.2732
 7887TIP3   OH247855   1.698   4.817   3.024  0.3552  0.1957 -0.4868
 7887TIP3    H147856   1.758   4.793   2.954  1.1599  1.1198 -0.1410
 7887TIP3    H247857   1.614   4.779   2.999  1.0933 -1.1709 -0.9457
 7888TIP3   OH247858   2.530   3.081   1.991  0.0437 -0.1056  0.2379
 7888TIP3    H147859   2.502   2.991   2.007 -2.0283  0.6564  1.1847
 7888TIP3    H247860   2.467   3.135   2.039  2.1294  1.8227  0.9870
 7889TIP3   OH247861   0.135   6.716   9.884  0.1172  0.5937 -0.4164
 7889TIP3    H147862   0.197   6.762   9.941  0.2703 -2.7683  2.4457
 7889TIP3    H247863   0.050   6.731   9.924 -0.3676  1.4008 -1.6781
 7890TIP3   OH247864   1.272   1.633   2.443  0.1255  1.2626  0.1118
 7890TIP3    H147865   1.289   1.720   2.408 -0.3319  0.9130 -1.0085
 7890TIP3    H247866   1.234   1.650   2.529  1.4684  2.1251  0.5805
 7891TIP3   OH247867   2.387   2.213   1.718  0.3182 -0.3182 -0.0154
 7891TIP3    H147868   2.307   2.261   1.737 -0.8019 -0.8993 -2.7869
 7891TIP3    H247869   2.386   2.139   1.778 -0.2664  0.6374  1.1942
 7892TIP3   OH247870   3.161   6.935   2.536 -0.7267 -0.0614  0.2880
 7892TIP3    H147871   3.153   7.012   2.480  1.1569 -0.1970 -0.2457
 7892TIP3    H247872   3.198   6.968   2.617 -1.6506 -0.1538  0.7578
 7893TIP3   OH247873   5.707   1.710   0.143  0.0067 -0.1684 -0.8086
 7893TIP3    H147874   5.783   1.767   0.151  1.2078 -1.1622 -3.7498
 7893TIP3    H247875   5.632   1.766   0.165  1.4043  1.3708  0.2842
 7894TIP3   OH247876   1.709   6.550   2.826  0.1191 -0.1031  0.9391
 7894TIP3    H147877   1.734   6.514   2.740 -0.2928 -0.6482  1.0414
 7894TIP3    H247878   1.613   6.548   2.826  0.0370  1.9179  0.5730
 7895TIP3   OH247879   6.566   3.468   1.843  0.2193 -0.3072  0.3996
 7895TIP3    H147880   6.626   3.451   1.771 -0.4187  1.9672 -0.7598
 7895TIP3    H247881   6.618   3.449   1.922  1.6521 -0.6952 -0.5953
 7896TIP3   OH247882   0.260   2.745   9.044 -0.0202  0.3322  0.4797
 7896TIP3    H147883   0.327   2.678   9.029  0.2023  1.0030 -2.0863
 7896TIP3    H247884   0.190   2.722   8.983  0.4935  2.9072 -1.2419
 7897TIP3   OH247885   4.117   1.485   8.314  0.4219 -0.2843 -0.0797
 7897TIP3    H147886   4.058   1.524   8.378  0.1921 -0.1317 -0.3824
 7897TIP3    H247887   4.125   1.394   8.343 -1.2839 -0.7645 -0.9465
 7898TIP3   OH247888   1.254   7.361   7.199  0.2076  0.2233  0.2223
 7898TIP3    H147889   1.178   7.303   7.196 -0.6272  1.2631  0.6329
 7898TIP3    H247890   1.226   7.440   7.152  0.5434  1.1566  1.5365
 7899TIP3   OH247891   3.221   5.641   8.907  0.0793  0.0409  0.3560
 7899TIP3    H147892   3.303   5.690   8.904  0.0007  0.1438 -0.2347
 7899TIP3    H247893   3.165   5.685   8.843 -0.1834 -0.4756  0.2290
 7900TIP3   OH247894   6.534   4.693   1.254 -0.3911  0.0487  0.3599
 7900TIP3    H147895   6.492   4.758   1.310 -1.3940  1.5896 -2.0379
 7900TIP3    H247896   6.479   4.690   1.175  0.9361 -2.0250 -0.5699
 7901TIP3   OH247897   1.340   5.671   7.681  0.4762 -0.4314  0.6618
 7901TIP3    H147898   1.376   5.681   7.769  0.7861  0.6391  0.4242
 7901TIP3    H247899   1.261   5.617   7.693 -1.6194  2.6969  2.1757
 7902TIP3   OH247900   0.675   5.946   9.965 -0.3391 -0.2588  0.3935
 7902TIP3    H147901   0.693   5.901   9.883  0.1546 -1.8893  1.3489
 7902TIP3    H247902   0.579   5.949   9.971 -0.3795  0.1031 -0.3472
 7903TIP3   OH247903   0.606   0.264   7.773 -0.3681 -0.1901 -0.3129
 7903TIP3    H147904   0.572   0.305   7.853 -0.8246  0.5213 -0.8602
 7903TIP3    H247905   0.571   0.175   7.775 -0.4457 -0.1495  0.2383
 7904TIP3   OH247906   0.073   6.604   9.103  0.6403  0.1865 -0.0667
 7904TIP3    H147907  -0.017   6.571   9.100  0.1477  1.4535  0.1819
 7904TIP3    H247908   0.126   6.533   9.067 -0.4342 -0.6663  0.0032
 7905TIP3   OH247909   4.670   3.441   0.279 -0.0721 -0.0481  0.1836
 7905TIP3    H147910   4.739   3.374   0.283  0.9934  0.8611 -1.5919
 7905TIP3    H247911   4.692   3.501   0.350 -0.5800 -1.1018  1.2821
 7906TIP3   OH247912   6.236   3.410   0.714  0.1910 -0.5171  0.0061
 7906TIP3    H147913   6.232   3.475   0.784 -1.4124  0.1602 -0.6704
 7906TIP3    H247914   6.321   3.367   0.726  0.7792  0.8966  1.1855
 7907TIP3   OH247915   5.646   0.346   7.726 -0.4271  0.5774  0.5560
 7907TIP3    H147916   5.615   0.258   7.702  1.9086 -0.4232  0.9504
 7907TIP3    H247917   5.593   0.405   7.673  0.2601 -1.2363 -2.3968
 7908TIP3   OH247918   0.014   1.078   9.076 -0.5539  0.1930  0.2092
 7908TIP3    H147919   0.084   1.024   9.113  0.1705  1.0753  0.1753
 7908TIP3    H247920  -0.006   1.142   9.144  0.3297  1.4177 -0.6232
 7909TIP3   OH247921   0.850   2.944   1.647  0.5928  0.0163  0.4583
 7909TIP3    H147922   0.844   3.008   1.718  1.0895  0.4119  0.1525
 7909TIP3    H247923   0.922   2.976   1.592  0.5287 -0.5451  0.0391
 7910TIP3   OH247924   5.302   0.638   8.680 -0.2203  0.4219  0.7513
 7910TIP3    H147925   5.246   0.597   8.614  1.1992  0.8150 -0.7722
 7910TIP3    H247926   5.313   0.571   8.748 -1.8506  0.0691  0.7092
 7911TIP3   OH247927   2.867   2.698   8.043  0.2380 -0.3057  0.3337
 7911TIP3    H147928   2.857   2.706   8.138  1.7595  2.2610  0.3836
 7911TIP3    H247929   2.865   2.789   8.012 -1.7981 -1.1205 -2.3223
 7912TIP3   OH247930   1.947   1.222   7.313  0.5010 -0.2126 -0.5147
 7912TIP3    H147931   2.042   1.211   7.306  0.5034 -0.5604 -0.0232
 7912TIP3    H247932   1.930   1.310   7.280  0.9921 -0.1648 -0.6443
 7913TIP3   OH247933   6.656   0.685   0.212  0.2954 -0.0732 -0.1975
 7913TIP3    H147934   6.737   0.671   0.162  1.4136  1.3310  1.0819
 7913TIP3    H247935   6.650   0.610   0.271 -1.6433 -2.3414 -3.0267
 7914TIP3   OH247936   4.359   5.891   2.763 -0.2584 -0.4146  0.0384
 7914TIP3    H147937   4.369   5.819   2.700 -0.8026  0.6879 -1.3752
 7914TIP3    H247938   4.292   5.860   2.824 -1.9004 -0.4330 -1.6705
 7915TIP3   OH247939   3.359   5.525   9.391 -0.0374 -0.9502 -0.7454
 7915TIP3    H147940   3.297   5.575   9.445 -0.2527 -0.9642 -0.9742
 7915TIP3    H247941   3.348   5.561   9.303  0.8093 -0.4592 -0.6559
 7916TIP3   OH247942   1.793   2.178   2.494 -0.2329  0.0269 -0.0811
 7916TIP3    H147943   1.828   2.172   2.405 -0.4058 -1.5620 -0.0755
 7916TIP3    H247944   1.705   2.139   2.488  0.2106 -1.2141  0.9930
 7917TIP3   OH247945   5.516   3.714   9.256  0.0555  0.2206  0.0403
 7917TIP3    H147946   5.471   3.630   9.251 -0.9141  0.7851 -1.4234
 7917TIP3    H247947   5.452   3.778   9.224  1.2506  1.3119 -0.2698
 7918TIP3   OH247948   3.287   0.435   2.481  0.0478 -0.1205 -0.6692
 7918TIP3    H147949   3.252   0.523   2.495 -1.0152 -0.2758 -2.1104
 7918TIP3    H247950   3.380   0.448   2.466  0.0437  0.6664 -0.0958
 7919TIP3   OH247951   2.186   6.950   9.599  0.2089 -0.0168  0.0588
 7919TIP3    H147952   2.245   6.948   9.674  1.0022  0.2063 -0.5514
 7919TIP3    H247953   2.180   7.042   9.575  1.0722 -0.2034 -0.9936
 7920TIP3   OH247954   3.751   2.149   2.026  0.6050  0.5718 -0.1990
 7920TIP3    H147955   3.730   2.145   2.120  2.6182 -2.1021  0.2598
 7920TIP3    H247956   3.728   2.238   2.000  0.0095  1.4195  2.8411
 7921TIP3   OH247957   5.191   6.495   9.048  0.0836 -0.0621  0.1669
 7921TIP3    H147958   5.167   6.479   9.140  1.2438 -0.2713  0.4495
 7921TIP3    H247959   5.266   6.439   9.033 -1.2968 -1.5583 -1.5450
 7922TIP3   OH247960   1.009   6.488   6.409 -0.2473  0.0498  0.2094
 7922TIP3    H147961   0.949   6.504   6.482 -1.0835 -0.6403 -0.3057
 7922TIP3    H247962   1.003   6.394   6.393  1.1596 -0.0795  0.2845
 7923TIP3   OH247963   2.663   1.729   0.805  0.0759 -0.1537 -0.2113
 7923TIP3    H147964   2.686   1.731   0.898  0.7087  0.0217 -0.3652
 7923TIP3    H247965   2.593   1.793   0.796  1.0190  0.9243 -0.1104
 7924TIP3   OH247966   0.123   5.675   8.095 -0.2591 -0.0985  0.0127
 7924TIP3    H147967   0.197   5.710   8.045  0.2209 -0.5945  0.3676
 7924TIP3    H247968   0.055   5.658   8.030  0.4687 -1.0367 -0.5157
 7925TIP3   OH247969   4.628   4.559   8.264  0.5092  0.4957 -0.1765
 7925TIP3    H147970   4.591   4.596   8.184 -1.0144 -0.8209 -0.1322
 7925TIP3    H247971   4.556   4.558   8.326  0.6420 -1.8254  0.0463
 7926TIP3   OH247972   3.924   3.357   1.120 -0.6367 -0.3328 -0.3269
 7926TIP3    H147973   3.898   3.268   1.097 -1.6405 -0.5563  1.4996
 7926TIP3    H247974   4.020   3.357   1.112 -0.5348 -1.8546  0.4904
 7927TIP3   OH247975   1.720   6.385   9.723 -0.5694 -0.0634 -0.1448
 7927TIP3    H147976   1.671   6.432   9.655  1.1486  1.9055 -0.1068
 7927TIP3    H247977   1.811   6.389   9.694 -0.1003 -1.4620  1.0191
 7928TIP3   OH247978   4.969   4.526   0.381 -0.0800 -0.3281 -0.0279
 7928TIP3    H147979   4.997   4.520   0.472  0.2107 -1.4012 -0.1750
 7928TIP3    H247980   4.967   4.620   0.363 -0.6906 -0.0805  1.2448
 7929TIP3   OH247981   2.167   2.985   8.514 -0.1480 -0.1358 -0.2679
 7929TIP3    H147982   2.095   2.984   8.577  0.7084  0.0436  0.7551
 7929TIP3    H247983   2.198   2.894   8.512 -0.2936 -0.1773 -0.5661
 7930TIP3   OH247984   0.767   4.549   7.804  0.1129  0.1267 -0.2353
 7930TIP3    H147985   0.676   4.525   7.821  0.3629 -0.4105  0.3993
 7930TIP3    H247986   0.818   4.494   7.864  1.1019 -2.1505 -2.9559
 7931TIP3   OH247987   3.517   2.490   6.861 -0.5698 -0.8241  0.0561
 7931TIP3    H147988   3.483   2.509   6.774  2.3322 -1.1847 -1.2875
 7931TIP3    H247989   3.508   2.396   6.871 -0.1034 -0.9111 -0.2762
 7932TIP3   OH247990   0.681   0.257   6.936 -0.3507  0.1284  0.5452
 7932TIP3    H147991   0.698   0.336   6.987  1.0458 -0.2692  0.7607
 7932TIP3    H247992   0.746   0.194   6.968  0.3091 -0.2713 -1.4442
 7933TIP3   OH247993   4.608   5.445   1.872  0.2742  0.2881  0.0258
 7933TIP3    H147994   4.598   5.461   1.966 -1.6738 -0.8621  0.0662
 7933TIP3    H247995   4.524   5.472   1.834  0.9213  0.4299 -1.3598
 7934TIP3   OH247996   5.332   4.281   7.973 -0.3436  0.3189 -0.0481
 7934TIP3    H147997   5.416   4.235   7.982 -0.5908 -0.1871 -0.3030
 7934TIP3    H247998   5.322   4.294   7.879 -2.0256 -2.4316 -0.3453
 7935TIP3   OH247999   5.289   5.327   1.698 -0.5458 -0.4948 -0.3034
 7935TIP3    H148000   5.274   5.352   1.607 -1.2556  1.8281  0.3762
 7935TIP3    H248001   5.273   5.407   1.748 -0.5271 -1.7820  1.9098
 7936TIP3   OH248002   4.756   2.141   7.730 -0.2916  0.1809 -0.1004
 7936TIP3    H148003   4.788   2.073   7.789  2.8701  2.0783  0.6138
 7936TIP3    H248004   4.707   2.200   7.786  2.5872  1.9040  0.8134
 7937TIP3   OH248005   3.970   1.132   1.576 -0.1180  0.1529  0.4714
 7937TIP3    H148006   3.980   1.038   1.564  0.8080  0.1508  1.2178
 7937TIP3    H248007   4.048   1.171   1.536  0.5672  0.4480  2.0001
 7938TIP3   OH248008   0.432   0.327   9.571  0.3488 -0.5568 -0.3456
 7938TIP3    H148009   0.497   0.388   9.537  1.1642 -0.6473  0.9590
 7938TIP3    H248010   0.353   0.379   9.580  0.6091 -0.0937 -0.6833
 7939TIP3   OH248011   1.839   7.226   9.550  0.3139 -0.1191 -0.5470
 7939TIP3    H148012   1.920   7.276   9.560  0.2948 -0.4368  1.9115
 7939TIP3    H248013   1.847   7.156   9.615 -2.0075 -0.0639 -0.1325
 7940TIP3   OH248014   0.949   6.209   6.361 -0.8192  0.8656 -0.3114
 7940TIP3    H148015   0.956   6.172   6.273  1.6091  1.6732 -0.5373
 7940TIP3    H248016   0.952   6.133   6.419 -0.2835  0.4309 -0.8916
 7941TIP3   OH248017   5.455   6.337   0.329 -0.6061 -0.5036  0.1067
 7941TIP3    H148018   5.412   6.412   0.370 -1.4294 -0.7921 -0.2131
 7941TIP3    H248019   5.384   6.277   0.307 -0.3988  0.2163 -3.0078
 7942TIP3   OH248020   2.547   0.472   0.664  0.1838 -0.1518 -0.0561
 7942TIP3    H148021   2.614   0.463   0.731  0.7128  1.5691 -0.3203
 7942TIP3    H248022   2.503   0.387   0.663  0.7811 -0.5237  1.7824
 7943TIP3   OH248023   2.465   3.680   1.050  0.2781 -0.3148 -0.7251
 7943TIP3    H148024   2.400   3.706   1.116  1.5781 -0.7649  0.7851
 7943TIP3    H248025   2.439   3.727   0.971 -1.0765  0.5881  0.2167
 7944TIP3   OH248026   6.665   0.564   9.192  0.2153 -0.1382  0.5362
 7944TIP3    H148027   6.624   0.538   9.110 -1.3016  0.9140  0.9192
 7944TIP3    H248028   6.733   0.498   9.207  0.1116 -0.6906 -1.2344
 7945TIP3   OH248029   4.795   3.210   9.936 -0.0914 -0.2647  0.0502
 7945TIP3    H148030   4.774   3.128   9.891  0.6890 -0.0734 -0.6943
 7945TIP3    H248031   4.732   3.273   9.903 -2.4137 -1.0681  2.5142
 7946TIP3   OH248032   6.034   4.808   2.226  0.4172  0.5751  0.0037
 7946TIP3    H148033   6.061   4.846   2.309 -1.8970  1.8128  0.2776
 7946TIP3    H248034   6.000   4.722   2.248  2.5820 -0.3715 -0.1449
 7947TIP3   OH248035   6.994   4.139   8.543 -0.0020 -0.4532  0.2567
 7947TIP3    H148036   6.980   4.139   8.449 -0.5612  1.1085  0.3016
 7947TIP3    H248037   7.088   4.124   8.554 -0.0039 -1.0922 -0.5123
 7948TIP3   OH248038   0.460   2.566   9.018  0.0671  0.1212 -0.0085
 7948TIP3    H148039   0.450   2.483   9.065 -0.4864 -0.3339 -0.8972
 7948TIP3    H248040   0.548   2.596   9.040  0.5543 -1.0780 -0.2387
 7949TIP3   OH248041   0.795   0.896   7.191  0.3418 -0.0794 -0.0961
 7949TIP3    H148042   0.826   0.805   7.188  1.3014  0.2605 -2.0848
 7949TIP3    H248043   0.841   0.935   7.265  2.5172 -0.3791 -1.2181
 7950TIP3   OH248044   1.673   1.037   3.068 -0.5690  0.3892  0.2106
 7950TIP3    H148045   1.641   0.947   3.055 -1.7487  0.9313 -0.8239
 7950TIP3    H248046   1.610   1.076   3.129 -0.0023  0.4970  0.7337
 7951TIP3   OH248047   2.169   2.576   0.309  0.4175  0.1500  0.0208
 7951TIP3    H148048   2.124   2.560   0.392  0.3750 -0.9219 -0.1895
 7951TIP3    H248049   2.250   2.525   0.316  0.7025  0.5397 -0.3626
 7952TIP3   OH248050   3.673   1.546   7.776  0.5451  0.2188 -0.5676
 7952TIP3    H148051   3.702   1.481   7.840  0.1923 -0.6994 -1.3132
 7952TIP3    H248052   3.720   1.524   7.696  0.2257  0.7204 -0.9025
 7953TIP3   OH248053   0.544   0.752   9.974  0.0863  1.0568  0.4332
 7953TIP3    H148054   0.565   0.750   9.881  0.4908  4.0412  0.3871
 7953TIP3    H248055   0.574   0.837  10.005 -1.4478  0.8036  2.9745
 7954TIP3   OH248056   6.040   5.654   0.999  0.3989  0.3248 -0.1317
 7954TIP3    H148057   6.087   5.697   1.070 -1.4990  1.8095  0.2956
 7954TIP3    H248058   6.050   5.560   1.018 -1.9070  0.6000  3.5243
 7955TIP3   OH248059   1.954   3.405   2.019 -0.2577  0.8900  0.5790
 7955TIP3    H148060   1.989   3.316   2.022 -1.1481  0.4618 -0.6409
 7955TIP3    H248061   2.023   3.460   2.054  0.9369 -0.1242 -0.1148
 7956TIP3   OH248062   4.546   1.855   8.545 -0.0681 -0.1359  0.3486
 7956TIP3    H148063   4.494   1.780   8.516 -1.9929  1.7053 -1.2233
 7956TIP3    H248064   4.547   1.848   8.641  0.1168 -2.3106  0.2348
 7957TIP3   OH248065   1.202   2.355   2.344 -0.1232  0.3171  0.2200
 7957TIP3    H148066   1.178   2.319   2.430 -0.8047  0.9831  0.3249
 7957TIP3    H248067   1.120   2.356   2.295  0.0487  0.9222 -0.0694
 7958TIP3   OH248068   2.670   3.508   6.553  0.0408  0.0439 -0.6329
 7958TIP3    H148069   2.680   3.462   6.636  0.8423  0.6258 -0.3994
 7958TIP3    H248070   2.749   3.562   6.545 -1.0902  1.7701 -0.6520
 7959TIP3   OH248071   6.941   0.860   0.226  0.1991 -0.4588 -0.1238
 7959TIP3    H148072   6.898   0.775   0.232 -0.6264 -0.2249 -1.9800
 7959TIP3    H248073   7.025   0.842   0.184  0.4642 -0.4732  0.4035
 7960TIP3   OH248074   6.189   3.031   1.393 -0.0505  0.3930 -0.2494
 7960TIP3    H148075   6.183   2.973   1.317 -2.2654  0.8614 -0.4987
 7960TIP3    H248076   6.214   2.974   1.465  0.9629 -0.2613 -1.0830
 7961TIP3   OH248077   2.220   2.647   2.737  0.1162 -0.4297 -0.1867
 7961TIP3    H148078   2.238   2.693   2.819  1.1409  0.3649 -0.8344
 7961TIP3    H248079   2.231   2.555   2.759  1.2773 -0.1763  0.3685
 7962TIP3   OH248080   7.274   0.655   0.739 -0.3690 -0.3023 -0.4971
 7962TIP3    H148081   7.254   0.650   0.832 -0.3291 -3.4011 -0.5435
 7962TIP3    H248082   7.369   0.670   0.736 -0.8362  3.5958 -0.1890
 7963TIP3   OH248083   3.617   0.804   8.730  0.2903  0.3339  0.0829
 7963TIP3    H148084   3.558   0.866   8.688  0.8576  0.2858 -0.8164
 7963TIP3    H248085   3.703   0.823   8.693  0.5308 -0.7696  0.0238
 7964TIP3   OH248086   2.223   6.848   8.074  0.0754 -0.0472 -0.7066
 7964TIP3    H148087   2.293   6.867   8.012  0.1166 -1.5034 -1.1437
 7964TIP3    H248088   2.248   6.764   8.113 -0.5118  0.3084  0.4743
 7965TIP3   OH248089   4.975   5.468   9.017 -0.0127  0.2684  0.0605
 7965TIP3    H148090   5.069   5.454   9.028  0.2102 -0.3405 -2.2165
 7965TIP3    H248091   4.954   5.537   9.080  1.2040 -2.0073  3.1859
 7966TIP3   OH248092   6.920   2.865   7.594  0.0010 -0.2466  0.3453
 7966TIP3    H148093   6.990   2.892   7.653 -0.1237  0.1862  0.2979
 7966TIP3    H248094   6.850   2.928   7.609  0.0384 -0.0133 -0.4015
 7967TIP3   OH248095   3.621   3.613   0.266  0.5296 -0.5430 -0.8619
 7967TIP3    H148096   3.550   3.550   0.255  1.5252 -1.8812  0.0564
 7967TIP3    H248097   3.583   3.684   0.317 -0.5484 -0.4896 -1.7063
 7968TIP3   OH248098   6.246   3.555   9.044  0.0721  0.2168  0.2195
 7968TIP3    H148099   6.241   3.642   9.004  2.0582 -0.3643 -1.4777
 7968TIP3    H248100   6.338   3.544   9.067  0.0260 -1.7002 -0.3092
 7969TIP3   OH248101   1.314   5.806   9.903 -0.0908  0.7787  0.2483
 7969TIP3    H148102   1.248   5.825   9.836  1.4205  0.9592 -1.2587
 7969TIP3    H248103   1.365   5.734   9.867  0.3534  0.4358  1.5207
 7970TIP3   OH248104   3.938   5.393   7.759 -0.2975  0.0308 -0.4023
 7970TIP3    H148105   3.968   5.433   7.840 -0.1474  1.2194 -1.0250
 7970TIP3    H248106   4.002   5.419   7.694 -0.2622 -1.1486 -0.8583
 7971TIP3   OH248107   6.297   1.190   1.198 -0.1463 -0.6505 -0.8575
 7971TIP3    H148108   6.349   1.231   1.129  0.0530 -0.6097 -0.6817
 7971TIP3    H248109   6.232   1.137   1.151 -0.7401  0.2728 -1.1031
 7972TIP3   OH248110   2.049   1.761   6.894 -0.3431  0.1335  0.0673
 7972TIP3    H148111   2.000   1.797   6.821  2.5136 -1.7757 -3.0908
 7972TIP3    H248112   2.083   1.837   6.941 -2.5044  1.4196 -0.3578
 7973TIP3   OH248113   5.201   3.446   8.049 -0.3545 -0.0992 -0.6330
 7973TIP3    H148114   5.199   3.499   7.969  0.2200 -0.9553 -1.2258
 7973TIP3    H248115   5.279   3.476   8.096 -1.3207  1.2377  0.2257
 7974TIP3   OH248116   6.274   4.353   8.042 -0.4325  0.8436 -0.1243
 7974TIP3    H148117   6.367   4.370   8.052 -0.5566  1.8193 -0.5022
 7974TIP3    H248118   6.264   4.317   7.954 -0.4378  0.8881 -0.1413
 7975TIP3   OH248119   4.335   5.245   9.079 -0.3867 -0.3425  0.0338
 7975TIP3    H148120   4.337   5.166   9.134  0.1836 -0.0195  0.4816
 7975TIP3    H248121   4.404   5.231   9.014  0.0557  0.0180  0.4300
 7976TIP3   OH248122   0.034   5.014   8.203  0.1577  0.0449 -0.5200
 7976TIP3    H148123   0.128   5.003   8.187  0.0704 -0.5072 -0.6485
 7976TIP3    H248124   0.018   4.965   8.284  0.6334  2.9276  1.4758
 7977TIP3   OH248125   0.101   6.712   6.792 -0.1602  0.1316 -0.0617
 7977TIP3    H148126   0.099   6.651   6.718 -0.5667 -0.3872  0.3664
 7977TIP3    H248127   0.052   6.667   6.861  0.6261  0.3977  0.6892
 7978TIP3   OH248128   1.699   1.565   6.425  0.6042  0.0997  0.2843
 7978TIP3    H148129   1.758   1.522   6.487 -0.2392  0.8001  1.6306
 7978TIP3    H248130   1.612   1.557   6.466 -0.2025 -0.5598 -1.4441
 7979TIP3   OH248131   2.901   3.977   7.464  0.0731 -0.5967  0.0594
 7979TIP3    H148132   2.963   3.920   7.417 -1.0492 -2.8557  1.1239
 7979TIP3    H248133   2.872   3.924   7.538 -0.1748  1.8821  1.8473
 7980TIP3   OH248134   1.435   0.993   9.196 -0.1222 -1.1888 -0.0731
 7980TIP3    H148135   1.347   0.990   9.159 -0.6721 -0.7772  1.1689
 7980TIP3    H248136   1.491   1.014   9.121 -1.4725  1.9425 -0.3852
 7981TIP3   OH248137   0.930   1.089   9.232  0.4338  0.6786 -0.2367
 7981TIP3    H148138   0.910   1.091   9.139  2.7701  1.7023 -0.7812
 7981TIP3    H248139   0.978   1.007   9.245 -0.6104  0.1204  0.2801
 7982TIP3   OH248140   1.122   0.774   0.038  0.4229 -0.3374  0.0768
 7982TIP3    H148141   1.111   0.683   0.067 -0.9282 -0.4085 -0.5768
 7982TIP3    H248142   1.189   0.770  -0.030  1.4411 -0.6080  1.0628
 7983TIP3   OH248143   5.146   2.000   1.425  0.1197  0.3465 -0.3336
 7983TIP3    H148144   5.094   2.057   1.369 -1.0758 -0.5376 -0.1625
 7983TIP3    H248145   5.156   1.919   1.375 -1.4417 -0.6650  0.8836
 7984TIP3   OH248146   2.739   5.484   1.647 -0.1873  0.3909 -0.2553
 7984TIP3    H148147   2.677   5.426   1.603  0.0877  1.2116 -1.7785
 7984TIP3    H248148   2.800   5.510   1.579  0.0464  2.0014  0.5286
 7985TIP3   OH248149   4.887   4.777   7.802  0.1624  0.8143  0.1025
 7985TIP3    H148150   4.832   4.751   7.728 -1.3671 -0.0245  1.4538
 7985TIP3    H248151   4.976   4.771   7.769 -0.4997  1.1590 -1.8691
 7986TIP3   OH248152   0.127   6.590   9.441 -0.3514  0.1196 -0.3797
 7986TIP3    H148153   0.151   6.589   9.348  0.7073  0.0426 -0.1157
 7986TIP3    H248154   0.147   6.679   9.470  1.3815 -0.4482  0.2766
 7987TIP3   OH248155   3.299   1.070   2.310 -0.0594 -0.3892 -0.4565
 7987TIP3    H148156   3.394   1.058   2.309 -0.0537 -0.3341 -1.7544
 7987TIP3    H248157   3.274   1.049   2.400  1.2086 -0.1380 -0.0174
 7988TIP3   OH248158   2.260   6.021   8.200 -0.2406  0.2946 -0.1289
 7988TIP3    H148159   2.288   6.069   8.122 -0.2865 -1.0662 -1.0144
 7988TIP3    H248160   2.288   5.931   8.185 -0.2526 -0.0061  1.4399
 7989TIP3   OH248161   3.602   4.299   7.885  0.1648 -0.3080  0.3932
 7989TIP3    H148162   3.522   4.352   7.885  0.8316  0.8940 -2.5317
 7989TIP3    H248163   3.647   4.324   7.966 -0.8787  1.5194  0.4818
 7990TIP3   OH248164   4.980   5.919   8.506  0.2450  0.3688  0.0700
 7990TIP3    H148165   5.067   5.924   8.545  0.0204  3.3828  0.3938
 7990TIP3    H248166   4.960   6.008   8.478 -2.7016 -0.2120 -0.0774
 7991TIP3   OH248167   2.059   0.552   2.497 -0.3771 -0.3412 -0.0813
 7991TIP3    H148168   2.024   0.527   2.583 -0.9096 -0.2568 -0.2720
 7991TIP3    H248169   2.144   0.592   2.517  0.7366 -2.6865  0.2003
 7992TIP3   OH248170   5.600   3.924   0.096  0.6850  0.1220  0.1036
 7992TIP3    H148171   5.581   4.017   0.106  0.1414  0.1663 -1.1713
 7992TIP3    H248172   5.537   3.880   0.155 -1.0172  0.4488 -1.3817
 7993TIP3   OH248173   7.111   1.914   1.953  0.5502  0.4890  0.6346
 7993TIP3    H148174   7.032   1.969   1.943 -0.6394 -1.2747 -0.2423
 7993TIP3    H248175   7.125   1.877   1.866  0.1455 -2.0442  1.5486
 7994TIP3   OH248176   4.008   2.520   8.539  0.0347 -0.5084 -0.0597
 7994TIP3    H148177   4.057   2.587   8.492 -1.0912 -0.7016 -1.5893
 7994TIP3    H248178   4.048   2.437   8.513 -0.0219 -0.5706  0.0480
 7995TIP3   OH248179   5.981   6.241   0.559  0.1360  0.0640  0.2453
 7995TIP3    H148180   6.013   6.159   0.598  0.2304 -0.7158 -1.3596
 7995TIP3    H248181   5.889   6.223   0.538  0.3505  0.1008 -0.7701
 7996TIP3   OH248182   6.770   7.026   6.912 -0.5008  0.0506  0.1469
 7996TIP3    H148183   6.847   7.074   6.943 -0.2171  0.4155 -1.0640
 7996TIP3    H248184   6.807   6.952   6.862 -0.9239 -1.4931  1.9892
 7997TIP3   OH248185   3.069   5.479   9.745  0.3218 -0.2480  0.2363
 7997TIP3    H148186   3.032   5.448   9.663 -0.6429 -0.1130  0.6123
 7997TIP3    H248187   3.049   5.573   9.746  0.9097 -0.1209  0.3225
 7998TIP3   OH248188   3.069   1.187   8.544  0.1978 -0.0903 -0.0865
 7998TIP3    H148189   3.104   1.099   8.552 -1.3929 -0.5769  2.8682
 7998TIP3    H248190   2.976   1.174   8.524 -0.0466  0.9118  0.3369
 7999TIP3   OH248191   0.222   6.078   7.010 -0.4524 -0.3770 -0.4669
 7999TIP3    H148192   0.264   6.038   7.086 -0.0501 -1.5234 -1.2546
 7999TIP3    H248193   0.294   6.104   6.953 -0.7379 -1.9018 -1.6027
 8000TIP3   OH248194   6.992   6.797   7.971  0.5475  0.6018 -0.4060
 8000TIP3    H148195   7.079   6.835   7.960  0.3881  0.6682 -1.5552
 8000TIP3    H248196   6.964   6.775   7.883 -0.3206 -0.0697  0.0163
 8001TIP3   OH248197   2.737   0.339   7.830 -0.1907  0.2567 -0.2178
 8001TIP3    H148198   2.766   0.431   7.829  1.3386 -0.2017 -0.9565
 8001TIP3    H248199   2.644   0.343   7.807  0.0600  1.5740 -1.1402
 8002TIP3   OH248200   4.209   6.898   0.362  0.5525  0.0955  0.4527
 8002TIP3    H148201   4.243   6.986   0.380 -0.4186  0.3020  1.3544
 8002TIP3    H248202   4.174   6.904   0.273 -0.0829  0.8105  0.7400
 8003TIP3   OH248203   5.117   3.378   2.310  0.0208 -0.3402 -0.1267
 8003TIP3    H148204   5.180   3.389   2.382 -0.0845 -0.4026 -0.0245
 8003TIP3    H248205   5.051   3.445   2.326 -0.1712 -0.5616  0.0150
 8004TIP3   OH248206   0.305   3.556   0.815 -0.5992 -0.0106 -0.5037
 8004TIP3    H148207   0.367   3.598   0.875 -1.3718  1.0100 -0.3813
 8004TIP3    H248208   0.343   3.470   0.796  0.5376  0.3571  0.0403
 8005TIP3   OH248209   5.379   6.784   1.594 -0.3291  0.1053 -0.0293
 8005TIP3    H148210   5.443   6.757   1.659 -0.9015 -0.0904  0.4571
 8005TIP3    H248211   5.395   6.877   1.582  1.4202 -0.3236 -1.4514
 8006TIP3   OH248212   1.564   0.421   9.709 -0.4101  0.3992 -0.0391
 8006TIP3    H148213   1.606   0.483   9.768 -1.0355  0.9300 -0.1421
 8006TIP3    H248214   1.478   0.459   9.690  0.0109  0.5714 -1.8027
 8007TIP3   OH248215   7.319   5.741   0.455  0.3414 -0.2045  0.1997
 8007TIP3    H148216   7.330   5.658   0.408 -1.0005 -0.5910  0.5432
 8007TIP3    H248217   7.339   5.719   0.546  2.2320  0.3866 -0.0237
 8008TIP3   OH248218   2.141   1.241   7.758  0.0108 -0.2473 -0.7904
 8008TIP3    H148219   2.151   1.334   7.779  2.3519 -0.4516 -0.7535
 8008TIP3    H248220   2.189   1.229   7.677 -0.4921 -1.3897 -0.9389
 8009TIP3   OH248221   2.634   3.155   9.895  0.1529  0.2920 -0.1397
 8009TIP3    H148222   2.621   3.082   9.956 -1.1851  1.4160  0.9888
 8009TIP3    H248223   2.557   3.210   9.908  0.0979  0.8554 -2.4780
 8010TIP3   OH248224   3.558   2.560   0.875 -0.5538  0.3031 -0.1792
 8010TIP3    H148225   3.536   2.611   0.953 -0.7393 -0.0031 -0.0288
 8010TIP3    H248226   3.526   2.472   0.894 -2.3130  0.6445 -1.3582
 8011TIP3   OH248227   3.121   2.025   9.261  0.2667  0.1693 -0.5356
 8011TIP3    H148228   3.046   1.994   9.312  0.9620 -0.4605  0.1331
 8011TIP3    H248229   3.083   2.082   9.194 -0.7708  0.1490  0.0161
 8012TIP3   OH248230   0.148   0.242   8.929 -0.1049 -0.4787  0.4450
 8012TIP3    H148231   0.053   0.237   8.927 -0.1384 -1.0443  1.9584
 8012TIP3    H248232   0.176   0.150   8.936  0.5125 -0.2727  0.7445
 8013TIP3   OH248233   4.828   0.517   0.898 -0.1136  0.3150 -0.3080
 8013TIP3    H148234   4.843   0.612   0.906  0.7168  0.2008 -0.3797
 8013TIP3    H248235   4.851   0.482   0.984 -0.4513  0.1807 -0.2732
 8014TIP3   OH248236   4.201   6.136   9.161 -0.0155 -0.1648 -0.2755
 8014TIP3    H148237   4.201   6.059   9.103  2.4243 -0.3698 -0.1264
 8014TIP3    H248238   4.152   6.202   9.114 -3.5037 -2.1591  0.2092
 8015TIP3   OH248239   6.041   3.634   8.103  0.2369 -0.3511  0.1916
 8015TIP3    H148240   6.032   3.540   8.089 -1.1441 -0.2345  0.1281
 8015TIP3    H248241   6.072   3.668   8.019  1.1810 -0.7918  0.3516
 8016TIP3   OH248242   6.093   3.362   8.398 -0.4050  0.0958 -0.1363
 8016TIP3    H148243   6.066   3.378   8.307 -1.0578  0.2049  0.0725
 8016TIP3    H248244   6.012   3.369   8.449  0.1351  1.1661  0.6047
 8017TIP3   OH248245   7.130   3.888   0.437  0.4853 -0.0606  0.0265
 8017TIP3    H148246   7.121   3.835   0.358 -0.2701  0.2387 -0.0982
 8017TIP3    H248247   7.098   3.830   0.507 -1.4320  0.5797 -0.2566
 8018TIP3   OH248248   2.104   6.256   8.200  0.2063 -0.6578  0.5323
 8018TIP3    H148249   2.127   6.323   8.136  0.1064  0.5256  1.6978
 8018TIP3    H248250   2.167   6.186   8.185 -0.8124 -1.1505 -1.9275
 8019TIP3   OH248251   5.265   7.098   0.812 -0.1206 -0.6803 -0.2567
 8019TIP3    H148252   5.242   7.167   0.874 -1.0491 -0.9971 -0.2335
 8019TIP3    H248253   5.360   7.109   0.798  0.2221 -0.9425  1.6269
 8020TIP3   OH248254   2.622   3.850   8.321 -0.1771  1.1391 -0.0029
 8020TIP3    H148255   2.658   3.925   8.368  1.6741  1.7802 -2.2736
 8020TIP3    H248256   2.540   3.831   8.366  0.8628  2.4471  2.6558
 8021TIP3   OH248257   2.486   6.124   8.882  0.0343 -0.5374  0.3146
 8021TIP3    H148258   2.556   6.074   8.841  0.2052 -1.2824  1.4627
 8021TIP3    H248259   2.491   6.211   8.842  0.8337 -0.9378 -0.4699
 8022TIP3   OH248260   3.542   4.435   1.600 -0.3466 -0.7218 -0.4747
 8022TIP3    H148261   3.537   4.510   1.540 -0.7797 -0.0391  0.4057
 8022TIP3    H248262   3.468   4.446   1.659  1.7751  0.4044  2.2176
 8023TIP3   OH248263   0.982   4.390   8.300 -0.1273 -0.1411 -0.1189
 8023TIP3    H148264   1.069   4.418   8.330 -0.5397  0.0706  0.9129
 8023TIP3    H248265   0.952   4.329   8.367 -1.1611  0.4956  0.0094
 8024TIP3   OH248266   3.915   5.190   9.536 -0.1826 -0.0575 -0.1594
 8024TIP3    H148267   3.944   5.250   9.467  0.4697 -0.2645 -0.0683
 8024TIP3    H248268   3.968   5.214   9.612 -0.3418 -0.3581  0.0463
 8025TIP3   OH248269   1.741   5.559   2.949  0.2647 -0.4763  0.1784
 8025TIP3    H148270   1.822   5.586   2.992 -0.5285  0.7468  0.9881
 8025TIP3    H248271   1.761   5.562   2.856  0.5447  2.0429  0.2507
 8026TIP3   OH248272   2.985   6.957   0.321  0.0092 -0.2189 -0.0101
 8026TIP3    H148273   2.941   6.941   0.238  0.5480 -0.0414 -0.3402
 8026TIP3    H248274   2.916   6.953   0.387 -0.2790 -1.3186 -0.3548
 8027TIP3   OH248275   2.102   4.530   8.243 -0.4910 -0.0983 -0.1387
 8027TIP3    H148276   2.033   4.475   8.205  1.2345 -2.3741 -0.2150
 8027TIP3    H248277   2.143   4.573   8.168 -0.1845 -0.7769 -0.3658
 8028TIP3   OH248278   0.492   0.935   7.739 -0.6410  0.1797  0.3167
 8028TIP3    H148279   0.410   0.914   7.784 -0.6981  2.0339  1.1631
 8028TIP3    H248280   0.474   1.018   7.695  0.4987  0.1233 -0.2844
 8029TIP3   OH248281   7.343   6.908   7.627  0.0364  0.0670  0.2094
 8029TIP3    H148282   7.267   6.871   7.584  0.0107 -0.2066  0.4889
 8029TIP3    H248283   7.308   6.952   7.705  0.4326 -2.4797  1.9200
 8030TIP3   OH248284   3.665   1.897   8.626 -0.0726 -0.2906  0.4185
 8030TIP3    H148285   3.627   1.980   8.655  1.7572  0.7005  0.1933
 8030TIP3    H248286   3.676   1.846   8.705 -0.1728  0.1523  0.7224
 8031TIP3   OH248287   1.704   5.136   3.035  0.1544  0.4096  0.3465
 8031TIP3    H148288   1.765   5.102   2.970  0.2118  0.8751  0.1529
 8031TIP3    H248289   1.618   5.116   2.999  0.1344 -2.2097  1.6293
 8032TIP3   OH248290   2.850   6.782   1.762 -0.1029  0.3152  0.1207
 8032TIP3    H148291   2.924   6.840   1.748 -1.6414  2.5891  0.8228
 8032TIP3    H248292   2.858   6.714   1.695  1.2401  1.9012 -1.3830
 8033TIP3   OH248293   1.587   5.375   6.044  0.3079 -0.4463 -0.3452
 8033TIP3    H148294   1.675   5.382   6.007 -0.3602  0.8838 -1.8214
 8033TIP3    H248295   1.582   5.449   6.105  0.5604 -1.1558  0.5469
 8034TIP3   OH248296   2.943   5.642   2.862 -0.2613  0.0357 -0.4877
 8034TIP3    H148297   2.920   5.651   2.955  1.3632  1.9757 -0.2022
 8034TIP3    H248298   2.915   5.553   2.839 -1.1840 -0.3059  1.7051
 8035TIP3   OH248299   6.707   4.020   1.277  0.2697  0.0632  0.3833
 8035TIP3    H148300   6.757   3.974   1.344  0.4204 -1.0171 -0.4467
 8035TIP3    H248301   6.717   4.113   1.299  1.9939 -0.1579  0.6887
 8036TIP3   OH248302   4.243   0.579   0.032  0.0787 -0.1591  0.0921
 8036TIP3    H148303   4.282   0.608   0.114 -0.1788  0.1491  0.1129
 8036TIP3    H248304   4.219   0.488   0.047 -1.9102  0.4716  1.1138
 8037TIP3   OH248305   3.709   1.396   7.195  0.1832 -0.2111 -0.2755
 8037TIP3    H148306   3.651   1.434   7.261  0.7471 -1.7553  1.1926
 8037TIP3    H248307   3.745   1.472   7.148 -1.2369  0.8677  0.3058
 8038TIP3   OH248308   3.630   6.501   8.889 -0.3735 -0.0716 -0.3883
 8038TIP3    H148309   3.652   6.427   8.832  1.2864 -0.6582  0.9158
 8038TIP3    H248310   3.656   6.578   8.838  0.3214 -0.5353 -0.7571
 8039TIP3   OH248311   1.285   7.158   0.261  0.3577  0.0365 -0.3808
 8039TIP3    H148312   1.267   7.230   0.201  0.4181  0.0937 -0.3312
 8039TIP3    H248313   1.248   7.188   0.345 -2.1386 -1.1405 -0.9754
 8040TIP3   OH248314   4.257   5.166   2.058  0.5055 -0.4324 -0.3750
 8040TIP3    H148315   4.345   5.151   2.024  1.5398  1.2080  1.3548
 8040TIP3    H248316   4.236   5.256   2.030  0.0295 -0.2646  0.4783
 8041TIP3   OH248317   6.953   5.027   8.447 -0.0618 -0.0480  0.2539
 8041TIP3    H148318   7.025   4.966   8.460  0.6005  0.5357 -0.5067
 8041TIP3    H248319   6.980   5.106   8.493  0.2734  0.5167 -0.8624
 8042TIP3   OH248320   3.959   1.516   1.894  0.2602 -0.6145  0.2187
 8042TIP3    H148321   3.872   1.510   1.855  0.8854  0.4105 -1.4653
 8042TIP3    H248322   3.945   1.498   1.987 -1.8749  0.3338  0.1493
 8043TIP3   OH248323   0.289   2.134   0.968  0.0471  0.3908  0.1356
 8043TIP3    H148324   0.375   2.112   0.932 -0.4666 -1.8697  0.1026
 8043TIP3    H248325   0.246   2.184   0.898  0.9569  0.6463 -0.2551
 8044TIP3   OH248326   3.367   5.158   9.091  0.5009 -0.0091  0.2604
 8044TIP3    H148327   3.303   5.229   9.086  0.8474  0.4056  1.3869
 8044TIP3    H248328   3.319   5.080   9.062  0.2104  0.7173 -1.3261
 8045TIP3   OH248329   0.553   3.349   8.094  0.0910 -0.3173 -0.2884
 8045TIP3    H148330   0.468   3.350   8.050 -0.0501 -1.5500 -0.0725
 8045TIP3    H248331   0.536   3.388   8.179 -0.0013  0.4917 -0.6655
 8046TIP3   OH248332   2.232   0.590   7.413  0.7929 -0.5732  0.5757
 8046TIP3    H148333   2.210   0.535   7.488  2.3055 -0.0735  1.4147
 8046TIP3    H248334   2.272   0.530   7.350 -0.0484 -0.9062  0.3462
 8047TIP3   OH248335   0.540   0.504   8.264  0.2834 -0.3988  0.4757
 8047TIP3    H148336   0.599   0.493   8.338  1.2527 -1.0401 -0.3556
 8047TIP3    H248337   0.454   0.478   8.296  0.6399 -0.4134  1.4351
 8048TIP3   OH248338   4.346   1.095   9.426  0.3584 -0.0514 -0.7207
 8048TIP3    H148339   4.386   1.008   9.418  2.4580  0.7312  0.5061
 8048TIP3    H248340   4.392   1.148   9.361  0.0643  0.4715 -0.5044
 8049TIP3   OH248341   5.157   4.759   8.078  0.1827  0.1015  0.7982
 8049TIP3    H148342   5.083   4.760   8.139 -0.8944 -1.9027 -0.3356
 8049TIP3    H248343   5.218   4.696   8.116 -0.2258 -0.7092  0.1557
 8050TIP3   OH248344   5.297   1.755   8.726  0.1380  0.1806  0.0524
 8050TIP3    H148345   5.359   1.768   8.654 -0.6534  2.1452 -0.3245
 8050TIP3    H248346   5.232   1.694   8.691  0.2571  0.4039 -0.5682
 8051TIP3   OH248347   4.633   3.627   0.818  0.4591 -0.0513 -0.3361
 8051TIP3    H148348   4.642   3.552   0.877 -1.0430 -0.2538 -0.3428
 8051TIP3    H248349   4.656   3.702   0.873  0.5710 -0.3748  0.0707
 8052TIP3   OH248350   6.725   2.597   2.742 -0.0884 -0.1226 -0.0108
 8052TIP3    H148351   6.660   2.586   2.672 -0.7560 -0.2370  0.6061
 8052TIP3    H248352   6.696   2.676   2.788  1.4654  1.0985 -1.0222
 8053TIP3   OH248353   3.914   2.300   2.645 -0.3805 -0.7222  0.7377
 8053TIP3    H148354   3.894   2.255   2.564  1.0189 -2.2490  1.1860
 8053TIP3    H248355   3.855   2.376   2.646 -0.2136 -0.5036 -1.8033
 8054TIP3   OH248356   3.932   4.321   0.466  0.5247 -0.1401 -0.8315
 8054TIP3    H148357   3.837   4.324   0.473  0.6308  0.4167  1.0451
 8054TIP3    H248358   3.955   4.232   0.494  0.5865  0.0015 -0.4179
 8055TIP3   OH248359   7.172   6.376   0.599  0.0633  0.0874  0.2646
 8055TIP3    H148360   7.251   6.422   0.568  1.3310 -1.7053  0.6870
 8055TIP3    H248361   7.103   6.443   0.596  1.5592  1.6928 -0.2153
 8056TIP3   OH248362   1.847   3.754   9.971  0.2903  0.2401  0.1060
 8056TIP3    H148363   1.779   3.822   9.973  1.2865  1.3404 -1.3298
 8056TIP3    H248364   1.817   3.691   9.905 -0.2379 -0.3111  0.8550
 8057TIP3   OH248365   3.133   6.052   0.933 -0.4384 -0.0759  0.1155
 8057TIP3    H148366   3.200   6.063   1.000 -0.5062 -0.8581  0.3295
 8057TIP3    H248367   3.182   6.042   0.852 -0.2596 -0.9279  0.3091
 8058TIP3   OH248368   3.808   1.248   1.810  0.0673  0.2277 -0.1297
 8058TIP3    H148369   3.889   1.228   1.762 -0.8465 -0.7688 -1.3500
 8058TIP3    H248370   3.793   1.341   1.793 -0.2852 -0.1190 -1.9483
 8059TIP3   OH248371   6.364   2.829   8.341  0.3523  0.0662  0.2729
 8059TIP3    H148372   6.379   2.917   8.305 -0.2525 -0.5889 -1.6987
 8059TIP3    H248373   6.450   2.803   8.374  0.5694  1.3287  0.8012
 8060TIP3   OH248374   5.759   6.376   9.202  0.3529 -0.1241 -0.5304
 8060TIP3    H148375   5.810   6.306   9.241  0.2385  0.3768  0.5554
 8060TIP3    H248376   5.814   6.409   9.131 -0.6993 -3.0641 -2.9314
 8061TIP3   OH248377   2.228   3.889   2.068 -0.6395 -0.7426  0.8080
 8061TIP3    H148378   2.228   3.795   2.088  0.3914 -1.1290 -0.8373
 8061TIP3    H248379   2.200   3.931   2.150 -0.1480 -2.4111  1.8773
 8062TIP3   OH248380   0.923   6.910   8.755 -0.2179  0.0825  1.0789
 8062TIP3    H148381   0.968   6.987   8.719 -1.1129 -0.5062 -1.5456
 8062TIP3    H248382   0.974   6.836   8.722 -1.3026 -0.5145  0.7020
 8063TIP3   OH248383   1.024   0.539   1.350  0.2921 -0.3176 -0.0564
 8063TIP3    H148384   0.936   0.525   1.315  0.4011 -0.1106 -0.4173
 8063TIP3    H248385   1.078   0.473   1.308  0.0918 -1.2441  1.0732
 8064TIP3   OH248386   3.608   1.105   8.920  0.1300 -0.1215  0.2790
 8064TIP3    H148387   3.520   1.075   8.898  0.4308 -0.1425 -0.9513
 8064TIP3    H248388   3.609   1.197   8.894  0.6005 -0.2385 -0.1299
 8065TIP3   OH248389   0.863   1.493   9.002  0.1013  0.0295 -0.2978
 8065TIP3    H148390   0.820   1.408   9.008  2.4827 -1.1477  2.6655
 8065TIP3    H248391   0.805   1.553   9.049 -0.4747 -0.4801 -0.3431
 8066TIP3   OH248392   3.170   3.988   8.956  0.3039 -0.7019  0.5010
 8066TIP3    H148393   3.083   3.988   8.915 -0.1537  1.6001  1.3302
 8066TIP3    H248394   3.154   3.961   9.046  0.1606  1.0806  1.0541
 8067TIP3   OH248395   4.578   2.332   1.271 -0.2843 -0.6278  0.3532
 8067TIP3    H148396   4.606   2.252   1.315  1.1068 -1.6209 -2.1336
 8067TIP3    H248397   4.511   2.303   1.208  2.9225 -0.7202 -3.3656
 8068TIP3   OH248398   5.999   3.352   1.954  0.7807  0.3896 -0.0309
 8068TIP3    H148399   5.958   3.275   1.994  1.0014  0.2526 -0.0639
 8068TIP3    H248400   5.959   3.427   1.998 -0.2001  0.2854 -0.7216
 8069TIP3   OH248401   2.008   5.973   7.320 -0.1541 -0.0149 -0.3140
 8069TIP3    H148402   2.086   5.970   7.264  0.2175  2.9151 -0.0722
 8069TIP3    H248403   1.960   6.051   7.291 -1.5254 -0.1461  1.4556
 8070TIP3   OH248404   2.839   6.472   3.202  0.0449 -0.2908  0.5962
 8070TIP3    H148405   2.800   6.445   3.286 -0.3909  0.4121  0.6355
 8070TIP3    H248406   2.931   6.486   3.222 -0.0128 -0.3505  0.9101
 8071TIP3   OH248407   2.498   7.238   2.850 -0.2383 -0.4357 -0.4122
 8071TIP3    H148408   2.551   7.308   2.888 -1.0954  0.8929 -1.6114
 8071TIP3    H248409   2.445   7.207   2.923  0.6714 -0.3744  0.3023
 8072TIP3   OH248410   0.251   2.781   2.298  0.2865 -0.5252 -0.3428
 8072TIP3    H148411   0.269   2.875   2.300 -0.2523 -0.3565 -2.0259
 8072TIP3    H248412   0.217   2.765   2.210 -0.5931 -2.1250  0.2460
 8073TIP3   OH248413   6.959   1.756   7.821  0.2901  0.3092 -0.2855
 8073TIP3    H148414   6.887   1.773   7.883  0.1009  1.8191 -0.8720
 8073TIP3    H248415   6.916   1.724   7.742  0.2639  1.1136 -0.6015
 8074TIP3   OH248416   1.474   0.385   2.256 -0.6367  0.6540 -0.2086
 8074TIP3    H148417   1.560   0.372   2.216 -1.2658  0.4076 -1.5340
 8074TIP3    H248418   1.471   0.323   2.329  0.5879  1.2013  0.3295
 8075TIP3   OH248419   2.510   5.515   5.996  0.3428 -0.4432  0.4913
 8075TIP3    H148420   2.594   5.490   5.958  0.2973 -1.5814  1.0900
 8075TIP3    H248421   2.532   5.586   6.057  0.2399  2.3924 -2.5045
 8076TIP3   OH248422   4.868   5.310   0.749  1.0180  0.1253  0.6431
 8076TIP3    H148423   4.914   5.227   0.759 -0.4574 -0.5896  2.0389
 8076TIP3    H248424   4.892   5.359   0.828  0.9275  0.5494  0.4087
 8077TIP3   OH248425   1.890   4.606   9.039  0.6502 -0.5285 -0.0571
 8077TIP3    H148426   1.844   4.684   9.069 -1.1583 -1.0576 -1.2970
 8077TIP3    H248427   1.949   4.638   8.970 -0.9344 -0.3323 -1.4047
 8078TIP3   OH248428   2.633   6.950   7.731 -0.2921  0.7598  0.4249
 8078TIP3    H148429   2.624   7.022   7.668 -2.6343  2.6209  2.6408
 8078TIP3    H248430   2.706   6.976   7.787  0.1090  0.4216  0.0619
 8079TIP3   OH248431   7.453   6.627   8.222  0.0200  0.3707 -0.2224
 8079TIP3    H148432   7.436   6.721   8.230 -0.4528  0.3426 -0.8363
 8079TIP3    H248433   7.548   6.621   8.209  0.1303  0.7207  0.3605
 8080TIP3   OH248434   4.725   0.071   2.218 -0.2586  0.1257  0.0778
 8080TIP3    H148435   4.721   0.081   2.313  0.3033  2.2840 -0.0736
 8080TIP3    H248436   4.788  -0.000   2.204  0.8293  0.7933  1.3045
 8081TIP3   OH248437   0.590   3.303   8.362  0.8572  0.6043  0.2478
 8081TIP3    H148438   0.589   3.391   8.399 -2.1232  0.9255 -0.3859
 8081TIP3    H248439   0.683   3.278   8.363  1.6590  3.2548  1.5031
 8082TIP3   OH248440   6.519   0.318   0.838  0.4741  0.2737  0.2430
 8082TIP3    H148441   6.539   0.240   0.889  0.5454  0.9924  1.3462
 8082TIP3    H248442   6.425   0.332   0.852  0.4680  0.4023  0.0755
 8083TIP3   OH248443   7.274   3.638   8.249  0.2750  0.0728 -0.1544
 8083TIP3    H148444   7.270   3.734   8.243  1.9293  0.3591  2.0476
 8083TIP3    H248445   7.368   3.618   8.248 -0.0114 -1.4288  0.5322
 8084TIP3   OH248446   2.935   6.868   2.831 -0.0604  0.0790  0.1473
 8084TIP3    H148447   2.928   6.798   2.896 -2.4980 -0.9416 -1.1069
 8084TIP3    H248448   3.020   6.909   2.849  1.2318 -2.8339  1.2849
 8085TIP3   OH248449   1.832   0.947   1.141 -0.5233  0.2814 -0.3650
 8085TIP3    H148450   1.902   0.882   1.140 -0.6158  0.1863 -1.2312
 8085TIP3    H248451   1.877   1.032   1.139 -0.4235  0.2183 -1.4912
 8086TIP3   OH248452   0.251   4.914   0.186 -0.2829  0.0594 -0.8441
 8086TIP3    H148453   0.248   4.970   0.109 -1.6339  0.0910 -0.7843
 8086TIP3    H248454   0.193   4.841   0.165 -2.2600  1.0481  0.8590
 8087TIP3   OH248455   0.231   3.896   2.180 -0.4375 -0.6662 -0.1401
 8087TIP3    H148456   0.241   3.965   2.245  2.7575 -0.0138 -1.1621
 8087TIP3    H248457   0.267   3.818   2.222  1.1945 -0.3516 -0.9113
 8088TIP3   OH248458   5.112   3.816   9.602 -0.2601 -0.2615 -0.1984
 8088TIP3    H148459   5.088   3.856   9.686 -0.9478  1.0906 -0.9849
 8088TIP3    H248460   5.169   3.881   9.560  1.0084 -1.4163 -0.3239
 8089TIP3   OH248461   1.674   5.785   7.716 -0.5878  0.3073 -0.1104
 8089TIP3    H148462   1.607   5.854   7.715  0.2801  1.2225  1.1636
 8089TIP3    H248463   1.755   5.831   7.694  0.0624 -0.2354  1.0776
 8090TIP3   OH248464   7.015   0.363   8.578 -0.0281  0.5501 -0.8044
 8090TIP3    H148465   7.110   0.371   8.565  0.3306 -0.0149  1.1012
 8090TIP3    H248466   6.977   0.428   8.519  1.5762  1.2295 -1.1499
 8091TIP3   OH248467   6.567   6.947   8.028 -0.2511  0.6295 -0.3962
 8091TIP3    H148468   6.617   7.028   8.018 -1.7937  1.7699  0.5070
 8091TIP3    H248469   6.509   6.946   7.951  0.1538  0.0870 -0.6941
 8092TIP3   OH248470   2.856   5.113   1.689 -0.0561 -0.1909  0.2440
 8092TIP3    H148471   2.769   5.148   1.709  0.2294 -0.5918  2.4234
 8092TIP3    H248472   2.916   5.184   1.710  0.1923  0.0721 -1.2257
 8093TIP3   OH248473   4.038   4.907   9.461  0.0966 -0.0778 -0.3217
 8093TIP3    H148474   4.006   4.928   9.373  0.3019  0.6532 -0.2218
 8093TIP3    H248475   4.121   4.863   9.446  0.3479  0.4461 -0.4791
 8094TIP3   OH248476   1.250   5.553   3.385  0.0057 -0.4148 -0.2285
 8094TIP3    H148477   1.164   5.522   3.415 -0.0416  1.1849  1.4909
 8094TIP3    H248478   1.305   5.475   3.386 -1.4163 -1.4860 -1.4164
 8095TIP3   OH248479   1.999   5.095   6.068  0.3675 -0.2879 -0.6265
 8095TIP3    H148480   1.911   5.097   6.029 -0.0189  2.6625  0.1220
 8095TIP3    H248481   1.984   5.099   6.162  1.1652  2.8384 -0.5196
 8096TIP3   OH248482   6.046   6.452   2.137  0.3497 -0.3008 -0.3391
 8096TIP3    H148483   6.090   6.450   2.222  0.3467 -3.8067 -0.2818
 8096TIP3    H248484   6.117   6.440   2.073  0.0640 -0.2228 -0.6784
 8097TIP3   OH248485   3.715   5.934   8.122 -0.3140 -0.2560  0.4714
 8097TIP3    H148486   3.809   5.939   8.141 -0.0957  2.5315 -0.7367
 8097TIP3    H248487   3.707   5.969   8.033 -2.3059 -2.7985 -0.4709
 8098TIP3   OH248488   6.161   2.447   9.101  0.2785  0.0768 -0.4640
 8098TIP3    H148489   6.246   2.415   9.132  0.5464  0.9585 -0.2482
 8098TIP3    H248490   6.103   2.371   9.108  0.9142 -0.3871 -0.0819
 8099TIP3   OH248491   4.424   6.226   8.187  0.1967 -0.6176 -0.2282
 8099TIP3    H148492   4.423   6.146   8.134 -0.2971 -0.3981 -0.5599
 8099TIP3    H248493   4.395   6.295   8.127 -0.1014 -0.3169  0.2536
 8100TIP3   OH248494   3.063   5.069   2.156 -0.0798  0.2585 -0.3369
 8100TIP3    H148495   3.115   5.009   2.210  1.6028  1.1892 -0.8413
 8100TIP3    H248496   2.987   5.090   2.210  0.8078 -0.0028  1.0620
 8101TIP3   OH248497   4.498   1.351   8.455 -0.4975  0.2072  0.0016
 8101TIP3    H148498   4.546   1.350   8.537 -0.4024  0.3903 -0.0508
 8101TIP3    H248499   4.412   1.316   8.476  0.1609 -1.6615 -0.2176
 8102TIP3   OH248500   3.044   0.999   0.844  0.5625 -0.2869  0.1913
 8102TIP3    H148501   2.949   0.994   0.848  0.3502  1.7674 -0.5891
 8102TIP3    H248502   3.062   1.092   0.830  2.7941 -0.2272  2.6934
 8103TIP3   OH248503   6.968   7.176   7.034  0.4971  0.4675 -0.6612
 8103TIP3    H148504   6.968   7.269   7.057 -0.7032  0.4988 -0.7142
 8103TIP3    H248505   7.047   7.164   6.982  0.1398  1.7009 -1.5557
 8104TIP3   OH248506   2.500   5.365   7.300  0.1647 -0.2239  0.2333
 8104TIP3    H148507   2.595   5.363   7.313  0.5934 -1.5319 -2.3650
 8104TIP3    H248508   2.478   5.458   7.304  1.4910  0.0816  1.2147
 8105TIP3   OH248509   4.273   2.204   9.789  0.1975  0.0348  0.3621
 8105TIP3    H148510   4.202   2.228   9.731  1.3953  2.3835 -0.2300
 8105TIP3    H248511   4.249   2.117   9.822 -2.8792  0.7099  0.1602
 8106TIP3   OH248512   6.522   4.259   0.084  0.6599  0.5503 -0.1148
 8106TIP3    H148513   6.526   4.242  -0.010  1.1950  0.2705 -0.0475
 8106TIP3    H248514   6.579   4.193   0.122 -0.6277 -0.2186  0.5415
 8107TIP3   OH248515   6.416   4.296   8.790 -0.3897 -0.4363 -0.2597
 8107TIP3    H148516   6.483   4.312   8.723 -0.9152 -0.9737 -0.9178
 8107TIP3    H248517   6.400   4.382   8.828  1.6952 -0.4818  0.9064
 8108TIP3   OH248518   5.567   1.216   8.619 -0.1257 -0.4852 -0.3918
 8108TIP3    H148519   5.593   1.125   8.637 -0.5894 -0.3913  0.8677
 8108TIP3    H248520   5.622   1.268   8.679 -1.3420 -0.1015  0.4272
 8109TIP3   OH248521   0.677   5.234   7.568  0.0281  0.0726 -0.7525
 8109TIP3    H148522   0.632   5.315   7.546 -0.5741 -0.5677 -1.9887
 8109TIP3    H248523   0.669   5.179   7.489 -1.1020 -1.8558  0.6101
 8110TIP3   OH248524   6.850   5.705   1.628 -0.2328  0.3821  0.3829
 8110TIP3    H148525   6.837   5.655   1.547 -0.5906 -0.2681  0.8316
 8110TIP3    H248526   6.836   5.641   1.698 -2.1983  1.4192  1.0168
 8111TIP3   OH248527   5.029   4.615   0.977 -0.1274  0.3571  0.0769
 8111TIP3    H148528   5.028   4.520   0.965  1.0868  0.5245 -1.6904
 8111TIP3    H248529   5.001   4.627   1.068  0.4625 -1.7384  0.6081
 8112TIP3   OH248530   2.720   4.147   9.267 -0.4404 -0.2031 -0.1707
 8112TIP3    H148531   2.745   4.240   9.266 -1.2965  0.0617  1.0154
 8112TIP3    H248532   2.630   4.147   9.233 -1.0004 -0.3987  1.2733
 8113TIP3   OH248533   1.677   7.141   7.928 -0.0604 -0.0308 -0.0606
 8113TIP3    H148534   1.720   7.129   7.843  2.7661  0.0996  1.2296
 8113TIP3    H248535   1.617   7.214   7.915  0.1779 -0.1243 -1.9635
 8114TIP3   OH248536   0.506   7.031   8.490  0.1411 -0.1358 -0.1863
 8114TIP3    H148537   0.557   7.075   8.421 -0.3378  0.6947 -0.0234
 8114TIP3    H248538   0.415   7.055   8.471 -0.1576 -1.2638 -0.2266
 8115TIP3   OH248539   5.410   1.691   9.463  0.0149  0.2218  0.1745
 8115TIP3    H148540   5.353   1.701   9.387 -0.1853  0.1172  0.3113
 8115TIP3    H248541   5.499   1.702   9.428 -0.0884  0.4111 -0.0332
 8116TIP3   OH248542   2.587   7.105   0.266  0.2637  0.2750  0.5635
 8116TIP3    H148543   2.534   7.185   0.273  0.7510  0.6450  0.0738
 8116TIP3    H248544   2.677   7.135   0.272  0.4965 -0.0939 -0.8042
 8117TIP3   OH248545   0.534   4.373   1.962  0.4647  0.4266  0.3157
 8117TIP3    H148546   0.494   4.393   1.877 -0.0456  1.3654  0.7533
 8117TIP3    H248547   0.628   4.386   1.948  0.4678 -0.1828 -0.2955
 8118TIP3   OH248548   4.149   3.455   2.102  0.1908  0.1875  0.5618
 8118TIP3    H148549   4.149   3.365   2.068  1.7875  0.3142  0.1708
 8118TIP3    H248550   4.090   3.502   2.043  0.7202 -0.2266 -0.3207
 8119TIP3   OH248551   2.189   4.676   8.045  0.0265 -0.6453  0.7892
 8119TIP3    H148552   2.231   4.755   8.011 -0.9442 -0.3276  0.3062
 8119TIP3    H248553   2.101   4.677   8.007 -0.1850 -1.6689  1.2215
 8120TIP3   OH248554   1.907   5.436   6.977  0.2371  0.1628  0.4119
 8120TIP3    H148555   1.937   5.527   6.974 -0.9261  0.5402 -0.8491
 8120TIP3    H248556   1.874   5.425   7.066 -2.8344  2.1372 -0.3250
 8121TIP3   OH248557   3.042   2.189   1.963 -0.0053  0.5959  0.2422
 8121TIP3    H148558   3.129   2.153   1.976 -0.0998  0.7741  1.4903
 8121TIP3    H248559   3.000   2.183   2.049 -1.6609 -0.6036 -0.5828
 8122TIP3   OH248560   6.052   6.462   0.126 -0.3051 -0.7884  0.5098
 8122TIP3    H148561   5.995   6.384   0.127 -0.3815 -0.7728 -0.9697
 8122TIP3    H248562   6.140   6.427   0.116 -0.2434 -0.7204  0.8041
 8123TIP3   OH248563   0.964   6.925   9.469 -0.3440 -0.5167  0.3969
 8123TIP3    H148564   1.013   6.846   9.492 -1.3013 -1.6046 -1.1380
 8123TIP3    H248565   0.905   6.897   9.399 -1.0221  1.4678  0.1237
 8124TIP3   OH248566   6.412   0.054   9.346 -0.1139  0.5489 -0.3770
 8124TIP3    H148567   6.378   0.130   9.392  0.4381 -0.0175  1.0197
 8124TIP3    H248568   6.351  -0.017   9.369  0.6419  0.0721  0.1870
 8125TIP3   OH248569   0.143   2.638   9.452  0.0561  0.4260 -0.4598
 8125TIP3    H148570   0.232   2.628   9.417  1.2021  0.7129  2.1769
 8125TIP3    H248571   0.106   2.711   9.402  1.2566  0.2806 -1.6277
 8126TIP3   OH248572   0.253   7.356   0.706  0.5705 -0.0103 -0.1026
 8126TIP3    H148573   0.251   7.383   0.614 -0.6990 -0.4596 -0.2193
 8126TIP3    H248574   0.344   7.329   0.720  0.3865 -1.8168 -1.8028
 8127TIP3   OH248575   2.494   2.831   1.698  0.1943  0.3960  0.1655
 8127TIP3    H148576   2.471   2.758   1.640 -0.4775  2.3979 -2.2767
 8127TIP3    H248577   2.567   2.799   1.750 -0.1658 -2.0391 -0.7105
 8128TIP3   OH248578   0.760   0.264   9.947  0.0298 -0.2468  0.8177
 8128TIP3    H148579   0.724   0.324  10.012  1.3483  1.4753  0.0478
 8128TIP3    H248580   0.686   0.211   9.919 -1.3117  1.3794  1.1578
 8129TIP3   OH248581   3.581   5.570   9.110  0.5157  0.1736  0.4376
 8129TIP3    H148582   3.513   5.591   9.045  0.3431  0.3982  0.6879
 8129TIP3    H248583   3.545   5.494   9.157 -0.7716  1.8497  2.3072
 8130TIP3   OH248584   2.998   2.957   9.079  0.3646 -0.4113  0.0753
 8130TIP3    H148585   3.046   2.950   9.161 -0.3790 -2.9256  0.3962
 8130TIP3    H248586   2.968   3.047   9.076  1.5621  0.1009  1.8818
 8131TIP3   OH248587   2.017   1.581   9.021 -0.1719 -0.7379  0.0699
 8131TIP3    H148588   2.062   1.559   9.103 -1.9533 -0.0481  1.2947
 8131TIP3    H248589   2.083   1.567   8.953  2.0178  0.6270  1.7788
 8132TIP3   OH248590   6.155   3.367   8.726  0.1434  0.3008  0.4315
 8132TIP3    H148591   6.238   3.415   8.722  0.5729 -0.3441  1.1658
 8132TIP3    H248592   6.177   3.278   8.699 -0.1389 -0.0560  1.3104
 8133TIP3   OH248593   0.643   0.724   7.486 -0.0203  0.0674  0.6212
 8133TIP3    H148594   0.612   0.677   7.408  1.2296 -0.4454  0.4052
 8133TIP3    H248595   0.738   0.730   7.474  0.0724  0.8705  1.6332
 8134TIP3   OH248596   3.275   7.271   6.968 -0.4280 -0.1006 -0.2734
 8134TIP3    H148597   3.192   7.228   6.949 -1.1114  0.5964  0.9649
 8134TIP3    H248598   3.285   7.337   6.900 -2.1234  1.4330  0.8811
 8135TIP3   OH248599   0.708   2.642   9.063  0.3516  0.1874 -0.3310
 8135TIP3    H148600   0.742   2.729   9.082  0.9751 -0.2424  0.6118
 8135TIP3    H248601   0.772   2.582   9.102 -0.9797 -0.6671  0.6289
 8136TIP3   OH248602   4.063   1.064   1.060  0.6721  0.7347 -0.0408
 8136TIP3    H148603   4.050   0.970   1.067  0.3331  0.8737  1.4744
 8136TIP3    H248604   4.086   1.078   0.968 -1.9455 -0.4864 -0.9633
 8137TIP3   OH248605   1.932   5.881   8.518  0.1694  0.3419  0.1128
 8137TIP3    H148606   1.945   5.927   8.435  1.0879  1.1345  0.6609
 8137TIP3    H248607   1.930   5.788   8.495  2.9870  0.3699 -0.5575
 8138TIP3   OH248608   4.293   0.405   0.900 -0.2169 -0.6707  0.7193
 8138TIP3    H148609   4.342   0.323   0.894 -0.5898 -0.7975 -2.1059
 8138TIP3    H248610   4.223   0.386   0.963 -0.2492 -2.5128  0.1961
 8139TIP3   OH248611   1.769   5.502   7.263  0.0025 -0.1509 -0.1342
 8139TIP3    H148612   1.799   5.520   7.352  1.4896  0.7548 -0.7837
 8139TIP3    H248613   1.680   5.538   7.260 -0.1186 -0.3043  1.0091
 8140TIP3   OH248614   1.569   2.855   2.364 -0.4811  0.1656  0.0301
 8140TIP3    H148615   1.646   2.803   2.387 -1.1702 -0.1836  1.5892
 8140TIP3    H248616   1.560   2.918   2.435 -1.6811  0.1534 -0.0897
 8141TIP3   OH248617   4.202   5.954   8.218  0.1835 -0.0946  0.3134
 8141TIP3    H148618   4.278   5.973   8.163 -0.1493  1.1232  0.2581
 8141TIP3    H248619   4.192   6.031   8.274 -2.0196  0.5584 -0.8350
 8142TIP3   OH248620   3.657   3.257   7.851 -0.4430 -0.1245 -0.8484
 8142TIP3    H148621   3.711   3.251   7.773 -2.4135 -0.9008 -2.2543
 8142TIP3    H248622   3.640   3.350   7.863  1.9213  0.2275  0.2183
 8143TIP3   OH248623   4.141   2.918   8.224 -0.4927 -0.0093 -0.0825
 8143TIP3    H148624   4.146   2.838   8.173  0.0641  0.1527 -0.2878
 8143TIP3    H248625   4.194   2.901   8.302 -0.0714  0.2853 -0.3016
 8144TIP3   OH248626   6.510   6.941   9.621  0.3801  0.1598  0.8891
 8144TIP3    H148627   6.487   6.849   9.610 -0.0468  0.2627  0.9018
 8144TIP3    H248628   6.561   6.962   9.542 -0.7216  0.2786  0.1858
 8145TIP3   OH248629   6.075   6.851   0.784 -0.0309 -0.1736 -0.5684
 8145TIP3    H148630   6.017   6.926   0.772  0.9609  0.8714  0.8236
 8145TIP3    H248631   6.160   6.880   0.749  1.0555  0.4109  2.2250
 8146TIP3   OH248632   1.689   3.190   2.443 -0.8278 -0.5307 -0.2616
 8146TIP3    H148633   1.772   3.221   2.480 -0.4524 -1.0416 -0.6561
 8146TIP3    H248634   1.635   3.170   2.520  0.1515 -2.1334  0.0669
 8147TIP3   OH248635   0.647   0.340   8.087 -0.2230  0.6283  0.1740
 8147TIP3    H148636   0.731   0.380   8.067 -0.3713  0.2287 -1.4095
 8147TIP3    H248637   0.606   0.398   8.151  1.2732  0.7782  1.0287
 8148TIP3   OH248638   3.361   5.352   1.472 -0.1954 -0.4110  0.2565
 8148TIP3    H148639   3.276   5.387   1.499 -0.5863 -1.1814  0.0869
 8148TIP3    H248640   3.424   5.394   1.530 -0.5068  1.3319 -0.6095
 8149TIP3   OH248641   0.400   2.652   8.744 -0.2442 -0.9243 -0.1688
 8149TIP3    H148642   0.347   2.576   8.718  0.1517 -1.1368 -0.3648
 8149TIP3    H248643   0.431   2.630   8.832 -0.8873 -0.5783  0.1525
 8150TIP3   OH248644   1.655   3.986   9.110 -0.0610  0.2655 -0.7414
 8150TIP3    H148645   1.646   4.023   9.197 -1.6228 -2.0968  0.2348
 8150TIP3    H248646   1.725   3.921   9.118 -0.0349  0.2134 -1.3129
 8151TIP3   OH248647   4.487   4.022   0.297  0.1766  0.2688  0.0991
 8151TIP3    H148648   4.574   4.056   0.319  0.1488  1.3680 -1.3158
 8151TIP3    H248649   4.480   3.940   0.345  1.4228  0.8624  1.3717
 8152TIP3   OH248650   2.854   5.868   2.105  0.8916 -0.1258  0.0207
 8152TIP3    H148651   2.771   5.837   2.070  0.5864  0.8478 -0.1421
 8152TIP3    H248652   2.886   5.931   2.040  0.7256  1.0848  1.0692
 8153TIP3   OH248653   1.520   6.514   7.858  0.3014 -0.0228  0.2804
 8153TIP3    H148654   1.427   6.495   7.848  0.5612 -0.6098 -1.3597
 8153TIP3    H248655   1.531   6.600   7.818  0.6551 -0.5374 -0.7853
 8154TIP3   OH248656   0.049   5.526   0.948  0.5661 -0.2617 -0.0737
 8154TIP3    H148657   0.009   5.609   0.972  2.1779  0.2745  0.9507
 8154TIP3    H248658   0.036   5.470   1.025  2.0037  0.0343  0.4147
 8155TIP3   OH248659   4.708   4.633   9.130  0.0265 -0.0113  0.0657
 8155TIP3    H148660   4.765   4.664   9.060  1.1841 -1.3564  0.3678
 8155TIP3    H248661   4.749   4.665   9.211  1.1125 -1.9673  0.3682
 8156TIP3   OH248662   5.818   1.587   1.046 -0.1054  0.5173 -0.0209
 8156TIP3    H148663   5.781   1.608   0.960 -2.1568  0.4117  0.7848
 8156TIP3    H248664   5.748   1.541   1.091  1.9625 -2.2586  0.6368
 8157TIP3   OH248665   5.909   6.470   1.735 -0.2149  0.0842  0.5506
 8157TIP3    H148666   5.928   6.539   1.798 -0.2296 -0.0509  0.7054
 8157TIP3    H248667   5.846   6.413   1.781  0.7300 -0.7179  0.8975
 8158TIP3   OH248668   1.002   0.541   8.313 -0.2478 -0.1871  0.4584
 8158TIP3    H148669   0.983   0.586   8.231 -0.1459 -0.2844  0.3808
 8158TIP3    H248670   1.089   0.571   8.337  0.0869 -0.8420  0.0682
 8159TIP3   OH248671   3.965   1.581   8.540 -0.1393  0.2652 -0.4138
 8159TIP3    H148672   3.987   1.661   8.587 -2.7690 -0.6656  2.7357
 8159TIP3    H248673   3.870   1.587   8.525 -0.4184 -2.2656 -0.0215
 8160TIP3   OH248674   3.857   2.957   8.578  0.1125  0.7769 -0.2038
 8160TIP3    H148675   3.835   2.934   8.488  0.5323 -2.0403  0.3459
 8160TIP3    H248676   3.782   3.009   8.608 -0.4522  0.9903 -1.8617
 8161TIP3   OH248677   6.616   0.449   1.080  0.3884  0.0966  0.4154
 8161TIP3    H148678   6.624   0.415   0.991  0.7722  1.5347 -0.1257
 8161TIP3    H248679   6.526   0.480   1.085  0.3362 -0.0802  0.5612
 8162TIP3   OH248680   2.459   0.604   9.967  0.0658  0.2034 -0.1640
 8162TIP3    H148681   2.494   0.692   9.961  1.5566 -0.3604 -0.1214
 8162TIP3    H248682   2.404   0.604  10.046  0.1148  1.0574 -0.1302
 8163TIP3   OH248683   3.902   5.710   7.779 -0.1932  0.8525  0.0534
 8163TIP3    H148684   3.931   5.744   7.694 -1.2131  2.2200  0.2185
 8163TIP3    H248685   3.807   5.703   7.771 -0.1497 -0.7363  0.5059
 8164TIP3   OH248686   3.164   1.464   8.945  0.5710 -0.7026 -0.6004
 8164TIP3    H148687   3.240   1.452   9.002  0.1213  2.1216  0.7723
 8164TIP3    H248688   3.100   1.509   9.000 -0.7145  0.2483 -2.7478
 8165TIP3   OH248689   1.071   6.247   1.244 -0.3937 -0.2348  0.5802
 8165TIP3    H148690   1.037   6.237   1.155 -0.4899  1.3962  0.4072
 8165TIP3    H248691   1.156   6.205   1.242 -0.7072 -0.8518 -0.0820
 8166TIP3   OH248692   4.764   1.418   2.395  0.0732 -0.2535  0.5470
 8166TIP3    H148693   4.790   1.506   2.368 -1.2894  0.1404  0.4616
 8166TIP3    H248694   4.839   1.363   2.372  0.9491  0.8788  0.6225
 8167TIP3   OH248695   6.764   4.743   2.658 -0.2968 -0.4617 -0.3750
 8167TIP3    H148696   6.852   4.776   2.675 -0.9238  2.0320 -1.4800
 8167TIP3    H248697   6.745   4.685   2.731  1.9862 -0.5217  0.2428
 8168TIP3   OH248698   6.743   7.096   0.500  0.3395  0.0460 -0.0885
 8168TIP3    H148699   6.710   7.185   0.490  2.3251  1.3383  3.1628
 8168TIP3    H248700   6.837   7.103   0.483  0.8474 -0.9551  1.9490
 8169TIP3   OH248701   5.092   2.957   8.719  0.1146 -0.0859  0.0038
 8169TIP3    H148702   5.076   2.977   8.811  0.3177 -1.4453  0.3498
 8169TIP3    H248703   5.185   2.975   8.706  0.7660 -2.4774  0.8171
 8170TIP3   OH248704   0.422   2.788   0.735 -0.2119  0.6789  0.0726
 8170TIP3    H148705   0.453   2.737   0.810 -2.5424  1.7764  1.9198
 8170TIP3    H248706   0.345   2.741   0.704 -1.6601  2.3326  1.0152
 8171TIP3   OH248707   4.093   6.429   8.189 -0.0677 -0.2365 -0.3199
 8171TIP3    H148708   4.090   6.461   8.279  0.2062  0.7117 -0.6373
 8171TIP3    H248709   4.178   6.457   8.156 -0.0811 -0.7557 -0.8167
 8172TIP3   OH248710   2.159   0.115   8.119 -0.0233  0.3122  0.2894
 8172TIP3    H148711   2.179   0.028   8.084 -0.5553 -0.2799  1.4037
 8172TIP3    H248712   2.244   0.158   8.128  0.1777  0.2656 -1.1140
 8173TIP3   OH248713   3.636   7.079   9.199  0.6462 -0.1237  0.1023
 8173TIP3    H148714   3.602   7.109   9.283  0.1351 -1.9370  0.5812
 8173TIP3    H248715   3.710   7.136   9.181  0.4076  0.6653  1.4957
 8174TIP3   OH248716   3.383   1.873   8.572  0.1709 -0.4634  0.3515
 8174TIP3    H148717   3.475   1.893   8.553  0.4465 -0.8689  1.2045
 8174TIP3    H248718   3.386   1.789   8.619 -0.6974 -0.8748 -0.2982
 8175TIP3   OH248719   0.429   3.612   9.352  0.3810 -0.4994 -0.2148
 8175TIP3    H148720   0.428   3.679   9.421  0.9318 -1.7046  1.0107
 8175TIP3    H248721   0.375   3.541   9.387 -0.1429 -0.7536 -1.4635
 8176TIP3   OH248722   0.915   5.818   6.872  0.3120 -0.1256  0.0446
 8176TIP3    H148723   0.946   5.759   6.804 -0.2534 -1.0446  0.5676
 8176TIP3    H248724   0.932   5.773   6.954  2.1887  1.5230  0.6516
 8177TIP3   OH248725   6.936   5.465   9.029 -0.2369  0.2017 -0.1389
 8177TIP3    H148726   6.869   5.397   9.032 -0.1381 -0.1078 -2.7207
 8177TIP3    H248727   6.888   5.547   9.023 -0.3485  0.2459  1.0992
 8178TIP3   OH248728   0.131   4.962   2.461  0.2249  0.5004  0.1632
 8178TIP3    H148729   0.086   4.974   2.377 -0.2085  0.9027  0.4471
 8178TIP3    H248730   0.088   5.024   2.520  0.9427  0.6591  0.5276
 8179TIP3   OH248731   1.169   6.561   1.483  0.0751  0.4105  0.4126
 8179TIP3    H148732   1.215   6.592   1.561  1.7791 -0.0020 -0.3911
 8179TIP3    H248733   1.107   6.632   1.463 -0.2815  0.5981  2.0079
 8180TIP3   OH248734   6.740   5.409   0.514 -0.5338 -0.0056 -0.5579
 8180TIP3    H148735   6.743   5.443   0.603  0.6152 -0.0912 -0.5416
 8180TIP3    H248736   6.697   5.324   0.522 -1.9005  0.6870 -0.3442
 8181TIP3   OH248737   3.241   4.525   0.541  0.2841  0.1459  0.2044
 8181TIP3    H148738   3.276   4.606   0.578 -0.2682  0.7426 -0.5198
 8181TIP3    H248739   3.198   4.481   0.614 -1.2054  1.5239  0.2126
 8182TIP3   OH248740   6.685   1.812   9.639 -0.0024 -0.1973  0.4344
 8182TIP3    H148741   6.745   1.871   9.686  1.4795 -0.7173 -0.7186
 8182TIP3    H248742   6.665   1.743   9.702 -1.9114  1.5732  1.8675
 8183TIP3   OH248743   5.602   0.797   8.448 -0.3319  0.2701  0.0129
 8183TIP3    H148744   5.609   0.704   8.470  2.4394  0.4333  0.1813
 8183TIP3    H248745   5.529   0.802   8.387 -0.3766 -2.0706 -0.2078
 8184TIP3   OH248746   6.560   4.420   0.983 -0.1055  0.2685 -0.4998
 8184TIP3    H148747   6.587   4.347   1.039 -0.0861  0.4375 -0.2883
 8184TIP3    H248748   6.641   4.449   0.941 -0.0137  0.5522 -0.1293
 8185TIP3   OH248749   2.552   3.262   9.291 -0.1955  0.2059  0.1011
 8185TIP3    H148750   2.473   3.230   9.247  0.2275  0.5271 -0.9207
 8185TIP3    H248751   2.539   3.356   9.299 -0.3929  0.1167  0.9494
 8186TIP3   OH248752   2.049   6.164   2.032 -0.3137  0.1121  0.2353
 8186TIP3    H148753   2.076   6.072   2.037 -2.1183 -0.3746  2.1256
 8186TIP3    H248754   2.077   6.202   2.115 -2.2002  0.4863  0.7447
 8187TIP3   OH248755   4.232   3.270   0.526 -0.0782 -0.1955  0.3132
 8187TIP3    H148756   4.284   3.347   0.548 -0.7181 -0.2371  2.0690
 8187TIP3    H248757   4.291   3.217   0.471  0.8000  0.9498  0.1095
 8188TIP3   OH248758   7.405   3.353   7.519  0.1958 -0.2640  0.2842
 8188TIP3    H148759   7.320   3.363   7.562  0.5320 -1.4317  1.2443
 8188TIP3    H248760   7.468   3.351   7.590  0.8373 -1.4082 -0.2964
 8189TIP3   OH248761   3.156   4.220   1.065 -0.6361 -0.0784  0.0383
 8189TIP3    H148762   3.142   4.159   1.137 -1.8255 -0.3480 -0.4077
 8189TIP3    H248763   3.083   4.205   1.005 -0.6089  1.3308 -0.3963
 8190TIP3   OH248764   2.933   4.632   8.378  0.0089 -0.0409  0.2742
 8190TIP3    H148765   2.893   4.660   8.296  0.4240 -0.7123 -0.1684
 8190TIP3    H248766   2.866   4.577   8.419 -0.3729  0.6670  0.6055
 8191TIP3   OH248767   0.213   0.223   6.915 -0.5360 -0.6464  0.0103
 8191TIP3    H148768   0.166   0.140   6.909  0.9506 -1.5307  0.0239
 8191TIP3    H248769   0.297   0.206   6.871 -1.2068  1.6526 -2.4232
 8192TIP3   OH248770   2.394   2.529   9.810  0.2072  0.5191  0.0434
 8192TIP3    H148771   2.465   2.469   9.831 -0.5939 -0.3360  0.3724
 8192TIP3    H248772   2.385   2.584   9.889 -0.2583 -0.1467  0.4635
 8193TIP3   OH248773   0.086   1.843   1.623 -0.1928 -0.7186  0.2740
 8193TIP3    H148774   0.029   1.813   1.553 -0.5983  2.1134 -0.7355
 8193TIP3    H248775   0.174   1.830   1.589 -0.3807  1.6522 -1.3650
 8194TIP3   OH248776   6.809   6.649   0.443  0.1430  0.2138 -0.3807
 8194TIP3    H148777   6.838   6.669   0.354  1.0811  0.2071 -0.0794
 8194TIP3    H248778   6.731   6.703   0.455 -0.2313 -0.0942 -1.3476
 8195TIP3   OH248779   5.780   6.483   8.961 -0.1876 -0.0783  0.0215
 8195TIP3    H148780   5.817   6.478   8.873  0.2046 -2.4618  0.2546
 8195TIP3    H248781   5.688   6.459   8.950 -0.0354 -0.8033  0.3056
 8196TIP3   OH248782   2.006   1.894   9.154 -0.2212  0.7093 -0.7799
 8196TIP3    H148783   2.046   1.867   9.071  0.1500  1.7891 -0.9711
 8196TIP3    H248784   2.077   1.935   9.203 -0.5154  0.3727 -0.0605
 8197TIP3   OH248785   2.166   1.766   1.194 -0.2371  0.6007 -0.5522
 8197TIP3    H148786   2.223   1.827   1.147 -0.6467  1.0744 -0.4426
 8197TIP3    H248787   2.181   1.785   1.287  1.2599 -0.9587 -0.4300
 8198TIP3   OH248788   2.136   0.155   7.747 -0.2963  0.0033  0.5305
 8198TIP3    H148789   2.066   0.145   7.812  0.3575 -0.8767  1.1302
 8198TIP3    H248790   2.130   0.077   7.693 -0.6900  0.6264 -0.3419
 8199TIP3   OH248791   0.067   2.391   8.432  0.0908  0.1579 -0.4852
 8199TIP3    H148792   0.089   2.311   8.480 -0.8301  0.7452  0.9732
 8199TIP3    H248793   0.014   2.361   8.358 -1.1502 -0.5095  0.6361
 8200TIP3   OH248794   7.154   3.378   1.040 -0.0429 -0.0349 -0.3088
 8200TIP3    H148795   7.219   3.447   1.040  1.4408 -1.2760  2.3207
 8200TIP3    H248796   7.088   3.407   1.103  0.4321 -0.8256  0.5800
 8201TIP3   OH248797   0.732   3.121   9.395 -0.2806 -0.1832 -0.1726
 8201TIP3    H148798   0.807   3.079   9.353 -0.0439 -1.3248  1.3016
 8201TIP3    H248799   0.686   3.050   9.439 -0.7880  0.8587  1.0624
 8202TIP3   OH248800   5.169   2.685   8.207 -0.4090  0.3987 -0.3380
 8202TIP3    H148801   5.078   2.694   8.179 -1.3895 -2.1708  1.6148
 8202TIP3    H248802   5.174   2.597   8.245  3.0598  0.2163 -0.8847
 8203TIP3   OH248803   2.500   5.227   0.661  0.7523 -0.3948  0.3300
 8203TIP3    H148804   2.462   5.284   0.728  3.0140  0.6088  0.8604
 8203TIP3    H248805   2.438   5.155   0.653 -2.0300  1.8904 -0.0744
 8204TIP3   OH248806   0.287   2.902   7.259  0.3064 -0.8470 -0.1851
 8204TIP3    H148807   0.304   2.917   7.165 -0.4123  1.0265 -0.0689
 8204TIP3    H248808   0.208   2.849   7.261  1.0941 -2.0856 -0.6288
 8205TIP3   OH248809   1.234   0.922   8.615 -0.2188 -0.1346  0.2477
 8205TIP3    H148810   1.219   0.900   8.707  0.0425  0.4670  0.4378
 8205TIP3    H248811   1.209   1.014   8.608 -1.7136 -0.5740 -0.6402
 8206TIP3   OH248812   1.655   5.696   6.913 -0.3229 -0.4233 -0.1333
 8206TIP3    H148813   1.668   5.646   6.995 -1.5069  0.1541  0.4204
 8206TIP3    H248814   1.743   5.700   6.875  0.2229 -0.8856  1.0027
 8207TIP3   OH248815   0.462   6.728   1.472  0.1531  0.2142 -0.0139
 8207TIP3    H148816   0.415   6.694   1.396  0.1337  0.1219  0.0387
 8207TIP3    H248817   0.554   6.722   1.449  0.1073  1.9874 -0.7981
 8208TIP3   OH248818   3.981   0.784   1.026 -0.3810  0.2924 -0.4814
 8208TIP3    H148819   3.924   0.804   0.953 -0.5756 -1.8248 -0.9883
 8208TIP3    H248820   3.948   0.701   1.061 -0.1074  1.0653  1.8332
 8209TIP3   OH248821   2.323   0.412   8.852 -0.5515 -0.0638  0.0270
 8209TIP3    H148822   2.339   0.502   8.881 -0.3620 -0.0007 -0.2767
 8209TIP3    H248823   2.228   0.402   8.859 -1.0802  1.3248 -3.2237
 8210TIP3   OH248824   0.629   5.153   1.899  0.0543  0.1950 -0.1238
 8210TIP3    H148825   0.713   5.107   1.904  0.1233  0.4491  1.9371
 8210TIP3    H248826   0.582   5.109   1.829  0.8802 -1.7485  0.4705
 8211TIP3   OH248827   7.436   1.830   8.897 -0.2125  0.0462  0.2061
 8211TIP3    H148828   7.356   1.878   8.917 -0.0147  0.4759 -0.0199
 8211TIP3    H248829   7.497   1.855   8.967 -0.0073  0.3794 -0.0852
 8212TIP3   OH248830   0.052   5.979   0.592 -0.0992 -0.6575 -0.0530
 8212TIP3    H148831  -0.002   5.928   0.532  1.3314 -3.4170  0.8048
 8212TIP3    H248832  -0.004   5.995   0.668 -0.4400 -1.3971 -0.1424
 8213TIP3   OH248833   6.812   4.689   1.121  0.0788  0.8824 -0.8797
 8213TIP3    H148834   6.747   4.679   1.191  2.3929  0.6162  1.3781
 8213TIP3    H248835   6.774   4.754   1.062 -0.9676  3.0457  1.9805
 8214TIP3   OH248836   5.544   6.373   8.914  0.6395 -0.4229 -0.0110
 8214TIP3    H148837   5.528   6.305   8.850  1.0489 -0.4361 -0.1004
 8214TIP3    H248838   5.496   6.449   8.881  0.4925 -0.5561 -0.1037
 8215TIP3   OH248839   3.197   7.431   9.093 -0.3953  0.5044 -0.4649
 8215TIP3    H148840   3.199   7.363   9.160 -1.5093  0.6183 -0.2914
 8215TIP3    H248841   3.289   7.442   9.067 -0.2322 -1.3939 -0.8503
 8216TIP3   OH248842   2.222   3.078   9.636  0.1612 -0.6018  0.3419
 8216TIP3    H148843   2.303   3.104   9.592 -0.0851  1.4185  0.9584
 8216TIP3    H248844   2.249   3.011   9.698  1.9280  1.7201  2.2946
 8217TIP3   OH248845   0.524   4.931   8.893  0.4658  0.0928  0.9534
 8217TIP3    H148846   0.595   4.970   8.842  0.8173 -0.3986  1.0689
 8217TIP3    H248847   0.472   5.006   8.922  1.0990  0.4801  1.1134
 8218TIP3   OH248848   2.185   0.435   9.575  0.0574  0.3509 -0.0053
 8218TIP3    H148849   2.160   0.436   9.482  0.9091  0.4970 -0.2464
 8218TIP3    H248850   2.192   0.343   9.597 -1.8101  0.2684  0.4011
 8219TIP3   OH248851   6.039   6.569   1.499  0.1424 -0.0942 -0.8538
 8219TIP3    H148852   5.980   6.551   1.425 -1.0881 -1.0277  0.3009
 8219TIP3    H248853   5.990   6.539   1.576  1.1931  1.2964  0.4000
 8220TIP3   OH248854   2.971   5.615   7.361 -0.2418 -0.4069 -0.2575
 8220TIP3    H148855   2.919   5.571   7.429  0.0624 -2.5091 -1.3042
 8220TIP3    H248856   2.908   5.639   7.294 -0.5318  1.6194  0.6396
 8221TIP3   OH248857   1.524   1.948   7.305  0.0728  0.0095 -0.1170
 8221TIP3    H148858   1.481   1.901   7.233  0.9582 -1.5279  0.3281
 8221TIP3    H248859   1.477   1.919   7.383  1.9745 -1.8976  0.4105
 8222TIP3   OH248860   5.091   6.018   0.093 -0.0001 -0.5695  0.6950
 8222TIP3    H148861   5.002   6.014   0.130 -0.9122 -0.1144 -1.3130
 8222TIP3    H248862   5.100   6.109   0.064 -0.1223 -1.3012 -1.8920
 8223TIP3   OH248863   3.222   0.694   2.559 -0.2585  0.7496  0.4615
 8223TIP3    H148864   3.260   0.723   2.642 -0.0130  0.2789  0.5194
 8223TIP3    H248865   3.150   0.754   2.543  0.6443  1.7996  0.2460
 8224TIP3   OH248866   0.468   3.578   2.605 -0.0838  0.1311 -0.3845
 8224TIP3    H148867   0.400   3.511   2.611  0.9750 -0.9255  0.0960
 8224TIP3    H248868   0.421   3.655   2.573 -2.2386  0.4924  3.0524
 8225TIP3   OH248869   4.258   3.799   8.525 -0.4039  0.1313  0.2473
 8225TIP3    H148870   4.182   3.808   8.468 -1.0136 -0.4692  0.9276
 8225TIP3    H248871   4.245   3.866   8.593  0.8397  1.5346 -0.8373
 8226TIP3   OH248872   6.847   6.136   2.003 -0.1949  0.1109  0.0494
 8226TIP3    H148873   6.931   6.183   2.011 -1.0272  1.7206 -0.1956
 8226TIP3    H248874   6.822   6.118   2.093 -0.8544  2.0650  0.3118
 8227TIP3   OH248875   3.999   0.902   8.991  0.1636 -0.2263 -0.2278
 8227TIP3    H148876   4.025   0.842   8.921  0.9346  1.8690 -1.8482
 8227TIP3    H248877   4.028   0.859   9.072 -1.2078 -2.9716 -1.0604
 8228TIP3   OH248878   7.063   0.191   9.939 -0.1869 -0.1021  0.1502
 8228TIP3    H148879   7.036   0.101   9.924  0.8020 -0.5751  1.1095
 8228TIP3    H248880   7.154   0.185   9.968  0.0874  1.2532 -0.3562
 8229TIP3   OH248881   0.114   7.158   2.175  0.0076  0.3202 -0.6130
 8229TIP3    H148882   0.148   7.093   2.237 -1.5247  0.0057 -0.0469
 8229TIP3    H248883   0.080   7.228   2.230  0.2600  0.8989 -1.1770
 8230TIP3   OH248884   0.534   1.841   2.764  0.2304  0.5334  0.0381
 8230TIP3    H148885   0.448   1.803   2.784  1.4002 -1.6472  1.3374
 8230TIP3    H248886   0.553   1.896   2.840 -0.1944  1.4243 -0.4830
 8231TIP3   OH248887   6.112   0.038   9.744  0.0047  0.4007 -0.5473
 8231TIP3    H148888   6.028   0.020   9.787  0.3319 -0.1840 -0.1430
 8231TIP3    H248889   6.149  -0.049   9.727  0.0863  0.6376 -1.6099
 8232TIP3   OH248890   0.788   4.657   1.709 -0.3529 -0.2204 -0.0138
 8232TIP3    H148891   0.829   4.574   1.686 -0.4811 -0.4392  0.5446
 8232TIP3    H248892   0.802   4.712   1.632  0.5902 -0.4357 -0.0090
 8233TIP3   OH248893   6.843   5.544   1.089  0.2122  0.0481 -0.4978
 8233TIP3    H148894   6.770   5.544   1.027 -0.8919  0.8523  0.7345
 8233TIP3    H248895   6.872   5.635   1.091  1.5647 -0.3483 -1.3009
 8234TIP3   OH248896   6.079   0.746   0.836 -0.1644  0.3408  0.1670
 8234TIP3    H148897   6.160   0.785   0.867  0.5077  0.8530 -2.0727
 8234TIP3    H248898   6.101   0.655   0.817 -0.0378  0.5431 -0.6754
 8235TIP3   OH248899   3.975   5.665   8.461 -0.0217 -0.6005 -0.0294
 8235TIP3    H148900   3.884   5.651   8.489  0.1751 -0.4349  0.7221
 8235TIP3    H248901   4.019   5.701   8.539  0.1716  1.4634 -1.0099
 8236TIP3   OH248902   4.406   4.048   1.513 -0.0112 -0.1024 -0.2042
 8236TIP3    H148903   4.500   4.035   1.528 -0.2302 -1.0951  0.3770
 8236TIP3    H248904   4.370   4.062   1.600 -0.2550  1.4010 -0.5265
 8237TIP3   OH248905   5.602   7.054   9.466 -0.3534  0.6933  0.1011
 8237TIP3    H148906   5.542   7.001   9.414 -1.1561  1.4014  0.2923
 8237TIP3    H248907   5.611   7.136   9.418 -0.5643  1.0888  0.7189
 8238TIP3   OH248908   6.553   5.606   1.781  0.1705 -0.4859  0.1942
 8238TIP3    H148909   6.489   5.599   1.851  1.1849  1.5401  1.4210
 8238TIP3    H248910   6.603   5.524   1.785  0.0148 -0.5377  1.6688
 8239TIP3   OH248911   6.372   3.098   8.258  0.4491  0.1223  0.4524
 8239TIP3    H148912   6.451   3.142   8.288  0.0997 -0.5935  2.5463
 8239TIP3    H248913   6.335   3.159   8.194  2.2044  0.8709  0.0864
 8240TIP3   OH248914   7.244   3.880   1.200  0.0077  0.1292 -0.2982
 8240TIP3    H148915   7.269   3.794   1.234 -2.9124  0.0155  2.0559
 8240TIP3    H248916   7.194   3.861   1.121 -1.6877 -0.5414  0.8763
 8241TIP3   OH248917   1.084   4.308   1.955 -0.2826  0.0549  0.1622
 8241TIP3    H148918   1.102   4.233   2.012 -0.6953 -0.6128 -0.5596
 8241TIP3    H248919   1.157   4.368   1.971  0.3346 -0.7351  0.3739
 8242TIP3   OH248920   4.723   2.672   1.452  0.1176  0.5870 -0.4077
 8242TIP3    H148921   4.633   2.705   1.457  0.2874  1.0346 -0.2563
 8242TIP3    H248922   4.750   2.663   1.544 -0.8789 -2.6622 -0.2871
 8243TIP3   OH248923   1.957   0.670   0.772  0.3262  0.3431  0.0626
 8243TIP3    H148924   1.990   0.582   0.786 -1.0476  0.0671  1.8513
 8243TIP3    H248925   1.930   0.672   0.680  0.7031 -0.9562 -0.0878
 8244TIP3   OH248926   4.610   7.223   1.008  0.2980 -0.1758 -0.9523
 8244TIP3    H148927   4.541   7.285   0.984  0.8288  0.3915 -1.0265
 8244TIP3    H248928   4.563   7.141   1.025 -0.2670 -0.1795 -2.3554
 8245TIP3   OH248929   2.601   2.573   8.240 -0.2819 -0.1768 -0.2691
 8245TIP3    H148930   2.684   2.528   8.250 -0.4227 -0.3531  0.1449
 8245TIP3    H248931   2.548   2.515   8.186 -1.1650 -1.5088  1.8697
 8246TIP3   OH248932   0.725   0.370   1.721 -0.1529  0.0354  0.2923
 8246TIP3    H148933   0.744   0.462   1.702 -0.4201  0.0655  0.1680
 8246TIP3    H248934   0.664   0.372   1.795  3.9476 -0.1385  4.0871
 8247TIP3   OH248935   0.869   2.862   2.370  0.0906 -0.4576 -0.4704
 8247TIP3    H148936   0.877   2.853   2.275  0.9984  2.0064 -0.6684
 8247TIP3    H248937   0.797   2.924   2.382 -0.1152 -0.8630  0.4829
 8248TIP3   OH248938   0.128   0.492   0.190 -0.0199  0.4238  0.0392
 8248TIP3    H148939   0.079   0.410   0.191  1.8399 -0.8412  3.1611
 8248TIP3    H248940   0.182   0.487   0.111  0.8192 -1.9169  0.7001
 8249TIP3   OH248941   1.492   3.786   1.426  0.0988 -0.2405  0.2203
 8249TIP3    H148942   1.424   3.727   1.457 -0.4967  0.3787  0.1394
 8249TIP3    H248943   1.574   3.743   1.447 -0.3142 -0.6528  1.0097
 8250TIP3   OH248944   3.465   0.524   1.654  0.7234  0.4793 -0.5114
 8250TIP3    H148945   3.396   0.587   1.675  0.0136 -0.5691  0.4264
 8250TIP3    H248946   3.475   0.472   1.733  2.9415  0.8811 -0.4561
 8251TIP3   OH248947   0.015   4.923   8.682 -0.8353  0.3686  0.0231
 8251TIP3    H148948  -0.055   4.938   8.746  0.5614  1.7701  1.2957
 8251TIP3    H248949   0.084   4.879   8.731 -0.0135  0.8436 -0.6771
 8252TIP3   OH248950   4.249   5.262   9.396  0.5080 -0.1461  0.1750
 8252TIP3    H148951   4.271   5.194   9.332 -1.8163  0.3410 -1.2714
 8252TIP3    H248952   4.238   5.342   9.344 -2.7201  0.0096  0.8344
 8253TIP3   OH248953   2.596   1.262   2.674  0.8360 -0.0398  0.2130
 8253TIP3    H148954   2.690   1.254   2.688  1.0345  0.1756 -0.8862
 8253TIP3    H248955   2.582   1.356   2.658  0.4129 -0.0506  0.4958
 8254TIP3   OH248956   0.037   6.493   6.673 -0.2799  0.3992 -0.7195
 8254TIP3    H148957  -0.051   6.492   6.635 -0.2661 -0.3871 -0.7479
 8254TIP3    H248958   0.052   6.402   6.700  1.1213  0.1563 -2.1380
 8255TIP3   OH248959   0.017   1.181   2.155 -0.6882  0.5026 -0.1985
 8255TIP3    H148960  -0.048   1.248   2.175 -1.0205  0.4142 -0.9330
 8255TIP3    H248961   0.038   1.142   2.239 -1.8375  0.3119  0.0132
 8256TIP3   OH248962   4.558   1.484   9.387 -0.3733  0.4335  0.7544
 8256TIP3    H148963   4.586   1.568   9.349 -0.7457  0.7976  1.2742
 8256TIP3    H248964   4.598   1.483   9.474  0.6278 -0.4830  0.3086
 8257TIP3   OH248965   1.953   0.406   6.951  0.4151 -0.0262 -0.5795
 8257TIP3    H148966   1.914   0.363   6.875  1.1789 -0.3980 -0.7726
 8257TIP3    H248967   2.027   0.456   6.915  0.6942 -0.0902 -0.1013
 8258TIP3   OH248968   2.585   2.722   9.424  0.0362 -0.0973  0.1455
 8258TIP3    H148969   2.528   2.762   9.359 -0.9647 -0.6498  0.6702
 8258TIP3    H248970   2.672   2.759   9.405 -0.6102  1.3353 -0.1827
 8259TIP3   OH248971   3.098   2.804   1.764 -0.5139  0.8011  0.0506
 8259TIP3    H148972   3.094   2.715   1.799 -1.7359  0.3492 -1.1609
 8259TIP3    H248973   3.170   2.845   1.812 -0.0385 -0.7750  0.7552
 8260TIP3   OH248974   2.456   2.456   7.335 -0.2396  0.3237  0.3469
 8260TIP3    H148975   2.535   2.444   7.283 -0.3576 -1.4865  0.5015
 8260TIP3    H248976   2.488   2.472   7.424 -0.0290  0.3549  0.2646
 8261TIP3   OH248977   1.609   5.263   1.644 -0.6942 -0.7529 -0.4723
 8261TIP3    H148978   1.558   5.322   1.699 -0.6222 -0.0486 -1.1513
 8261TIP3    H248979   1.593   5.293   1.554 -0.2575 -1.4446 -0.7885
 8262TIP3   OH248980   5.979   3.191   9.009  0.5119  0.2665 -0.0665
 8262TIP3    H148981   5.961   3.285   9.017 -1.7029 -0.2299  2.2134
 8262TIP3    H248982   5.994   3.162   9.099  3.1202 -1.3094 -0.9064
 8263TIP3   OH248983   6.721   2.084   9.485 -0.2364  0.3685  0.0654
 8263TIP3    H148984   6.816   2.096   9.483 -0.1780 -0.0463  0.1060
 8263TIP3    H248985   6.710   1.989   9.489 -0.6809  0.3508 -1.3580
 8264TIP3   OH248986   2.906   3.153   9.959 -0.4281 -0.3268 -0.4869
 8264TIP3    H148987   2.915   3.247   9.979 -0.5804 -0.1444 -1.2236
 8264TIP3    H248988   2.818   3.145   9.922  0.3191 -0.3782 -2.3757
 8265TIP3   OH248989   2.792   1.196   7.385 -0.0629 -0.1946  0.3613
 8265TIP3    H148990   2.812   1.244   7.304  0.7647 -0.9646  0.0837
 8265TIP3    H248991   2.877   1.186   7.428 -0.4769  0.0778  1.2681
 8266TIP3   OH248992   1.136   6.485   0.972  0.1071  0.1272 -0.5114
 8266TIP3    H148993   1.090   6.404   0.992 -1.0726  1.1875  1.4010
 8266TIP3    H248994   1.082   6.528   0.906  0.1588 -0.1454 -0.7312
 8267TIP3   OH248995   5.183   6.147   0.670  0.2886  0.0047  0.3967
 8267TIP3    H148996   5.151   6.161   0.580 -0.2355 -0.1162  0.5610
 8267TIP3    H248997   5.104   6.127   0.720  0.4999  0.7045  1.0145
 8268TIP3   OH248998   3.736   3.730   8.057 -0.5252 -0.0447  0.4678
 8268TIP3    H148999   3.750   3.817   8.093  3.7920 -0.7133  0.9020
 8268TIP3    H249000   3.778   3.670   8.119  1.4627 -1.8477 -2.3522
 8269TIP3   OH249001   7.054   0.151   7.354 -0.1999  0.0518  0.2308
 8269TIP3    H149002   6.972   0.182   7.315 -0.8083  1.3974  2.3778
 8269TIP3    H249003   7.123   0.190   7.300 -0.9953  1.0725 -0.0851
 8270TIP3   OH249004   1.118   0.633   1.596 -0.0084  0.1567 -0.3317
 8270TIP3    H149005   1.187   0.697   1.576  1.1006 -1.2150 -1.1230
 8270TIP3    H249006   1.091   0.600   1.510 -1.2194  0.2063  0.0161
 8271TIP3   OH249007   3.659   2.914   9.376  0.3771 -0.1184  0.1849
 8271TIP3    H149008   3.611   2.832   9.391  1.8071 -1.6759 -2.8591
 8271TIP3    H249009   3.592   2.982   9.386 -1.5034 -1.8528  0.2191
 8272TIP3   OH249010   3.088   0.009   7.133  0.7094 -0.1734  0.1128
 8272TIP3    H149011   3.065   0.021   7.041 -0.6704 -1.8903  0.1817
 8272TIP3    H249012   3.094  -0.086   7.144  3.8034  0.0462  1.1444
 8273TIP3   OH249013   7.019   5.963   1.422  0.1744 -0.0552  0.2814
 8273TIP3    H149014   7.056   6.050   1.408  0.9253 -0.5131 -0.7591
 8273TIP3    H249015   7.057   5.909   1.352  0.2137 -1.3593  1.2617
 8274TIP3   OH249016   5.271   1.213   9.158 -0.2743  0.1733 -0.2108
 8274TIP3    H149017   5.211   1.142   9.135 -0.8771  1.0961 -1.6238
 8274TIP3    H249018   5.306   1.243   9.074  1.7227  0.0710  0.5386
 8275TIP3   OH249019   4.216   6.461   8.779  0.5547  0.1654  0.5322
 8275TIP3    H149020   4.129   6.482   8.812  1.3897  1.7670  1.8810
 8275TIP3    H249021   4.237   6.376   8.817  0.4487  0.8065  2.1124
 8276TIP3   OH249022   5.778   1.312   1.588 -0.2244 -0.6646  0.0482
 8276TIP3    H149023   5.699   1.273   1.626  0.7598 -0.8226  2.0519
 8276TIP3    H249024   5.797   1.258   1.512 -1.1558 -1.6093  0.4549
 8277TIP3   OH249025   2.815   0.352   1.161  0.3473  0.1789  0.0809
 8277TIP3    H149026   2.871   0.419   1.122 -0.9978  1.4133  0.2086
 8277TIP3    H249027   2.765   0.398   1.228 -0.8441 -0.8648 -0.0565
 8278TIP3   OH249028   4.340   2.028   1.590 -0.3687  0.6165 -0.3792
 8278TIP3    H149029   4.288   2.043   1.669 -1.4265 -1.7760 -0.5201
 8278TIP3    H249030   4.431   2.032   1.620 -0.7462 -1.4517  1.3016
 8279TIP3   OH249031   5.217   1.874   0.827 -0.1329 -0.5293 -1.0240
 8279TIP3    H149032   5.303   1.914   0.838 -1.1749  1.7817 -0.7878
 8279TIP3    H249033   5.226   1.815   0.752  1.5132  0.0394 -1.2924
 8280TIP3   OH249034   2.457   1.116   2.438 -0.3590  0.4472 -0.8458
 8280TIP3    H149035   2.384   1.178   2.440 -0.8424 -0.0885  1.1501
 8280TIP3    H249036   2.535   1.170   2.439 -0.7734  1.0606 -0.1653
 8281TIP3   OH249037   1.196   0.373   7.537 -0.2802  0.6828  0.6427
 8281TIP3    H149038   1.175   0.388   7.629 -2.3947 -0.3066  0.3781
 8281TIP3    H249039   1.275   0.426   7.521  0.8535 -0.0498  3.2977
 8282TIP3   OH249040   0.843   4.515   7.535  0.5897  0.0181 -0.5754
 8282TIP3    H149041   0.834   4.527   7.629  3.3572  2.3600 -0.4565
 8282TIP3    H249042   0.898   4.437   7.526  0.8547  0.1653 -0.2263
 8283TIP3   OH249043   0.201   6.101   9.117  0.0371 -0.0902 -0.1430
 8283TIP3    H149044   0.127   6.106   9.176  0.6819  1.9795  0.5794
 8283TIP3    H249045   0.166   6.128   9.032 -0.3975 -0.8427 -0.2083
 8284TIP3   OH249046   4.816   2.509   1.250 -0.0643  0.2194 -0.3888
 8284TIP3    H149047   4.739   2.453   1.241  0.3599 -0.5668  0.6484
 8284TIP3    H249048   4.794   2.570   1.320 -0.1401  0.7053 -0.8264
 8285TIP3   OH249049   6.687   2.337   1.435 -0.1777  0.2912 -0.0824
 8285TIP3    H149050   6.625   2.404   1.463 -0.0358  1.7404 -2.8671
 8285TIP3    H249051   6.655   2.256   1.474 -3.0010  1.2327 -0.2394
 8286TIP3   OH249052   0.545   1.836   9.086 -0.4015  0.1790  0.1969
 8286TIP3    H149053   0.469   1.881   9.051  0.2312  1.2103  0.1114
 8286TIP3    H249054   0.615   1.901   9.083  0.5320 -0.8098  0.0905
 8287TIP3   OH249055   5.319   3.653   7.334 -0.5008 -0.4288  0.4517
 8287TIP3    H149056   5.243   3.642   7.391 -1.8412  0.5872 -1.0568
 8287TIP3    H249057   5.327   3.748   7.323  0.7163 -0.5439  0.2121
 8288TIP3   OH249058   4.955   0.023   8.219  0.2936 -0.5355 -0.3234
 8288TIP3    H149059   4.986  -0.020   8.298  0.4196 -0.1589 -0.1682
 8288TIP3    H249060   4.936   0.113   8.245 -0.3036 -0.5847 -0.5681
 8289TIP3   OH249061   6.515   2.985   0.801 -0.1084  0.1111 -0.3752
 8289TIP3    H149062   6.569   3.023   0.731 -0.8764  0.8002 -0.6025
 8289TIP3    H249063   6.429   2.974   0.762 -0.6525  0.8670  0.5788
 8290TIP3   OH249064   5.322   1.484   8.346 -0.0787  0.2453 -0.0371
 8290TIP3    H149065   5.411   1.501   8.315  0.1524 -0.9152 -0.0412
 8290TIP3    H249066   5.267   1.544   8.295  0.3972 -0.9481 -2.0638
 8291TIP3   OH249067   0.878   2.736   1.329 -0.3807 -0.1692 -0.0929
 8291TIP3    H149068   0.821   2.660   1.323 -0.6609  0.0873 -0.8699
 8291TIP3    H249069   0.821   2.811   1.313  0.0969  0.1147 -0.5340
 8292TIP3   OH249070   7.077   5.834   0.615 -0.5702  0.0075 -0.2329
 8292TIP3    H149071   7.096   5.812   0.524  0.0497 -0.2144 -0.0542
 8292TIP3    H249072   7.054   5.927   0.613  2.2382  0.7824 -0.2526
 8293TIP3   OH249073   2.077   3.029   7.590  0.6751  0.2737 -0.5614
 8293TIP3    H149074   2.097   2.963   7.657 -1.5136 -1.4001 -1.4561
 8293TIP3    H249075   2.079   3.112   7.638 -0.6970 -0.8591  1.5994
 8294TIP3   OH249076   3.744   2.829   7.033 -0.7627 -0.4928  0.3017
 8294TIP3    H149077   3.838   2.819   7.044 -0.8975 -3.0419 -0.2383
 8294TIP3    H249078   3.716   2.881   7.108  0.9321 -0.6187  1.0646
 8295TIP3   OH249079   2.065   4.867   9.903 -0.2415 -0.4127 -0.2154
 8295TIP3    H149080   2.144   4.853   9.955 -0.7347 -2.2606  0.1250
 8295TIP3    H249081   2.087   4.939   9.844  1.0769  0.2762  1.0690
 8296TIP3   OH249082   4.093   1.893   0.253 -0.5044  0.3442  0.0903
 8296TIP3    H149083   4.067   1.849   0.172  1.4059 -1.3027  0.3190
 8296TIP3    H249084   4.130   1.976   0.223 -2.2687  0.9834 -0.4853
 8297TIP3   OH249085   4.128   0.483   2.698  0.1427 -0.2856 -0.1678
 8297TIP3    H149086   4.057   0.450   2.753 -0.7897  0.5418 -0.8513
 8297TIP3    H249087   4.133   0.577   2.719 -0.5561  0.1472 -1.8337
 8298TIP3   OH249088   7.288   4.627   0.583 -0.4287  0.1081 -0.2553
 8298TIP3    H149089   7.239   4.652   0.505 -0.3394 -0.4363 -0.4872
 8298TIP3    H249090   7.377   4.608   0.552  0.7796  3.7533  0.5169
 8299TIP3   OH249091   4.297   5.095   7.909  0.2671  0.6071  0.0091
 8299TIP3    H149092   4.282   5.147   7.830 -0.6187  1.4413  0.7041
 8299TIP3    H249093   4.363   5.144   7.958  2.1920 -0.8228 -0.9945
 8300TIP3   OH249094   1.574   0.004   7.269  0.2016  0.2753 -0.1508
 8300TIP3    H149095   1.533   0.023   7.354  0.8484 -1.9791  0.7450
 8300TIP3    H249096   1.666   0.026   7.280  0.1874  0.4935 -0.4520
 8301TIP3   OH249097   5.672   6.378   7.421 -0.1914 -0.0749 -1.1244
 8301TIP3    H149098   5.715   6.424   7.349 -0.8578 -0.8298 -2.0179
 8301TIP3    H249099   5.676   6.440   7.494  2.4169 -0.1196 -1.1449
 8302TIP3   OH249100   1.136   2.670   9.838  0.2727 -0.7102  0.6430
 8302TIP3    H149101   1.160   2.598   9.780  3.9141  2.1740 -1.8789
 8302TIP3    H249102   1.185   2.653   9.919  2.0442 -0.5351 -0.3652
 8303TIP3   OH249103   0.562   1.909   1.120  0.1870 -0.0144 -0.0521
 8303TIP3    H149104   0.542   1.823   1.084  0.6742 -0.3301  0.4230
 8303TIP3    H249105   0.482   1.935   1.166  0.2192 -0.4331  0.2354
 8304TIP3   OH249106   0.280   3.208   7.485  0.3316  0.3340  0.1994
 8304TIP3    H149107   0.259   3.115   7.480  1.6845  0.0350 -0.3976
 8304TIP3    H249108   0.370   3.210   7.518  0.2720  1.4442  0.3255
 8305TIP3   OH249109   7.363   6.026   8.430 -0.1660 -0.3711 -0.3259
 8305TIP3    H149110   7.403   5.947   8.395 -1.1349 -0.7526 -0.5953
 8305TIP3    H249111   7.286   5.996   8.478  0.4754  0.2482  1.1523
 8306TIP3   OH249112   0.907   0.412   7.490 -0.1450 -0.0167  0.7726
 8306TIP3    H149113   0.877   0.322   7.487 -1.4122  0.3887 -1.3882
 8306TIP3    H249114   0.879   0.445   7.575  1.1788 -1.8853  1.9876
 8307TIP3   OH249115   7.062   7.049   8.764 -0.0310  0.2868 -0.3713
 8307TIP3    H149116   7.145   7.015   8.732 -0.2350 -0.9837  0.4006
 8307TIP3    H249117   7.075   7.061   8.858 -0.7675 -0.1247 -0.2053
 8308TIP3   OH249118   1.434   5.099   3.001 -0.0041  0.0979  0.2613
 8308TIP3    H149119   1.401   5.011   3.021  0.3236  0.0159  0.4453
 8308TIP3    H249120   1.360   5.143   2.959  0.3791 -0.8922 -1.6025
 8309TIP3   OH249121   2.181   0.455   2.272 -0.0305  0.2121  0.0951
 8309TIP3    H149122   2.129   0.467   2.351  2.1830  0.0095  1.6943
 8309TIP3    H249123   2.134   0.389   2.221 -1.1095 -0.2639  1.6451
 8310TIP3   OH249124   5.016   0.973   7.637  0.1783  0.1511 -0.0977
 8310TIP3    H149125   5.099   0.927   7.649  0.5091  0.5524 -0.7699
 8310TIP3    H249126   5.040   1.055   7.593 -0.6690 -0.1369 -1.1373
 8311TIP3   OH249127   1.062   1.751   7.514 -0.8293  0.1230 -0.5344
 8311TIP3    H149128   1.040   1.731   7.605 -0.8137 -1.7078 -0.8847
 8311TIP3    H249129   1.044   1.670   7.467  2.0702  0.0055 -1.6685
 8312TIP3   OH249130   6.579   5.611   1.381  0.1611 -0.8092  0.2365
 8312TIP3    H149131   6.623   5.531   1.350 -0.1000 -1.1206  0.6547
 8312TIP3    H249132   6.485   5.592   1.370  0.0765 -0.7800  0.8557
 8313TIP3   OH249133   6.849   1.569   0.445 -0.3219  0.4768  0.5773
 8313TIP3    H149134   6.918   1.568   0.511  1.4258 -0.0297 -1.1743
 8313TIP3    H249135   6.891   1.604   0.367 -1.9474 -0.2370 -0.6667
 8314TIP3   OH249136   1.677   1.283   8.659  0.5662  0.3937 -0.3756
 8314TIP3    H149137   1.740   1.252   8.593  0.7256  0.0323 -0.0553
 8314TIP3    H249138   1.728   1.292   8.739  0.1377 -0.3035 -0.0077
 8315TIP3   OH249139   3.032   6.129   1.818  0.1233 -0.4317  0.5272
 8315TIP3    H149140   3.005   6.125   1.726  1.1803 -1.3040  0.2259
 8315TIP3    H249141   2.953   6.152   1.865 -0.7022 -1.0690 -0.4948
 8316TIP3   OH249142   0.897   4.906   6.592  0.6132  0.1289  0.6345
 8316TIP3    H149143   0.835   4.873   6.657  0.4739 -1.6502 -0.3107
 8316TIP3    H249144   0.844   4.916   6.512  1.3242 -0.4702  0.0741
 8317TIP3   OH249145   4.078   6.978   9.327  0.1997 -0.6122  0.1205
 8317TIP3    H149146   4.126   6.913   9.276  0.8596  0.0048 -0.0624
 8317TIP3    H249147   4.063   7.050   9.265 -0.7773 -0.7040  0.2338
 8318TIP3   OH249148   1.839   5.163   2.592 -0.7446 -0.3240 -0.2955
 8318TIP3    H149149   1.881   5.154   2.678  0.8245  1.0551 -0.8774
 8318TIP3    H249150   1.792   5.080   2.580  1.9320 -2.0527  0.3471
 8319TIP3   OH249151   2.648   5.444   1.290  0.1333 -0.2720  0.0121
 8319TIP3    H149152   2.580   5.438   1.357 -0.1909  1.4799 -0.1213
 8319TIP3    H249153   2.637   5.364   1.238 -1.2700 -0.4327  0.5130
 8320TIP3   OH249154   4.251   6.720   8.447 -0.6187  0.2112  0.6118
 8320TIP3    H149155   4.313   6.699   8.517 -0.1165 -0.8323 -0.1160
 8320TIP3    H249156   4.165   6.703   8.485 -0.3681 -0.0099  1.0928
 8321TIP3   OH249157   0.028   2.989   8.324 -0.2174  0.4160 -0.0836
 8321TIP3    H149158  -0.020   3.051   8.267  2.5039  0.6597 -2.3325
 8321TIP3    H249159   0.069   3.044   8.390 -2.0656  0.3189  1.2132
 8322TIP3   OH249160   5.001   5.589   2.171 -0.1303  0.3039  0.1144
 8322TIP3    H149161   5.000   5.508   2.223 -0.2594  0.6523  0.6549
 8322TIP3    H249162   4.969   5.656   2.230 -1.4074  0.5044 -0.7684
 8323TIP3   OH249163   1.174   4.670   6.815  0.5650  0.1918  0.6445
 8323TIP3    H149164   1.241   4.671   6.747  1.6999 -2.6508  1.5618
 8323TIP3    H249165   1.161   4.577   6.834 -3.3738  0.5869  0.8440
 8324TIP3   OH249166   6.062   7.248   9.962 -0.1549  0.2264 -0.1256
 8324TIP3    H149167   6.147   7.272   9.999 -0.8432  0.9145  1.0871
 8324TIP3    H249168   6.077   7.165   9.917  1.1091  0.2468  0.2337
 8325TIP3   OH249169   1.975   0.690   8.447  0.5468 -0.0297 -0.1349
 8325TIP3    H149170   2.041   0.705   8.380  1.7549  1.3332  1.2924
 8325TIP3    H249171   2.023   0.693   8.529 -0.9708 -1.1552  0.8438
 8326TIP3   OH249172   5.749   6.664   1.977  0.0130 -0.5026 -0.9836
 8326TIP3    H149173   5.790   6.720   2.043 -0.2070  0.5049 -1.6780
 8326TIP3    H249174   5.734   6.581   2.022 -0.1145  0.1559  0.2353
 8327TIP3   OH249175   0.678   5.932   8.673 -0.0082 -0.0227  0.2456
 8327TIP3    H149176   0.598   5.979   8.652 -1.5271 -2.4513  0.2797
 8327TIP3    H249177   0.720   5.986   8.741 -0.8682  1.9760 -0.7401
 8328TIP3   OH249178   2.488   6.165   1.040  0.0001 -0.3665  0.1039
 8328TIP3    H149179   2.519   6.242   1.088 -0.8672 -0.7844  1.3912
 8328TIP3    H249180   2.399   6.150   1.073 -0.1106 -1.4878 -0.6479
 8329TIP3   OH249181   1.913   2.367   8.595  0.0242 -0.6856  0.1262
 8329TIP3    H149182   1.938   2.275   8.591  0.6629 -0.5082 -0.2969
 8329TIP3    H249183   1.919   2.390   8.687 -1.0008 -1.2840  0.3568
 8330TIP3   OH249184   0.618   7.160   9.144 -0.0783  0.3125  0.0485
 8330TIP3    H149185   0.598   7.244   9.185 -0.9712  0.4300 -0.5805
 8330TIP3    H249186   0.636   7.100   9.216 -0.5722  0.7686  0.5522
 8331TIP3   OH249187   0.077   1.914   8.403  0.4157  0.5355 -0.3163
 8331TIP3    H149188   0.156   1.945   8.359  1.3865  1.6702  2.0312
 8331TIP3    H249189   0.092   1.933   8.496 -1.8095 -1.0130  0.4550
 8332TIP3   OH249190   0.386   5.576   7.011 -0.2854  0.5727 -0.2162
 8332TIP3    H149191   0.452   5.572   6.941 -1.8799  0.3716 -1.7925
 8332TIP3    H249192   0.410   5.506   7.071  0.7253  0.2870 -0.9234
 8333TIP3   OH249193   6.026   6.970   8.146  0.3510 -0.5366  0.1924
 8333TIP3    H149194   6.011   6.882   8.111  3.0788 -1.4613  1.1459
 8333TIP3    H249195   6.099   7.004   8.094 -0.2806  0.9639  0.2388
 8334TIP3   OH249196   1.959   4.351   8.075  0.4216 -0.0653 -0.3702
 8334TIP3    H149197   1.980   4.345   7.982  0.9807 -3.0651 -0.1655
 8334TIP3    H249198   1.911   4.270   8.094 -1.9602  1.6392  1.4661
 8335TIP3   OH249199   4.388   1.925   1.193  0.1588 -0.2651 -1.1742
 8335TIP3    H149200   4.381   1.830   1.195  0.4795 -0.2742  0.4526
 8335TIP3    H249201   4.304   1.957   1.227  0.6539 -0.0218 -0.1322
 8336TIP3   OH249202   3.143   6.578   1.537 -0.1770  0.5671  0.1978
 8336TIP3    H149203   3.108   6.535   1.614 -0.9288  1.2472  0.2552
 8336TIP3    H249204   3.184   6.508   1.486 -3.0433 -0.6538 -0.6885
 8337TIP3   OH249205   3.986   6.721   9.819  0.1761  0.0790 -0.7983
 8337TIP3    H149206   3.938   6.744   9.898 -0.3233 -1.2807 -0.6915
 8337TIP3    H249207   3.930   6.750   9.747 -0.0933 -0.1137 -0.6660
 8338TIP3   OH249208   7.306   7.160   1.330  0.1020 -0.3938 -0.6396
 8338TIP3    H149209   7.270   7.071   1.323  0.5220 -0.6094 -0.0818
 8338TIP3    H249210   7.377   7.152   1.393 -0.9727  0.7068  0.7423
 8339TIP3   OH249211   5.198   1.948   8.129 -0.3134  0.2206  0.1525
 8339TIP3    H149212   5.281   1.926   8.170  0.2808  0.4484 -0.8950
 8339TIP3    H249213   5.149   1.866   8.127 -1.0082  0.4869  2.6899
 8340TIP3   OH249214   0.005   6.161   1.788 -0.0787  0.2168 -0.8333
 8340TIP3    H149215   0.071   6.219   1.749 -1.7905  2.2887 -0.8763
 8340TIP3    H249216  -0.041   6.217   1.850 -1.2113 -1.4174 -0.1439
 8341TIP3   OH249217   7.177   5.228   0.302  0.3630 -0.4493 -0.2296
 8341TIP3    H149218   7.229   5.148   0.296  1.0153 -0.0559  0.0285
 8341TIP3    H249219   7.091   5.199   0.331  0.0759 -1.2540 -1.7958
 8342TIP3   OH249220   0.528   2.740   7.100 -0.4258  0.2939  0.4709
 8342TIP3    H149221   0.461   2.680   7.067  0.5634  0.2023 -1.5379
 8342TIP3    H249222   0.481   2.823   7.114 -0.7296  0.7405 -2.5495
 8343TIP3   OH249223   5.851   3.024   0.133  0.1871 -0.2213 -0.6368
 8343TIP3    H149224   5.830   2.974   0.211  1.1127  0.8544  0.3281
 8343TIP3    H249225   5.823   3.113   0.152 -0.0318 -0.0301 -1.7361
 8344TIP3   OH249226   1.193   2.571   0.799 -0.4635 -0.2937  0.1796
 8344TIP3    H149227   1.147   2.519   0.865 -3.7875  0.2305 -1.4941
 8344TIP3    H249228   1.190   2.517   0.720  1.6538 -0.0770 -0.1140
 8345TIP3   OH249229   1.926   6.322   8.415  0.0843 -0.1612  0.3306
 8345TIP3    H149230   1.998   6.298   8.358  0.1727  1.0386 -0.1046
 8345TIP3    H249231   1.935   6.417   8.427 -0.8619 -0.1356  1.0387
 8346TIP3   OH249232   5.401   0.653   9.161  0.4549  0.0354 -0.1761
 8346TIP3    H149233   5.419   0.576   9.215  0.4659  0.4029  0.3524
 8346TIP3    H249234   5.471   0.715   9.184 -0.3406  0.7252  0.4264
 8347TIP3   OH249235   2.052   5.401   8.825 -0.1342  0.2086 -0.5851
 8347TIP3    H149236   2.028   5.387   8.916 -2.2705 -0.8745 -1.2611
 8347TIP3    H249237   2.045   5.315   8.784 -0.1997  0.8518 -1.9987
 8348TIP3   OH249238   1.943   2.985   2.369 -0.3439  0.1764  0.3625
 8348TIP3    H149239   1.896   2.954   2.446  1.0202 -0.0834  1.1120
 8348TIP3    H249240   1.936   2.913   2.307  0.6438 -0.6329  1.1620
 8349TIP3   OH249241   2.659   1.487   0.667 -0.4187 -0.4396 -0.0956
 8349TIP3    H149242   2.673   1.579   0.692 -1.0103  0.4076 -2.6205
 8349TIP3    H249243   2.734   1.466   0.611 -1.2428 -0.8657 -1.0603
 8350TIP3   OH249244   2.513   3.635   7.876  0.4264 -0.5078 -0.3027
 8350TIP3    H149245   2.478   3.610   7.962  0.8900 -0.2298 -0.0282
 8350TIP3    H249246   2.605   3.658   7.893  0.1292  0.9867 -0.6211
 8351TIP3   OH249247   2.170   2.107   9.628 -0.2482 -0.2216  0.5471
 8351TIP3    H149248   2.219   2.189   9.617 -0.5703 -0.2094 -0.9917
 8351TIP3    H249249   2.221   2.042   9.579 -1.4866 -0.3048 -0.6889
 8352TIP3   OH249250   4.521   4.895   8.914  0.3454 -0.2959 -0.1120
 8352TIP3    H149251   4.593   4.932   8.863 -0.0548  0.3262 -0.2448
 8352TIP3    H249252   4.449   4.887   8.851 -0.1441  0.4449  0.3377
 8353TIP3   OH249253   4.698   1.419   0.611 -0.4868 -0.6875  0.0324
 8353TIP3    H149254   4.771   1.472   0.579 -0.8960  0.5348  1.0536
 8353TIP3    H249255   4.623   1.446   0.558 -0.4026 -1.3340 -0.4391
 8354TIP3   OH249256   3.451   5.988   7.201 -0.2942 -0.1601 -0.3118
 8354TIP3    H149257   3.387   5.933   7.157 -2.4800  0.6192  1.6339
 8354TIP3    H249258   3.506   5.927   7.251 -1.5543 -0.7077  0.4409
 8355TIP3   OH249259   0.067   5.070   7.219 -0.0081 -0.3459  0.5030
 8355TIP3    H149260   0.082   5.043   7.128  1.9599  1.1318  0.3007
 8355TIP3    H249261   0.048   4.989   7.266  0.7847 -1.3941 -0.9044
 8356TIP3   OH249262   3.188   0.178   2.462  0.2217 -0.6275  0.0616
 8356TIP3    H149263   3.212   0.265   2.491 -0.8748  0.1249 -1.1796
 8356TIP3    H249264   3.092   0.178   2.464  0.1967 -1.5636 -0.6259
 8357TIP3   OH249265   3.357   6.126   2.797  0.0438 -0.3895  0.7146
 8357TIP3    H149266   3.396   6.069   2.863  1.5174 -0.7386 -0.3986
 8357TIP3    H249267   3.293   6.070   2.752  1.7658 -1.3823 -0.6438
 8358TIP3   OH249268   3.226   3.589   1.728 -0.1578  0.2166 -0.1772
 8358TIP3    H149269   3.266   3.633   1.653  0.1145  1.0830  0.4544
 8358TIP3    H249270   3.280   3.512   1.743  1.0904  1.1817  0.4448
 8359TIP3   OH249271   3.074   4.727   8.873  0.9838  0.1278  0.3183
 8359TIP3    H149272   3.107   4.655   8.819  1.1548  0.5266 -0.1156
 8359TIP3    H249273   3.094   4.700   8.963  1.3028 -0.2365  0.1422
 8360TIP3   OH249274   2.854   5.398   2.794  0.6630  0.7319 -0.2321
 8360TIP3    H149275   2.883   5.329   2.854 -1.4053  0.6225  0.6988
 8360TIP3    H249276   2.759   5.389   2.790  0.6954  0.5840 -3.7497
 8361TIP3   OH249277   0.686   3.317   0.098 -0.9745 -0.0646 -0.3918
 8361TIP3    H149278   0.746   3.254   0.137  1.1539  2.6562  1.1215
 8361TIP3    H249279   0.743   3.384   0.060 -3.0900  0.6067 -2.6378
 8362TIP3   OH249280   1.852   4.225   9.626  0.1116  0.1158  0.8674
 8362TIP3    H149281   1.797   4.233   9.548 -0.8645  0.8124  1.6075
 8362TIP3    H249282   1.851   4.131   9.646  0.3877 -0.0780  0.0497
 8363TIP3   OH249283   2.193   3.936   9.640 -0.2117  0.0597 -0.0192
 8363TIP3    H149284   2.278   3.941   9.596 -0.0800  0.2729  0.2576
 8363TIP3    H249285   2.198   4.003   9.708 -0.8251  0.4935 -0.3917
 8364TIP3   OH249286   3.020   2.147   1.098  0.1355 -0.5463 -0.6387
 8364TIP3    H149287   3.036   2.180   1.186  1.3240 -0.9053 -0.7000
 8364TIP3    H249288   2.965   2.069   1.111 -1.9264  0.8552 -0.4361
 8365TIP3   OH249289   0.116   4.597   1.140  0.6308  0.5181 -0.2470
 8365TIP3    H149290   0.196   4.587   1.089  0.6574  0.1695 -0.1408
 8365TIP3    H249291   0.089   4.507   1.160 -1.0275  0.4760 -2.2365
 8366TIP3   OH249292   5.969   7.340   8.549 -0.3302 -0.0203  0.3953
 8366TIP3    H149293   6.006   7.284   8.481 -1.6742 -1.1973  0.5765
 8366TIP3    H249294   5.958   7.282   8.625  1.9136  1.4475  1.9600
 8367TIP3   OH249295   0.234   5.145   9.710  0.2358  0.2581 -0.2516
 8367TIP3    H149296   0.273   5.222   9.751  0.5804  0.4829 -0.9724
 8367TIP3    H249297   0.140   5.162   9.709  0.1235 -0.1839  1.2999
 8368TIP3   OH249298   2.960   5.008   1.191  0.6261 -0.1612 -0.6509
 8368TIP3    H149299   3.054   4.993   1.182  0.6105  0.2198 -1.5862
 8368TIP3    H249300   2.941   5.075   1.126 -0.0130  0.9462  0.6344
 8369TIP3   OH249301   3.967   5.389   1.285  0.2562  0.2803 -0.1957
 8369TIP3    H149302   4.020   5.373   1.363  0.1128 -1.4078 -0.4014
 8369TIP3    H249303   4.020   5.449   1.232  1.6449 -0.7621 -0.0581
 8370TIP3   OH249304   2.576   3.684   2.426  0.1843  0.0213 -0.2911
 8370TIP3    H149305   2.566   3.719   2.515  2.1291 -1.2307  0.4922
 8370TIP3    H249306   2.544   3.594   2.431  1.3942 -0.4410 -0.5253
 8371TIP3   OH249307   5.907   4.311   9.770 -0.1379  0.3775  0.3521
 8371TIP3    H149308   5.903   4.388   9.712 -0.5253 -1.0897 -1.6969
 8371TIP3    H249309   5.898   4.347   9.858  0.3424  2.7336 -0.4747
 8372TIP3   OH249310   3.119   5.622   0.596 -0.1880 -0.5442 -0.2755
 8372TIP3    H149311   3.095   5.704   0.638  2.4675  0.6978 -0.9466
 8372TIP3    H249312   3.131   5.560   0.669 -0.2328  0.2386  0.4064
 8373TIP3   OH249313   1.813   6.452   2.038  0.7503 -0.2974 -0.0763
 8373TIP3    H149314   1.865   6.388   1.989  2.9375  1.0387  0.3724
 8373TIP3    H249315   1.877   6.504   2.085 -0.9248  2.2678 -0.4264
 8374TIP3   OH249316   4.113   7.361   8.323  0.3427 -0.5219 -0.6807
 8374TIP3    H149317   4.078   7.406   8.246 -0.2520  0.3759  0.0872
 8374TIP3    H249318   4.037   7.350   8.381  0.5325 -2.2697 -0.7084
 8375TIP3   OH249319   1.432   3.920   8.498  0.0799 -0.4275  0.6239
 8375TIP3    H149320   1.382   4.001   8.503  1.3147  0.3619  0.4679
 8375TIP3    H249321   1.502   3.930   8.563  0.7172 -1.0332  0.0553
 8376TIP3   OH249322   4.881   2.948   9.841  0.4698  0.2747  0.4175
 8376TIP3    H149323   4.796   2.905   9.834 -0.0596  1.2355  0.7443
 8376TIP3    H249324   4.921   2.912   9.920  1.3811 -1.8613 -0.9125
 8377TIP3   OH249325   5.654   3.428   8.620 -0.4070  0.1959  0.0259
 8377TIP3    H149326   5.574   3.385   8.651 -0.0605 -0.3723  0.1403
 8377TIP3    H249327   5.695   3.464   8.699  0.0708 -0.5670  0.1297
 8378TIP3   OH249328   0.746   4.564   7.215  0.1511 -0.0371 -0.0640
 8378TIP3    H149329   0.814   4.614   7.260  0.5581 -0.2487 -0.4400
 8378TIP3    H249330   0.753   4.476   7.252 -0.0785 -0.0027  0.0660
 8379TIP3   OH249331   7.338   1.787   9.251 -0.1589  0.3734 -0.0542
 8379TIP3    H149332   7.334   1.714   9.312  0.7921  0.8828  0.6462
 8379TIP3    H249333   7.262   1.775   9.194 -0.5617 -0.6096  0.6615
 8380TIP3   OH249334   3.353   3.299   8.157  0.6818  1.0212  0.1368
 8380TIP3    H149335   3.341   3.287   8.063  1.0996  0.6030  0.1329
 8380TIP3    H249336   3.445   3.326   8.165  0.6334  1.1016  0.4225
 8381TIP3   OH249337   3.328   5.835   2.746  0.4804  0.5695  0.2129
 8381TIP3    H149338   3.280   5.756   2.770 -1.9968  2.3263  1.5345
 8381TIP3    H249339   3.393   5.846   2.816  1.2887 -0.6174 -0.3364
 8382TIP3   OH249340   0.498   3.866   8.580 -0.6671  0.0938 -0.9392
 8382TIP3    H149341   0.569   3.869   8.516 -0.1199 -0.7363 -0.3902
 8382TIP3    H249342   0.531   3.810   8.651 -1.3676  0.7573 -0.0623
 8383TIP3   OH249343   5.555   4.464   8.225  0.0086 -0.7297 -0.1787
 8383TIP3    H149344   5.573   4.432   8.137  0.5126 -0.9502 -0.0021
 8383TIP3    H249345   5.605   4.545   8.232  0.8837 -1.2939  0.2829
 8384TIP3   OH249346   0.581   6.624   7.415  0.5619  0.1350 -0.6166
 8384TIP3    H149347   0.596   6.532   7.397 -0.4405 -0.2141  0.2564
 8384TIP3    H249348   0.489   6.629   7.444  1.4149  0.9281  2.2900
 8385TIP3   OH249349   4.546   0.495   0.526  0.0885  0.3289  0.1994
 8385TIP3    H149350   4.556   0.459   0.615  0.5663 -0.1027 -0.0195
 8385TIP3    H249351   4.481   0.438   0.485 -1.2867  1.4560  0.7450
 8386TIP3   OH249352   2.566   5.686   9.376  0.2948  0.1557  0.6090
 8386TIP3    H149353   2.496   5.750   9.386  1.6177  1.7350  0.0973
 8386TIP3    H249354   2.560   5.658   9.284  0.7964  0.8959  0.3365
 8387TIP3   OH249355   5.848   2.352   1.354 -0.0663  0.4836 -0.5404
 8387TIP3    H149356   5.823   2.393   1.272 -1.6565 -0.2688 -0.4695
 8387TIP3    H249357   5.789   2.277   1.363  0.8083 -0.1011  0.7505
 8388TIP3   OH249358   3.869   4.122   7.953  0.1537 -0.1386  0.2846
 8388TIP3    H149359   3.848   4.189   8.018 -0.1021 -0.6848  0.7646
 8388TIP3    H249360   3.813   4.143   7.878 -1.3838 -0.9792  1.1759
 8389TIP3   OH249361   2.690   4.917   6.867  0.8545 -0.1995  0.0175
 8389TIP3    H149362   2.692   5.012   6.883 -0.7414 -0.0135 -0.6350
 8389TIP3    H249363   2.658   4.909   6.777 -1.5104 -1.3588  0.8835
 8390TIP3   OH249364   7.140   2.503   7.519  0.4718 -0.4536 -0.2898
 8390TIP3    H149365   7.174   2.589   7.492 -1.0816  0.2787  0.0037
 8390TIP3    H249366   7.049   2.519   7.540  0.5479 -1.8873  1.2844
 8391TIP3   OH249367   3.103   6.074   9.496 -0.8753 -0.2410  0.1796
 8391TIP3    H149368   3.194   6.103   9.501 -0.9346 -0.0877  0.3719
 8391TIP3    H249369   3.064   6.103   9.578 -1.6184  1.4839 -0.7358
 8392TIP3   OH249370   2.420   5.882   0.764 -0.2346 -0.0649  0.1307
 8392TIP3    H149371   2.421   5.977   0.754 -1.1442 -0.0214  0.2848
 8392TIP3    H249372   2.452   5.848   0.680 -0.8912  0.3724 -0.3119
 8393TIP3   OH249373   1.698   6.721   8.656  0.3672 -0.8691 -0.4864
 8393TIP3    H149374   1.668   6.661   8.588 -0.2708 -0.7179 -0.3375
 8393TIP3    H249375   1.729   6.798   8.607  0.5977 -1.0580 -0.6421
 8394TIP3   OH249376   0.134   4.393   9.657 -0.7213 -0.2216  0.4457
 8394TIP3    H149377   0.167   4.379   9.746 -0.2801  0.0112  0.3250
 8394TIP3    H249378   0.131   4.488   9.647 -0.8423 -0.2458  0.2369
 8395TIP3   OH249379   4.283   0.894   0.533  0.0679 -0.2699 -0.0456
 8395TIP3    H149380   4.246   0.887   0.445 -0.8464  1.0174  0.1930
 8395TIP3    H249381   4.329   0.812   0.547  0.0733 -0.5695 -1.6526
 8396TIP3   OH249382   6.459   6.616   9.097  0.1925 -0.0727 -0.3673
 8396TIP3    H149383   6.480   6.576   9.013 -2.8417  0.9143 -1.7363
 8396TIP3    H249384   6.497   6.704   9.091  1.2511 -0.4935 -0.0505
 8397TIP3   OH249385   1.743   4.587   9.464 -0.0347  0.1798  0.1852
 8397TIP3    H149386   1.713   4.670   9.430  0.6586  0.4461  0.2004
 8397TIP3    H249387   1.668   4.552   9.513 -0.2082  0.9767  0.5084
 8398TIP3   OH249388   4.239   2.106   1.845 -0.4165  0.1586 -0.2659
 8398TIP3    H149389   4.143   2.106   1.843 -0.4507 -1.5610 -0.6444
 8398TIP3    H249390   4.261   2.071   1.932 -0.1682 -0.3793 -0.5381
 8399TIP3   OH249391   4.553   6.711   1.335 -0.0536  0.0413 -0.3521
 8399TIP3    H149392   4.593   6.640   1.385  1.4424  0.7043 -0.5592
 8399TIP3    H249393   4.479   6.670   1.290 -0.0677 -1.0592  0.6220
 8400TIP3   OH249394   0.521   1.676   8.192 -0.8225  0.0204 -0.2398
 8400TIP3    H149395   0.462   1.683   8.117 -1.9774  1.2131  0.7354
 8400TIP3    H249396   0.546   1.766   8.213  2.3527 -0.4821 -1.3166
 8401TIP3   OH249397   3.031   1.357   9.890  0.4689 -0.1796  0.1860
 8401TIP3    H149398   3.049   1.440   9.845  0.4865 -0.2834  0.0021
 8401TIP3    H249399   2.941   1.366   9.921 -1.4304 -1.9645 -4.0343
 8402TIP3   OH249400   4.119   1.135   9.977  0.0080  0.5966  0.6999
 8402TIP3    H149401   4.131   1.164  10.067  0.3256 -0.8911  1.1572
 8402TIP3    H249402   4.196   1.083   9.957  0.4160  1.6927 -0.7943
 8403TIP3   OH249403   2.933   6.199   3.309  0.7221  0.3574 -0.0688
 8403TIP3    H149404   2.920   6.201   3.214 -0.3666  0.6122  0.0675
 8403TIP3    H249405   2.969   6.112   3.326  0.3413  0.0716 -0.6573
 8404TIP3   OH249406   2.810   0.793   8.150 -0.0088  0.6997  0.6162
 8404TIP3    H149407   2.752   0.830   8.084 -1.3886 -0.1780  1.3045
 8404TIP3    H249408   2.879   0.750   8.100 -1.1882 -0.2074 -0.2894
 8405TIP3   OH249409   1.728   2.227   1.586  0.6351  0.2087 -0.5480
 8405TIP3    H149410   1.798   2.236   1.520 -0.7027 -0.7877 -2.1929
 8405TIP3    H249411   1.678   2.308   1.578 -0.5077 -0.5822 -2.0439
 8406TIP3   OH249412   5.996   7.302   9.208 -0.1247  0.1732 -0.5677
 8406TIP3    H149413   5.907   7.299   9.243  0.4010  0.7333  0.9106
 8406TIP3    H249414   5.988   7.267   9.119 -1.8516  0.4387 -0.5593
 8407TIP3   OH249415   5.057   6.162   0.425 -0.0202  0.1456  0.1876
 8407TIP3    H149416   5.019   6.249   0.418 -0.3129 -0.0125 -0.1746
 8407TIP3    H249417   4.985   6.107   0.456 -0.7572 -0.6031 -2.5602
 8408TIP3   OH249418   6.934   6.383   7.547 -0.2381  0.0952  0.2062
 8408TIP3    H149419   6.907   6.291   7.537  1.8038 -0.4763 -0.5982
 8408TIP3    H249420   6.957   6.392   7.639  0.8466 -0.6238  0.0250
 8409TIP3   OH249421   7.081   4.572   0.746 -0.1992 -0.7322  0.1152
 8409TIP3    H149422   7.100   4.479   0.762  2.1015 -0.1979  0.9546
 8409TIP3    H249423   7.154   4.602   0.691 -2.2011  0.0734 -2.2953
 8410TIP3   OH249424   6.891   0.954   1.724  0.2251  0.4862 -0.2933
 8410TIP3    H149425   6.900   1.004   1.643 -0.7229  0.1281 -0.6326
 8410TIP3    H249426   6.850   0.872   1.697 -0.3741  0.4813  0.5925
 8411TIP3   OH249427   0.699   7.168   0.817 -0.2814 -0.0200  0.0384
 8411TIP3    H149428   0.777   7.113   0.809  1.0646  1.7101  0.6516
 8411TIP3    H249429   0.641   7.118   0.875  0.3053 -1.3804 -0.5042
 8412TIP3   OH249430   1.134   4.155   0.778 -0.2139 -0.0106 -0.1745
 8412TIP3    H149431   1.071   4.088   0.808  0.7608 -0.5262  0.7789
 8412TIP3    H249432   1.093   4.238   0.802 -1.2825 -0.2578 -1.0573
 8413TIP3   OH249433   3.884   4.208   0.863 -0.0783  0.2126  0.4160
 8413TIP3    H149434   3.884   4.112   0.865  1.6548  0.1662 -0.0933
 8413TIP3    H249435   3.973   4.231   0.836 -1.4848  1.8804 -3.5957
 8414TIP3   OH249436   4.261   6.923   8.917  0.8696 -0.0502 -0.3235
 8414TIP3    H149437   4.287   6.833   8.897 -0.4872 -0.2530 -1.3265
 8414TIP3    H249438   4.308   6.944   8.998  1.2015 -1.6658 -0.0591
 8415TIP3   OH249439   6.094   5.136   1.559 -0.1039 -0.3542  0.2798
 8415TIP3    H149440   6.029   5.186   1.609 -1.6786 -1.0782 -0.9558
 8415TIP3    H249441   6.161   5.200   1.536  0.6465  0.0306  3.1767
 8416TIP3   OH249442   0.879   3.434   0.457 -0.1415  0.1281  0.1027
 8416TIP3    H149443   0.928   3.358   0.486 -0.0312 -0.0472 -0.5166
 8416TIP3    H249444   0.837   3.405   0.376  1.9759  1.4785 -1.5873
 8417TIP3   OH249445   4.842   1.013   8.316  0.1531 -0.2850  0.2891
 8417TIP3    H149446   4.824   1.038   8.407 -0.8114  0.2035 -0.0241
 8417TIP3    H249447   4.937   1.008   8.311  0.3125  1.6904  0.7963
 8418TIP3   OH249448   2.315   5.514   2.310 -0.2875  0.8997 -0.7816
 8418TIP3    H149449   2.353   5.591   2.267  0.4982  1.1376  0.2825
 8418TIP3    H249450   2.383   5.485   2.371 -1.3024  0.5004  0.1981
 8419TIP3   OH249451   0.050   4.329   1.257  0.3175 -0.0951  0.4708
 8419TIP3    H149452  -0.023   4.284   1.213 -0.1792 -0.6535  1.8059
 8419TIP3    H249453   0.063   4.280   1.338  1.7536  0.4080  0.5782
 8420TIP3   OH249454   0.164   4.643   8.363  0.4963 -0.1255  0.4105
 8420TIP3    H149455   0.212   4.654   8.281 -0.7001 -0.5018 -0.3667
 8420TIP3    H249456   0.158   4.548   8.374  2.9578 -0.1353  2.3637
 8421TIP3   OH249457   0.186   6.163   1.541 -0.4391  0.7277 -0.2474
 8421TIP3    H149458   0.212   6.098   1.607  0.7340  2.5668  1.1925
 8421TIP3    H249459   0.098   6.136   1.515 -0.3791 -0.8672  1.0130
 8422TIP3   OH249460   2.152   3.812   6.277  0.0935 -0.3094  0.4383
 8422TIP3    H149461   2.245   3.835   6.281  0.4527 -1.6691  0.1478
 8422TIP3    H249462   2.142   3.761   6.197 -1.2396  1.1733 -0.3976
 8423TIP3   OH249463   6.258   7.095   0.255  0.2793  0.2272 -0.0083
 8423TIP3    H149464   6.289   7.180   0.224  1.4812 -0.6455 -1.3618
 8423TIP3    H249465   6.170   7.112   0.288  0.6296  2.0547  0.0868
 8424TIP3   OH249466   1.999   3.764   0.631  0.5407  0.3489 -0.0283
 8424TIP3    H149467   2.093   3.773   0.646  0.5833 -0.2773  0.1318
 8424TIP3    H249468   1.987   3.670   0.617 -0.0299  0.4565 -0.2731
 8425TIP3   OH249469   5.673   4.628   8.759  0.1054 -0.3287  0.8472
 8425TIP3    H149470   5.609   4.567   8.722 -2.4187  1.0324  2.6170
 8425TIP3    H249471   5.688   4.597   8.848 -0.5022  1.0330  1.4611
 8426TIP3   OH249472   0.753   4.206   9.516  0.7006 -0.0759  0.2276
 8426TIP3    H149473   0.806   4.282   9.543  0.5857  0.1599 -0.1911
 8426TIP3    H249474   0.769   4.199   9.422  2.1365 -1.6849  0.5506
 8427TIP3   OH249475   1.117   4.084   2.144  0.3067 -0.3265  0.0652
 8427TIP3    H149476   1.144   4.092   2.236  0.3072 -0.1975  0.0536
 8427TIP3    H249477   1.157   4.001   2.115 -1.4951 -1.5124  0.8074
 8428TIP3   OH249478   3.442   3.929   9.633  0.4066  0.0574  0.3275
 8428TIP3    H149479   3.370   3.978   9.594  0.6022  0.2638  0.2196
 8428TIP3    H249480   3.403   3.847   9.663  0.0605  0.3122  0.5747
 8429TIP3   OH249481   2.452   4.863   1.272  0.5862 -0.6204 -0.1597
 8429TIP3    H149482   2.394   4.868   1.196 -0.0557 -2.6628  0.1204
 8429TIP3    H249483   2.526   4.919   1.250  1.2302 -2.3702 -3.0503
 8430TIP3   OH249484   5.835   3.180   2.138  0.0047  0.4037  0.3851
 8430TIP3    H149485   5.814   3.273   2.129  0.0517  0.2241 -2.4588
 8430TIP3    H249486   5.767   3.136   2.088  0.8004 -1.0135  0.5112
 8431TIP3   OH249487   7.034   6.922   1.962 -0.0729  0.2993 -0.0998
 8431TIP3    H149488   7.027   6.846   1.904 -0.2869  0.5907 -0.4618
 8431TIP3    H249489   7.038   6.885   2.050  0.1192 -0.1438 -0.2937
 8432TIP3   OH249490   4.332   2.504   9.133 -0.2929 -0.2452 -0.3633
 8432TIP3    H149491   4.356   2.547   9.051  1.3146  0.2037  0.3163
 8432TIP3    H249492   4.383   2.549   9.200  1.3426 -3.0611  0.4235
 8433TIP3   OH249493   1.026   2.099   1.040  0.0812  0.2283 -0.3567
 8433TIP3    H149494   0.966   2.029   1.067  0.9902  0.2750  2.0124
 8433TIP3    H249495   1.103   2.087   1.096  1.0256  2.0082 -1.2094
 8434TIP3   OH249496   4.985   4.905   9.600 -0.0462  0.0373  0.0639
 8434TIP3    H149497   4.962   4.877   9.689  0.3073  0.7579  0.3920
 8434TIP3    H249498   4.975   5.000   9.602 -3.0395 -0.1104 -1.5381
 8435TIP3   OH249499   5.858   2.281   9.838  0.3345  0.2837 -0.1837
 8435TIP3    H149500   5.819   2.319   9.759  0.8363  1.0262 -0.0808
 8435TIP3    H249501   5.943   2.248   9.810 -0.1416 -0.8804 -0.2953
 8436TIP3   OH249502   1.320   3.807   1.725 -0.4408 -0.3907 -0.4285
 8436TIP3    H149503   1.242   3.758   1.700 -2.1142  0.3282  2.7738
 8436TIP3    H249504   1.384   3.740   1.748 -1.7926 -1.1719  1.3335
 8437TIP3   OH249505   5.183   7.190   1.214 -0.0706 -0.3519 -0.2836
 8437TIP3    H149506   5.258   7.142   1.250 -0.4730  0.2792  1.5252
 8437TIP3    H249507   5.111   7.127   1.217 -0.3094 -0.0430  0.9135
 8438TIP3   OH249508   0.808   6.315   6.771 -0.5247  0.0256  0.2435
 8438TIP3    H149509   0.766   6.295   6.855 -1.1084 -1.6106 -0.3892
 8438TIP3    H249510   0.845   6.231   6.743  0.4333  0.7492 -0.7217
 8439TIP3   OH249511   3.021   5.215   2.942  0.3236  0.2879  0.6914
 8439TIP3    H149512   2.966   5.143   2.911  0.5214  0.2102  0.5213
 8439TIP3    H249513   3.104   5.173   2.965 -0.0834  0.1995  2.1122
 8440TIP3   OH249514   5.233   1.425   1.206 -0.3403  0.3361 -0.0623
 8440TIP3    H149515   5.236   1.436   1.111  1.6149 -0.7179 -0.1649
 8440TIP3    H249516   5.171   1.354   1.220  2.5587 -2.6114 -0.9813
 8441TIP3   OH249517   3.234   3.567   9.806  0.1636 -0.0069  0.1723
 8441TIP3    H149518   3.210   3.616   9.728  2.0286  1.4493  0.4552
 8441TIP3    H249519   3.232   3.475   9.778  1.3449  0.5017 -1.7873
 8442TIP3   OH249520   1.156   3.663   8.816  0.4040  0.0510  0.0577
 8442TIP3    H149521   1.094   3.654   8.888 -0.3608 -1.2678 -0.7229
 8442TIP3    H249522   1.153   3.578   8.771  2.5023  0.0674 -0.2313
 8443TIP3   OH249523   5.346   3.646   0.751  0.3441  0.0439 -0.1662
 8443TIP3    H149524   5.312   3.566   0.790 -1.2021  0.0620 -1.3823
 8443TIP3    H249525   5.374   3.699   0.825 -2.1609 -0.0567  0.9411
 8444TIP3   OH249526   2.964   3.514   0.592  0.1951  0.1037 -0.0176
 8444TIP3    H149527   3.052   3.490   0.562 -0.8917 -1.2260 -2.3949
 8444TIP3    H249528   2.907   3.445   0.558 -1.7712  0.7738  1.6859
 8445TIP3   OH249529   5.088   5.749   7.381  0.6758 -0.4209 -0.3331
 8445TIP3    H149530   5.177   5.767   7.413  0.2286 -1.9505  2.0332
 8445TIP3    H249531   5.097   5.671   7.327  0.9480  0.2423 -1.2681
 8446TIP3   OH249532   7.338   0.257   0.449 -0.4682  0.2215 -0.6101
 8446TIP3    H149533   7.310   0.344   0.477  1.2789  1.0122 -1.2156
 8446TIP3    H249534   7.326   0.202   0.526 -0.9318  1.1402 -0.0061
 8447TIP3   OH249535   5.056   2.304   8.558  0.1178  0.0651 -0.2202
 8447TIP3    H149536   5.089   2.216   8.541 -1.5465 -1.2083  2.5076
 8447TIP3    H249537   5.110   2.336   8.630 -0.7577  0.3141  0.3397
 8448TIP3   OH249538   3.014   0.098   1.858  0.0050  0.0349 -0.1926
 8448TIP3    H149539   2.961   0.175   1.881  0.4960  1.0276 -2.1492
 8448TIP3    H249540   2.957   0.045   1.802  0.4536  0.1764 -0.7874
 8449TIP3   OH249541   5.531   0.100   7.745 -0.5293  0.0492 -0.1632
 8449TIP3    H149542   5.463   0.041   7.779  0.0543  0.9556  2.8534
 8449TIP3    H249543   5.607   0.044   7.729 -1.0497 -0.5067 -0.7808
 8450TIP3   OH249544   2.282   5.904   0.323  0.4198  0.1601  0.4013
 8450TIP3    H149545   2.269   5.998   0.336  0.9208  0.1288  1.1662
 8450TIP3    H249546   2.216   5.863   0.380  0.0723  0.0471 -0.0789
 8451TIP3   OH249547   1.547   2.248   9.275  0.7313 -0.0196  0.2947
 8451TIP3    H149548   1.599   2.299   9.213 -0.9737  1.1169 -0.2544
 8451TIP3    H249549   1.516   2.173   9.224  0.2138  0.3461  0.0704
 8452TIP3   OH249550   7.421   7.341   2.332  0.2798  0.4699 -0.2997
 8452TIP3    H149551   7.418   7.434   2.311  0.0841  1.0322  1.9456
 8452TIP3    H249552   7.329   7.315   2.337  0.2788 -0.5904 -3.5402
 8453TIP3   OH249553   4.008   4.858   0.581  0.1853  0.0573  0.1718
 8453TIP3    H149554   4.071   4.787   0.593  0.0746  0.0556  0.7506
 8453TIP3    H249555   3.948   4.825   0.514  0.8998  0.1328 -0.5258
 8454TIP3   OH249556   5.540   4.260   0.280  0.6503  0.0452  0.0604
 8454TIP3    H149557   5.506   4.285   0.194  0.4269  1.0182  0.4232
 8454TIP3    H249558   5.564   4.343   0.322 -1.3419 -0.1896  1.8276
 8455TIP3   OH249559   7.286   3.570   9.955 -0.2882  0.0035 -0.1669
 8455TIP3    H149560   7.283   3.665   9.968  0.6675 -0.1800  1.8117
 8455TIP3    H249561   7.222   3.535  10.017 -0.6483 -0.6740 -0.8918
 8456TIP3   OH249562   6.232   3.212   1.825 -0.1904 -0.2519 -0.2904
 8456TIP3    H149563   6.182   3.263   1.888 -0.9660  0.6742 -1.5879
 8456TIP3    H249564   6.226   3.122   1.856  1.2713  0.4074  2.0953
 8457TIP3   OH249565   1.820   0.299   2.019 -0.3525  0.3313  0.0421
 8457TIP3    H149566   1.755   0.304   1.949 -0.4415 -2.0224 -0.1016
 8457TIP3    H249567   1.771   0.317   2.099 -0.8284  0.2133 -0.2239
 8458TIP3   OH249568   5.895   1.003   0.444 -0.2334  0.0537 -0.1422
 8458TIP3    H149569   5.844   1.014   0.524  0.2170  1.6327 -0.0478
 8458TIP3    H249570   5.841   0.947   0.388 -1.6055  0.8425  0.3581
 8459TIP3   OH249571   4.842   3.615   9.984  0.6357 -0.1050  0.5925
 8459TIP3    H149572   4.788   3.549   9.940  0.9886 -0.1030  0.1436
 8459TIP3    H249573   4.785   3.692   9.989  0.8017  0.1139 -0.4919
 8460TIP3   OH249574   3.075   6.435   1.755  0.2122  0.0185 -0.0828
 8460TIP3    H149575   3.158   6.397   1.785 -0.5779 -1.2054  0.6198
 8460TIP3    H249576   3.026   6.361   1.719 -0.3510  0.8368 -1.0500
 8461TIP3   OH249577   3.844   6.088   9.829  0.0222 -0.0854 -0.4821
 8461TIP3    H149578   3.754   6.092   9.797  0.4720 -2.9218 -2.4768
 8461TIP3    H249579   3.898   6.116   9.756  0.8460 -0.4501 -0.0340
 8462TIP3   OH249580   1.711   6.950   2.492 -1.1245 -0.3395 -0.1214
 8462TIP3    H149581   1.617   6.962   2.509 -1.0398 -0.1295  0.2067
 8462TIP3    H249582   1.724   6.855   2.499 -1.0404 -0.2438  1.3336
 8463TIP3   OH249583   0.263   1.304   0.518 -0.3877 -0.0964 -0.8998
 8463TIP3    H149584   0.250   1.354   0.438 -1.5747 -0.1765 -0.7857
 8463TIP3    H249585   0.251   1.368   0.588 -1.3553 -0.4050 -0.7650
 8464TIP3   OH249586   2.812   2.438   7.749  0.2388 -0.0676  0.0749
 8464TIP3    H149587   2.819   2.357   7.800 -1.0441 -0.6412 -0.6029
 8464TIP3    H249588   2.839   2.413   7.660  1.8835  0.7784  0.3049
 8465TIP3   OH249589   1.421   5.778   7.025 -0.7263 -0.2200  0.4400
 8465TIP3    H149590   1.358   5.821   6.968  1.1202  1.0845 -0.7334
 8465TIP3    H249591   1.504   5.783   6.977  0.3903 -1.3399  2.1558
 8466TIP3   OH249592   7.070   2.499   0.425 -0.3801  0.0452 -0.1972
 8466TIP3    H149593   7.072   2.524   0.332 -1.6553 -0.9073 -0.5072
 8466TIP3    H249594   7.038   2.409   0.425  2.7587 -1.2348  0.9593
 8467TIP3   OH249595   3.103   2.938   9.946  0.0763  0.2667 -0.2215
 8467TIP3    H149596   3.032   3.003   9.948  0.6231  0.8910 -0.6683
 8467TIP3    H249597   3.094   2.891  10.029  1.2452  2.6170  1.3585
 8468TIP3   OH249598   2.917   4.406   1.544 -0.5162  0.0649 -0.4762
 8468TIP3    H149599   2.847   4.378   1.603 -2.1549 -0.2792 -2.4689
 8468TIP3    H249600   2.944   4.492   1.578  0.0778 -0.9975  1.9318
 8469TIP3   OH249601   3.858   7.061   8.277 -0.2582 -0.0442  0.0290
 8469TIP3    H149602   3.826   6.983   8.232  0.3094  0.2702 -0.9543
 8469TIP3    H249603   3.952   7.047   8.285 -0.2293  0.2992  0.3328
 8470TIP3   OH249604   4.471   2.852   8.056 -0.3711 -0.0592  0.0844
 8470TIP3    H149605   4.507   2.864   7.968  1.9821  1.1199  1.1098
 8470TIP3    H249606   4.427   2.934   8.076  0.1510  0.1368  0.4446
 8471TIP3   OH249607   5.126   2.264   0.634 -0.0049 -0.1470  0.1500
 8471TIP3    H149608   5.096   2.204   0.566 -2.0809  1.9989 -0.9768
 8471TIP3    H249609   5.046   2.292   0.678  1.1248  0.0888  2.1355
 8472TIP3   OH249610   1.932   4.674   7.446  0.2743  0.6873 -0.3473
 8472TIP3    H149611   1.912   4.698   7.355 -0.2967  2.3496  0.1837
 8472TIP3    H249612   1.923   4.578   7.447  0.6063  0.5906 -2.0980
 8473TIP3   OH249613   2.019   0.826   2.646  0.1689 -0.1734  0.1034
 8473TIP3    H149614   2.049   0.915   2.665  0.0023 -0.2861  0.9521
 8473TIP3    H249615   2.100   0.776   2.633  0.2426  0.2901 -1.3450
 8474TIP3   OH249616   0.029   6.359   0.507 -0.5227  0.3161  0.3414
 8474TIP3    H149617   0.091   6.377   0.436  0.8743 -1.4050  1.0433
 8474TIP3    H249618   0.013   6.445   0.546  0.0836  1.0411 -0.9303
 8475TIP3   OH249619   3.210   3.196   2.256  0.0431  0.3613 -0.4152
 8475TIP3    H149620   3.293   3.163   2.292  0.0067  2.2939  1.6367
 8475TIP3    H249621   3.144   3.135   2.288  0.2573  0.9542  1.2373
 8476TIP3   OH249622   3.981   6.674   1.913 -0.0448  0.0347  0.1640
 8476TIP3    H149623   4.024   6.739   1.970  0.8853 -1.8610  1.7286
 8476TIP3    H249624   3.959   6.602   1.972 -1.1090 -1.0688 -1.5158
 8477TIP3   OH249625   3.521   6.769   9.471  0.6464 -0.2037 -0.2813
 8477TIP3    H149626   3.463   6.773   9.395  1.8774 -0.9516 -1.3017
 8477TIP3    H249627   3.603   6.733   9.437  0.6409 -2.4006  1.7802
 8478TIP3   OH249628   1.169   5.090   9.209  0.0410 -0.6139 -0.3253
 8478TIP3    H149629   1.161   5.108   9.116  0.5777  0.8269 -0.1188
 8478TIP3    H249630   1.184   4.996   9.214 -2.1418 -1.0739 -1.5427
 8479TIP3   OH249631   2.381   7.031   1.038 -0.2926 -0.2305  0.2276
 8479TIP3    H149632   2.368   6.950   0.988 -1.2276  0.7506 -1.1759
 8479TIP3    H249633   2.317   7.092   1.003  0.4994  1.1952  1.1479
 8480TIP3   OH249634   2.147   0.563   7.883  0.0907  0.0443 -0.0202
 8480TIP3    H149635   2.133   0.657   7.870 -0.2930 -0.1269 -0.9612
 8480TIP3    H249636   2.137   0.550   7.977 -2.2378  0.5947 -0.1220
 8481TIP3   OH249637   2.994   7.241   0.981 -0.0365 -0.0645  0.3474
 8481TIP3    H149638   2.965   7.315   1.035  1.2782  0.4947  0.3290
 8481TIP3    H249639   2.914   7.193   0.961 -0.9668  1.4524  0.2241
 8482TIP3   OH249640   0.804   2.292   7.126 -0.1732  0.0099 -0.1152
 8482TIP3    H149641   0.832   2.320   7.038  0.8692 -2.0965 -0.5139
 8482TIP3    H249642   0.864   2.337   7.185 -0.1750  0.5899 -0.5451
 8483TIP3   OH249643   7.425   3.197   9.530  0.6277 -0.0547 -0.0140
 8483TIP3    H149644   7.338   3.233   9.549  0.5885  0.0019 -0.2932
 8483TIP3    H249645   7.464   3.181   9.616  1.1015  1.7364  0.1518
 8484TIP3   OH249646   0.033   0.956   1.935 -0.2280 -0.2411  0.2936
 8484TIP3    H149647   0.051   0.994   2.021  0.7388  2.6755 -1.0617
 8484TIP3    H249648  -0.062   0.960   1.927 -0.2209  1.1855  0.5837
 8485TIP3   OH249649   2.551   1.457   1.461 -0.4215  0.2605  0.6977
 8485TIP3    H149650   2.621   1.459   1.526 -0.8097  2.2339  1.1245
 8485TIP3    H249651   2.470   1.469   1.511 -1.0660 -1.5692  0.1633
 8486TIP3   OH249652   2.633   2.104   0.945  0.3090  0.1804  0.0789
 8486TIP3    H149653   2.566   2.045   0.909  0.1338 -0.0835  0.8104
 8486TIP3    H249654   2.705   2.099   0.883 -0.8499  1.5045 -1.4333
 8487TIP3   OH249655   7.283   6.597   8.689  0.2336  0.2593 -0.7892
 8487TIP3    H149656   7.327   6.573   8.607  0.6961  1.2927 -0.8486
 8487TIP3    H249657   7.332   6.550   8.757  0.0197 -0.3811 -1.0602
 8488TIP3   OH249658   0.538   4.978   1.664 -0.2323  0.3194  0.0396
 8488TIP3    H149659   0.478   4.945   1.598 -0.0516 -1.1949  0.5940
 8488TIP3    H249660   0.585   5.049   1.621 -0.3297 -0.4359 -1.3510
 8489TIP3   OH249661   0.939   2.138   2.873  0.1504 -0.0777 -0.0499
 8489TIP3    H149662   0.973   2.120   2.785 -0.2782 -1.3242  0.0233
 8489TIP3    H249663   1.004   2.198   2.911  0.6105  0.0730 -1.0190
 8490TIP3   OH249664   4.740   0.027   7.190 -0.3232  0.5984  0.6318
 8490TIP3    H149665   4.662   0.048   7.242 -1.9619  0.3631 -1.5690
 8490TIP3    H249666   4.721   0.062   7.104 -0.1293 -3.5349 -1.3432
 8491TIP3   OH249667   4.112   3.751   1.496  0.1099 -0.0567 -0.2309
 8491TIP3    H149668   4.121   3.845   1.479  0.6608 -0.1631 -0.5957
 8491TIP3    H249669   4.070   3.716   1.417 -2.3660  0.2212  0.8960
 8492TIP3   OH249670   3.727   1.091   2.610 -0.4339  0.4958 -0.7190
 8492TIP3    H149671   3.722   1.149   2.686  0.2243 -0.5562  0.1489
 8492TIP3    H249672   3.670   1.018   2.632 -1.5908  0.9719 -1.9849
 8493TIP3   OH249673   6.235   4.066   9.994 -0.1379  0.0208  0.3047
 8493TIP3    H149674   6.191   4.102  10.072  2.1346  2.0186  0.7847
 8493TIP3    H249675   6.239   3.972  10.010 -2.1910  0.0188  1.2330
 8494TIP3   OH249676   6.344   0.961   9.168  0.3897 -0.4161 -0.3206
 8494TIP3    H149677   6.439   0.952   9.166  0.4765  0.0470  0.7924
 8494TIP3    H249678   6.326   1.010   9.249 -0.8130 -0.7970 -0.3315
 8495TIP3   OH249679   3.395   2.589   1.458  0.8878  0.0977  0.0236
 8495TIP3    H149680   3.467   2.643   1.423 -0.0286  1.7336  0.5206
 8495TIP3    H249681   3.348   2.649   1.517  0.2847 -1.5198  1.2462
 8496TIP3   OH249682   6.588   5.191   2.125 -0.3024  0.6445 -0.4264
 8496TIP3    H149683   6.670   5.240   2.114 -0.2946  0.8065  0.2891
 8496TIP3    H249684   6.541   5.204   2.043 -0.2136  1.6945 -0.3263
 8497TIP3   OH249685   0.006   7.389   8.476  0.1720  0.3625  0.0428
 8497TIP3    H149686  -0.005   7.379   8.381  0.9117  0.3360 -0.0444
 8497TIP3    H249687   0.091   7.350   8.495  0.2405  0.7872  0.6504
 8498TIP3   OH249688   1.399   3.388   1.302 -0.4725  0.5942  0.6624
 8498TIP3    H149689   1.447   3.443   1.239  0.4648 -1.6243 -0.6716
 8498TIP3    H249690   1.459   3.315   1.321 -2.3780 -0.9969  0.8335
 8499TIP3   OH249691   4.925   0.236   0.857 -0.5229  0.6521  0.7665
 8499TIP3    H149692   4.836   0.252   0.887 -0.6748 -0.4998  0.9638
 8499TIP3    H249693   4.924   0.147   0.822  0.1053  1.2749 -0.9857
 8500TIP3   OH249694   6.042   1.235   9.863 -0.2001  0.0224  0.1789
 8500TIP3    H149695   6.083   1.315   9.830 -0.0058  0.3346  1.1651
 8500TIP3    H249696   6.012   1.257   9.951 -0.7606 -0.7885  0.2043
 8501TIP3   OH249697   0.418   6.035   1.846 -0.4736  0.4307  0.0487
 8501TIP3    H149698   0.391   5.987   1.925  0.4918  1.8104  1.2836
 8501TIP3    H249699   0.425   6.126   1.875  0.4338  0.8923 -1.5048
 8502TIP3   OH249700   2.915   6.285   0.464  0.1905  0.2637 -0.0671
 8502TIP3    H149701   2.986   6.253   0.409  0.3218 -0.5180  0.5442
 8502TIP3    H249702   2.837   6.240   0.431  0.1858  0.1834  0.0520
 8503TIP3   OH249703   2.076   3.739   7.329  0.2787 -0.0127  0.0292
 8503TIP3    H149704   2.125   3.774   7.255  0.2619 -0.2421 -0.0903
 8503TIP3    H249705   2.008   3.804   7.346  0.9071  0.5445  0.4937
 8504TIP3   OH249706   4.212   3.800   2.025 -0.1783  0.1542  0.0690
 8504TIP3    H149707   4.304   3.825   2.018  0.1691 -1.4757 -2.1002
 8504TIP3    H249708   4.164   3.882   2.008  0.8724  0.7283 -0.2372
 8505TIP3   OH249709   0.439   4.508   9.270 -0.4057 -0.0428  0.2782
 8505TIP3    H149710   0.359   4.559   9.259 -0.3528 -0.2498 -1.2065
 8505TIP3    H249711   0.431   4.470   9.357 -1.2416  1.1027  0.7274
 8506TIP3   OH249712   4.002   1.547   7.969  0.1360 -0.0718  0.5897
 8506TIP3    H149713   4.066   1.618   7.966  0.5134 -0.2959  2.1362
 8506TIP3    H249714   3.932   1.580   8.026 -0.0205 -0.6583  0.7494
 8507TIP3   OH249715   0.036   0.004   1.268  0.8405  0.1511  0.2110
 8507TIP3    H149716   0.044   0.007   1.173  1.4825 -1.5159  0.1824
 8507TIP3    H249717   0.106  -0.055   1.296  1.3997  1.5112  1.8342
 8508TIP3   OH249718   1.040   4.310   2.481 -0.0371  0.0595 -0.3359
 8508TIP3    H149719   1.083   4.233   2.445  0.7513  1.2069 -1.9607
 8508TIP3    H249720   1.106   4.351   2.537 -0.1843 -0.0032 -0.1139
 8509TIP3   OH249721   1.424   1.738   9.042  0.0812 -0.2868  0.2836
 8509TIP3    H149722   1.397   1.677   8.973 -0.5418  2.2276 -1.8603
 8509TIP3    H249723   1.343   1.758   9.089 -0.2449  0.7907 -0.6883
 8510TIP3   OH249724   2.468   6.557   8.857  0.2973  0.7563 -0.5058
 8510TIP3    H149725   2.439   6.530   8.770 -1.4263 -0.5446  0.4034
 8510TIP3    H249726   2.525   6.486   8.886 -1.0748 -0.0662  0.3252
 8511TIP3   OH249727   6.369   2.717   1.009  0.3572 -0.0993 -0.2756
 8511TIP3    H149728   6.372   2.633   1.056  2.0967 -0.6047 -1.2318
 8511TIP3    H249729   6.323   2.696   0.927 -0.1595  0.1448 -0.0541
 8512TIP3   OH249730   2.475   5.585   8.756  0.2926 -0.2310  0.0195
 8512TIP3    H149731   2.420   5.524   8.805 -0.5414  0.2816 -0.2727
 8512TIP3    H249732   2.431   5.669   8.764  0.5787  0.0150 -0.9468
 8513TIP3   OH249733   5.805   3.083   2.392  0.1862  0.6569  0.2008
 8513TIP3    H149734   5.828   3.106   2.302  0.8899  0.6450  0.3721
 8513TIP3    H249735   5.878   3.029   2.423 -1.2068 -1.4864 -0.0466
 8514TIP3   OH249736   6.134   3.311   7.798  0.2456  0.2462  0.0853
 8514TIP3    H149737   6.204   3.375   7.792 -0.5357  1.1161 -0.0394
 8514TIP3    H249738   6.157   3.244   7.734  1.1101  0.3613  0.2649
 8515TIP3   OH249739   1.573   1.008   9.422 -0.0317  0.2942 -0.1852
 8515TIP3    H149740   1.524   1.035   9.499  0.1216 -0.3798  0.1594
 8515TIP3    H249741   1.509   1.012   9.350 -0.6569 -0.7081  0.2819
 8516TIP3   OH249742   6.509   3.759   1.907  0.2049  0.5159 -0.2747
 8516TIP3    H149743   6.498   3.699   1.833 -0.6091 -0.3667  0.5113
 8516TIP3    H249744   6.470   3.841   1.878  0.2933  0.3104 -0.9793
 8517TIP3   OH249745   0.951   1.079   1.697  1.0398 -0.3448  0.1541
 8517TIP3    H149746   0.978   1.059   1.787  1.5142  1.0846  0.3617
 8517TIP3    H249747   1.032   1.108   1.654  1.0792 -2.1654 -1.1250
 8518TIP3   OH249748   0.446   6.999   7.456 -0.0838 -0.2419 -0.1388
 8518TIP3    H149749   0.380   7.016   7.389  1.3510  2.1438 -1.0715
 8518TIP3    H249750   0.474   7.086   7.485  0.3718 -1.2005  2.5666
 8519TIP3   OH249751   4.922   5.768   2.346  0.0425 -0.8564  0.3669
 8519TIP3    H149752   4.835   5.771   2.386  0.0850  1.7715  0.4855
 8519TIP3    H249753   4.951   5.860   2.346  1.7861 -1.3113 -1.9397
 8520TIP3   OH249754   4.913   1.481   9.120  0.0953  0.0425 -0.0118
 8520TIP3    H149755   4.994   1.485   9.070  1.6267  1.8083  2.3708
 8520TIP3    H249756   4.888   1.572   9.133 -0.8792 -0.3884  1.3485
 8521TIP3   OH249757   0.868   3.319   8.385  0.0780  0.1854 -0.1132
 8521TIP3    H149758   0.940   3.371   8.350  0.2514 -0.3689 -0.6010
 8521TIP3    H249759   0.835   3.370   8.459 -0.2947  1.3760 -1.0785
 8522TIP3   OH249760   1.905   3.389   6.611 -0.0103  0.2340  0.5357
 8522TIP3    H149761   1.843   3.376   6.539  1.2750 -0.9397 -0.4429
 8522TIP3    H249762   1.893   3.312   6.667  2.0391 -1.2663 -0.9005
 8523TIP3   OH249763   0.956   4.631   1.443  0.5148 -1.1618 -0.2167
 8523TIP3    H149764   1.007   4.630   1.524  1.0825 -0.0458 -0.5477
 8523TIP3    H249765   0.977   4.714   1.402 -2.7338  0.1187  0.3802
 8524TIP3   OH249766   5.111   5.086   8.084  0.1206 -0.0807 -0.0920
 8524TIP3    H149767   5.113   5.178   8.057 -1.3089 -0.6530 -2.5462
 8524TIP3    H249768   5.134   5.037   8.005 -0.4414 -1.8717  0.7846
 8525TIP3   OH249769   1.376   0.575   8.171 -0.0458 -0.2981 -0.0389
 8525TIP3    H149770   1.307   0.597   8.109  1.0212 -0.3253 -1.2746
 8525TIP3    H249771   1.361   0.632   8.246 -1.7610 -0.7381 -0.0201
 8526TIP3   OH249772   0.150   0.050   8.213 -0.1860 -0.1095 -0.4654
 8526TIP3    H149773   0.220   0.071   8.275 -0.9283  2.3966 -0.3529
 8526TIP3    H249774   0.192   0.052   8.127  0.3144 -0.9490 -0.2498
 8527TIP3   OH249775   1.442   7.325   2.963 -0.6993  0.2611 -0.2888
 8527TIP3    H149776   1.482   7.392   3.019 -1.0819  0.9241 -0.7963
 8527TIP3    H249777   1.348   7.336   2.976 -0.8400  1.0388 -1.7348
 8528TIP3   OH249778   0.100   3.083   1.757 -0.8564  0.2448  0.4091
 8528TIP3    H149779   0.094   3.008   1.697 -2.7234  0.1513  0.6516
 8528TIP3    H249780   0.013   3.123   1.754 -0.4492  1.2992  1.7232
 8529TIP3   OH249781   3.479   0.812   9.413  0.0488  0.0028  0.1532
 8529TIP3    H149782   3.402   0.757   9.397  0.2215 -0.0236 -0.6211
 8529TIP3    H249783   3.452   0.870   9.483 -1.9366  2.3553 -2.3270
 8530TIP3   OH249784   2.540   7.096   1.954  0.1481  0.1408  0.1261
 8530TIP3    H149785   2.517   7.134   2.039 -0.8511 -0.8916  0.3463
 8530TIP3    H249786   2.505   7.157   1.889  0.5585  0.7245  0.4413
 8531TIP3   OH249787   0.958   4.028   9.500  0.1356  0.1501  0.6621
 8531TIP3    H149788   0.889   4.093   9.483 -0.8709 -0.9292  0.5142
 8531TIP3    H249789   0.920   3.969   9.565  1.1477 -0.1224  1.0174
 8532TIP3   OH249790   4.142   0.127   0.460  0.2429  0.0575 -0.7143
 8532TIP3    H149791   4.104   0.172   0.535 -0.7424 -0.0836 -1.1086
 8532TIP3    H249792   4.077   0.136   0.391 -0.2788 -2.4428 -0.6660
 8533TIP3   OH249793   5.421   0.906   9.888  0.3691 -0.0040 -0.0857
 8533TIP3    H149794   5.434   0.820   9.928  0.6894  0.7007  1.4007
 8533TIP3    H249795   5.348   0.944   9.936 -0.5107  0.1295 -1.4859
 8534TIP3   OH249796   6.384   0.493   8.869 -0.8658  0.4881  0.3123
 8534TIP3    H149797   6.344   0.524   8.950 -1.3114  0.3476  0.1493
 8534TIP3    H249798   6.367   0.399   8.869 -0.7570  0.4689  0.1141
 8535TIP3   OH249799   2.751   5.618   6.534  0.8029  0.2454 -0.2222
 8535TIP3    H149800   2.811   5.674   6.486  0.6667  1.0447  0.5151
 8535TIP3    H249801   2.664   5.641   6.501  0.6715  1.0873  0.6579
 8536TIP3   OH249802   6.604   7.214   9.035  0.2656  0.3214  0.0280
 8536TIP3    H149803   6.600   7.240   9.127 -0.0948 -1.8334  0.6756
 8536TIP3    H249804   6.521   7.244   8.998 -0.6320 -0.8337  1.0230
 8537TIP3   OH249805   5.775   7.354   1.270  0.1792 -0.9248 -0.0183
 8537TIP3    H149806   5.869   7.340   1.263  0.0944 -0.6832 -2.6755
 8537TIP3    H249807   5.751   7.316   1.354  2.3145 -2.9544 -0.2209
 8538TIP3   OH249808   2.211   6.007   7.819 -0.2140  0.0257 -0.5503
 8538TIP3    H149809   2.290   6.044   7.859 -0.1606  0.2230 -0.8332
 8538TIP3    H249810   2.196   6.062   7.742 -0.1498 -0.5258 -0.9604
 8539TIP3   OH249811   0.740   5.006   2.266  0.1076 -0.0820 -0.1831
 8539TIP3    H149812   0.679   5.075   2.243 -0.7188  0.2563  2.6534
 8539TIP3    H249813   0.827   5.045   2.253 -0.3169  0.7763 -0.5150
 8540TIP3   OH249814   4.507   1.424   2.504  0.2503  0.2090  0.7384
 8540TIP3    H149815   4.600   1.418   2.481 -0.3517  0.0332 -1.9755
 8540TIP3    H249816   4.494   1.358   2.571  1.7646 -0.9409 -0.0592
 8541TIP3   OH249817   7.205   7.108   6.902  0.1806 -0.2733 -0.0542
 8541TIP3    H149818   7.283   7.163   6.898 -1.7699  2.6271 -0.8720
 8541TIP3    H249819   7.221   7.039   6.836  2.5147 -0.5391  0.7077
 8542TIP3   OH249820   5.022   6.511   8.459 -0.4970 -0.4705  0.5130
 8542TIP3    H149821   5.029   6.549   8.371 -0.8096 -1.6183 -0.0300
 8542TIP3    H249822   5.104   6.464   8.471 -0.4769 -0.3565  0.8182
 8543TIP3   OH249823   2.026   2.646   1.047  0.4488  0.3284 -0.3123
 8543TIP3    H149824   2.026   2.557   1.084 -0.9702  0.5629  0.3224
 8543TIP3    H249825   2.008   2.703   1.122  1.1122  1.1486 -0.7549
 8544TIP3   OH249826   1.456   6.350   7.558  0.4232 -0.3920 -0.1253
 8544TIP3    H149827   1.546   6.383   7.551  0.2798  0.0059 -0.1303
 8544TIP3    H249828   1.401   6.428   7.555  0.0682 -0.6396 -0.2220
 8545TIP3   OH249829   2.338   3.998   6.537  0.0945  0.1291  1.1164
 8545TIP3    H149830   2.388   4.079   6.528  0.0607  0.3414  2.6265
 8545TIP3    H249831   2.393   3.931   6.496  0.6806  0.6949  0.9608
 8546TIP3   OH249832   6.973   1.480   8.007 -0.3377  0.2726  0.0013
 8546TIP3    H149833   7.049   1.425   7.987 -0.6939 -0.8762  1.5424
 8546TIP3    H249834   6.898   1.432   7.972 -0.4861  0.7703 -0.3802
 8547TIP3   OH249835   0.246   3.539   9.867  0.7187  0.1110  0.0609
 8547TIP3    H149836   0.259   3.459   9.917  1.7579 -0.1641 -0.6144
 8547TIP3    H249837   0.193   3.512   9.792 -0.6870  0.4880  0.8734
 8548TIP3   OH249838   3.892   0.891   0.024 -0.0630  0.0000  0.6342
 8548TIP3    H149839   3.811   0.939   0.041 -0.1002 -0.3725  1.6186
 8548TIP3    H249840   3.960   0.945   0.063  0.3823  1.0034 -1.3912
 8549TIP3   OH249841   5.569   5.986   9.665 -0.2996 -0.4398 -0.5899
 8549TIP3    H149842   5.483   5.951   9.639  0.1835 -1.6760 -0.6136
 8549TIP3    H249843   5.609   5.915   9.715 -0.1375  0.9085  1.2915
 8550TIP3   OH249844   2.512   6.009   8.430  0.2188 -0.0646 -0.4924
 8550TIP3    H149845   2.438   5.962   8.469  0.4199 -0.9416 -1.1387
 8550TIP3    H249846   2.473   6.091   8.397  0.0352  0.6848  1.4261
 8551TIP3   OH249847   2.369   5.104   7.471 -0.0180 -0.1967  0.0896
 8551TIP3    H149848   2.289   5.155   7.458 -0.6302 -0.4797  2.2454
 8551TIP3    H249849   2.437   5.169   7.488 -0.1376  0.0002 -0.1887
 8552TIP3   OH249850   3.390   2.413   7.668  0.6121  0.1916  0.1626
 8552TIP3    H149851   3.297   2.426   7.649  0.1691 -1.9707  0.5335
 8552TIP3    H249852   3.436   2.455   7.594 -0.7244 -0.2470 -0.9677
 8553TIP3   OH249853   6.527   5.331   9.677 -0.1198 -0.0747 -0.4363
 8553TIP3    H149854   6.449   5.380   9.653 -1.5772 -1.4973  1.0937
 8553TIP3    H249855   6.546   5.278   9.600 -1.1348 -0.2604 -0.5789
 8554TIP3   OH249856   0.264   7.174   9.264  0.0668 -0.3931 -0.3775
 8554TIP3    H149857   0.285   7.099   9.320  0.5052  0.1119  0.1484
 8554TIP3    H249858   0.339   7.233   9.274 -0.8307  0.6861  0.2069
 8555TIP3   OH249859   2.757   6.349   0.135  0.3208  0.0315  0.1708
 8555TIP3    H149860   2.779   6.267   0.090 -0.6733 -0.2227  0.1148
 8555TIP3    H249861   2.834   6.404   0.125  1.1647 -1.0493  0.5500
 8556TIP3   OH249862   3.469   2.893   0.604 -0.1868 -0.0394 -0.4577
 8556TIP3    H149863   3.375   2.912   0.607  0.2891  2.8536 -0.3285
 8556TIP3    H249864   3.492   2.869   0.694 -0.9034 -1.7119 -0.6821
 8557TIP3   OH249865   5.010   2.308   7.109 -0.0667  0.4783 -0.3111
 8557TIP3    H149866   4.939   2.299   7.045 -0.0841  0.4189 -0.2840
 8557TIP3    H249867   5.037   2.218   7.127  0.1892  0.5162 -0.5120
 8558TIP3   OH249868   6.229   3.226   9.402 -0.4370 -0.2784  0.2044
 8558TIP3    H149869   6.234   3.131   9.409  0.0162 -0.3012 -0.3303
 8558TIP3    H249870   6.147   3.249   9.443 -1.5152 -1.0931 -1.3786
 8559TIP3   OH249871   0.080   7.147   0.798 -0.3018  0.1731 -0.2036
 8559TIP3    H149872   0.116   7.223   0.752 -0.1117 -0.6811 -1.5333
 8559TIP3    H249873   0.065   7.082   0.729  2.0733 -2.0205  1.1315
 8560TIP3   OH249874   0.580   2.612   8.139 -0.0592 -0.3206  0.0400
 8560TIP3    H149875   0.624   2.585   8.059 -1.7459 -1.2642 -0.6066
 8560TIP3    H249876   0.626   2.692   8.165  1.2926 -0.6528 -1.1852
 8561TIP3   OH249877   2.488   2.562   9.152  0.5181  0.4222 -0.2209
 8561TIP3    H149878   2.394   2.569   9.139  0.3750 -0.8179 -0.0447
 8561TIP3    H249879   2.526   2.616   9.083 -0.3080 -0.6368 -1.5745
 8562TIP3   OH249880   0.790   2.017   1.263  0.5017 -0.1110 -0.2015
 8562TIP3    H149881   0.820   1.955   1.329  0.6955  1.1520  0.9459
 8562TIP3    H249882   0.728   1.967   1.209  1.0273 -1.4169  0.3740
 8563TIP3   OH249883   2.766   4.993   8.248 -0.3164  0.3298  0.4068
 8563TIP3    H149884   2.791   4.950   8.330  0.1684  0.3988  0.2984
 8563TIP3    H249885   2.677   4.963   8.231 -0.4942  0.4647  1.0621
 8564TIP3   OH249886   0.815   5.402   0.971 -0.4419 -0.2641 -0.5031
 8564TIP3    H149887   0.893   5.438   1.012  1.0773 -1.7600 -1.9419
 8564TIP3    H249888   0.743   5.454   1.008  0.9587 -0.1691  2.4401
 8565TIP3   OH249889   3.052   0.386   8.828  0.3741  0.2857  0.1612
 8565TIP3    H149890   3.128   0.336   8.799  1.1974  0.4875  1.7831
 8565TIP3    H249891   3.052   0.465   8.773  0.3942 -0.4389 -0.8939
 8566TIP3   OH249892   3.426   1.202   1.641  0.4531  0.1475 -0.3253
 8566TIP3    H149893   3.430   1.222   1.735 -1.2823 -0.2433 -0.1353
 8566TIP3    H249894   3.516   1.177   1.618  0.9732  0.5511  1.1505
 8567TIP3   OH249895   2.565   6.703   1.800 -0.0129 -0.1311 -0.0190
 8567TIP3    H149896   2.655   6.733   1.793 -0.4595  1.1981 -0.3834
 8567TIP3    H249897   2.513   6.773   1.760 -1.1758 -1.0638 -0.1992
 8568TIP3   OH249898   0.818   2.163   7.408  0.0437  0.7669  0.7705
 8568TIP3    H149899   0.888   2.204   7.460  1.6741 -0.0104 -0.6972
 8568TIP3    H249900   0.825   2.205   7.322  0.8432 -1.4939 -0.3505
 8569TIP3   OH249901   4.412   0.024   9.271  0.2123  0.1497 -0.5908
 8569TIP3    H149902   4.469  -0.036   9.320 -0.1736  1.0207  0.9895
 8569TIP3    H249903   4.452   0.110   9.284 -0.4912  0.5361 -0.9407
 8570TIP3   OH249904   3.491   5.447   8.879  0.3007  0.1338  0.0633
 8570TIP3    H149905   3.488   5.508   8.805  0.0479 -0.0305 -0.0646
 8570TIP3    H249906   3.567   5.392   8.862  0.8224  0.7325  0.4361
 8571TIP3   OH249907   6.422   2.346   8.450  0.0802  0.4155  0.2638
 8571TIP3    H149908   6.397   2.404   8.522  1.0929 -0.5993  1.4821
 8571TIP3    H249909   6.362   2.273   8.456 -0.6747  0.9335 -0.7669
 8572TIP3   OH249910   2.477   1.316   8.614 -0.0397 -0.3601 -0.4739
 8572TIP3    H149911   2.538   1.272   8.674  0.2880  1.7669  0.8633
 8572TIP3    H249912   2.522   1.398   8.591 -1.0391 -0.2213 -2.0616
 8573TIP3   OH249913   3.402   0.083   1.246  0.1019  0.1216  0.4060
 8573TIP3    H149914   3.426  -0.010   1.244  2.4574  0.6584 -0.1643
 8573TIP3    H249915   3.341   0.094   1.173  1.5533 -0.6001 -0.9747
 8574TIP3   OH249916   5.576   3.017   1.043 -0.0975  0.6510 -0.1974
 8574TIP3    H149917   5.596   2.974   0.959 -0.6521  2.6425 -1.4102
 8574TIP3    H249918   5.496   3.067   1.025  0.4914  2.1382  1.1539
 8575TIP3   OH249919   2.430   6.391   6.816 -0.0101 -0.3796 -0.8149
 8575TIP3    H149920   2.492   6.460   6.796 -0.6627  0.3876 -0.2624
 8575TIP3    H249921   2.361   6.400   6.751 -0.4337 -0.0648 -0.3312
 8576TIP3   OH249922   2.096   7.018   0.985 -0.1540 -0.5256 -0.4131
 8576TIP3    H149923   2.003   6.996   0.993 -0.6471  2.0106  2.4453
 8576TIP3    H249924   2.136   6.985   1.066  0.9928  0.3974 -0.5812
 8577TIP3   OH249925   4.149   7.402   1.536  0.2686 -0.2193  0.1695
 8577TIP3    H149926   4.058   7.410   1.509  0.6499 -0.2912 -1.2289
 8577TIP3    H249927   4.181   7.492   1.540  1.1203 -0.2251 -3.1263
 8578TIP3   OH249928   0.518   0.522   1.466 -0.8150  0.5163  0.7444
 8578TIP3    H149929   0.476   0.469   1.534 -0.2329 -1.5282 -0.4173
 8578TIP3    H249930   0.608   0.533   1.497 -0.9329  0.8175  0.9818
 8579TIP3   OH249931   4.021   5.093   2.174  0.0821 -1.0354  0.9078
 8579TIP3    H149932   4.108   5.107   2.136  0.6228  2.5276  2.9741
 8579TIP3    H249933   4.038   5.043   2.254  0.3850  0.2120  1.6480
 8580TIP3   OH249934   3.254   1.126   9.174  0.4058 -0.5752 -0.5610
 8580TIP3    H149935   3.269   1.162   9.261 -0.2030 -1.5029 -0.0607
 8580TIP3    H249936   3.273   1.033   9.183 -1.9271 -1.1322 -0.8137
 8581TIP3   OH249937   5.682   4.751   1.140  0.0017  0.3400  0.1378
 8581TIP3    H149938   5.760   4.696   1.137 -0.0485  0.2960 -2.5441
 8581TIP3    H249939   5.619   4.701   1.192  0.6181 -1.2165 -0.5515
 8582TIP3   OH249940   5.193   6.670   8.753 -0.5551  0.1461  0.6201
 8582TIP3    H149941   5.212   6.588   8.799  1.2679  0.6515  0.8492
 8582TIP3    H249942   5.278   6.697   8.717 -1.7121  0.1982 -2.3858
 8583TIP3   OH249943   3.104   4.204   7.230 -0.0256 -0.0183 -0.5080
 8583TIP3    H149944   3.136   4.265   7.164  1.2473 -1.0570 -0.9171
 8583TIP3    H249945   3.180   4.150   7.250 -0.8270 -0.7572  0.6314
 8584TIP3   OH249946   2.251   3.374   1.558  0.6682 -0.6341 -0.2107
 8584TIP3    H149947   2.322   3.310   1.566  2.5401  1.5261  3.1823
 8584TIP3    H249948   2.281   3.434   1.489  0.2542 -1.7275 -1.3933
 8585TIP3   OH249949   2.875   6.379   6.650  0.2960  0.0210  0.8535
 8585TIP3    H149950   2.925   6.457   6.624  0.0269 -0.0907 -0.0527
 8585TIP3    H249951   2.907   6.310   6.592 -1.6584  0.2031 -0.5416
 8586TIP3   OH249952   3.657   5.855   2.591  0.2983  0.2736 -1.0821
 8586TIP3    H149953   3.571   5.824   2.563 -0.6308 -0.3596  2.0081
 8586TIP3    H249954   3.703   5.775   2.617  0.6336  0.8493  0.1529
 8587TIP3   OH249955   2.186   5.379   1.688 -0.3902 -0.0119 -0.6412
 8587TIP3    H149956   2.217   5.454   1.739 -1.1039 -0.6013  0.7197
 8587TIP3    H249957   2.095   5.367   1.716 -0.7954 -0.3951 -2.0501
 8588TIP3   OH249958   3.061   3.679   9.617  0.0537 -0.1520 -0.5746
 8588TIP3    H149959   3.011   3.599   9.634  0.0162  0.3676  2.1913
 8588TIP3    H249960   2.995   3.746   9.600 -0.2843  0.3127  2.0947
 8589TIP3   OH249961   6.805   2.484   9.280 -0.3217 -0.3512 -0.0596
 8589TIP3    H149962   6.835   2.517   9.364 -1.3871  1.8222 -0.4473
 8589TIP3    H249963   6.863   2.525   9.216 -2.3696  1.9163 -0.6301
 8590TIP3   OH249964   2.634   2.194   1.605  0.7117 -0.1839  0.0923
 8590TIP3    H149965   2.605   2.171   1.517  1.8391 -3.2610  0.4009
 8590TIP3    H249966   2.553   2.199   1.656  0.2298 -1.2504 -0.5379
 8591TIP3   OH249967   0.478   3.609   1.061 -0.5657  0.3163 -0.1301
 8591TIP3    H149968   0.561   3.656   1.070  0.7904 -2.0433  0.7203
 8591TIP3    H249969   0.415   3.661   1.110  0.7469  1.4647  0.3989
 8592TIP3   OH249970   0.112   2.105   8.978 -0.2977 -0.2283  0.8191
 8592TIP3    H149971   0.078   2.045   9.045  1.7525  0.8687  3.0035
 8592TIP3    H249972   0.058   2.184   8.988  0.1398  0.0094  1.3571
 8593TIP3   OH249973   3.814   4.273   9.770  0.0878 -0.8267 -0.0234
 8593TIP3    H149974   3.757   4.339   9.810  0.7567 -0.2877  0.0614
 8593TIP3    H249975   3.803   4.286   9.676  1.5859  0.6737 -0.0474
 8594TIP3   OH249976   5.592   5.047   9.907 -0.1169 -0.1426 -0.0295
 8594TIP3    H149977   5.584   5.098   9.988 -1.2303 -0.0104 -0.2005
 8594TIP3    H249978   5.577   4.956   9.935  2.4085 -0.5232  0.3693
 8595TIP3   OH249979   1.909   1.797   6.433 -0.1596  0.1604  0.0501
 8595TIP3    H149980   1.839   1.743   6.395 -2.0317  0.9651  2.1329
 8595TIP3    H249981   1.922   1.867   6.370 -0.3374 -0.6795 -0.9474
 8596TIP3   OH249982   5.730   4.754   1.940  0.9100  0.2061  0.1009
 8596TIP3    H149983   5.638   4.763   1.913  0.8482 -0.7122 -0.0120
 8596TIP3    H249984   5.739   4.662   1.965  1.6988  0.3848  0.5071
 8597TIP3   OH249985   1.781   2.162   1.073 -0.0463  0.4363 -0.9317
 8597TIP3    H149986   1.731   2.137   0.996 -0.6949 -0.2528 -0.2908
 8597TIP3    H249987   1.747   2.249   1.097 -0.1623  0.4504 -1.1471
 8598TIP3   OH249988   4.804   0.245   7.910  0.2218  0.2217 -0.0490
 8598TIP3    H149989   4.810   0.151   7.894  0.0943  0.1925  0.0595
 8598TIP3    H249990   4.717   0.256   7.949  0.1503  0.4146 -0.2673
 8599TIP3   OH249991   3.256   6.645   7.979 -0.2736 -0.1810 -0.5631
 8599TIP3    H149992   3.198   6.720   7.985 -0.5304 -0.4536  0.8530
 8599TIP3    H249993   3.333   6.670   8.030 -0.8941 -1.3046  1.0045
 8600TIP3   OH249994   2.389   2.654   0.059  0.2691  0.3062 -0.1245
 8600TIP3    H149995   2.354   2.733   0.099 -0.1549  1.1230 -2.0210
 8600TIP3    H249996   2.328   2.585   0.086 -0.2762  0.9045  0.2115
 8601TIP3   OH249997   2.102   0.845   7.896  0.0948  0.6572 -0.4921
 8601TIP3    H149998   2.163   0.916   7.916  0.0545 -0.0014  2.3516
 8601TIP3    H249999   2.051   0.878   7.822  2.3065  2.1638 -1.4370
 8602TIP3   OH250000   2.590   5.917   7.200 -0.0356  0.1355 -0.0726
 8602TIP3    H150001   2.501   5.922   7.234  0.4993  0.9079  1.3114
 8602TIP3    H250002   2.625   6.006   7.210  1.2145 -0.3795  0.3921
 8603TIP3   OH250003   3.672   6.748   8.731 -0.3566  0.0618  0.8020
 8603TIP3    H150004   3.636   6.829   8.768 -1.5183  0.5610 -1.2898
 8603TIP3    H250005   3.758   6.773   8.698 -0.6422  0.4109  0.3128
 8604TIP3   OH250006   4.621   3.076   9.737  0.1301 -0.3665  0.6645
 8604TIP3    H150007   4.626   2.985   9.763 -0.0181 -1.1131 -1.6973
 8604TIP3    H250008   4.527   3.093   9.725  0.2893 -1.1881 -2.7422
 8605TIP3   OH250009   2.609   3.695   0.711  0.4187  0.1405 -0.6126
 8605TIP3    H150010   2.651   3.757   0.770 -2.7551  0.4312  1.5560
 8605TIP3    H250011   2.607   3.613   0.760 -1.2880  0.1089 -0.6586
 8606TIP3   OH250012   5.444   0.560   0.329  0.1006  0.0597 -0.0586
 8606TIP3    H150013   5.521   0.615   0.315  0.9348 -0.7889  1.0533
 8606TIP3    H250014   5.475   0.490   0.386 -1.3246 -0.7031 -0.1909
 8607TIP3   OH250015   1.866   3.715   1.128  0.2545  0.3347  0.2085
 8607TIP3    H150016   1.884   3.623   1.146 -0.5824 -0.1896 -1.4152
 8607TIP3    H250017   1.890   3.761   1.208 -0.5157 -1.4377  1.5124
 8608TIP3   OH250018   6.306   5.719   8.221 -0.1045 -0.8325  0.3517
 8608TIP3    H150019   6.223   5.731   8.268  0.7333 -0.6290  1.8472
 8608TIP3    H250020   6.329   5.807   8.190 -0.1685 -0.7871  0.4327
 8609TIP3   OH250021   2.475   2.478   8.757  0.7125  0.3535  0.1604
 8609TIP3    H150022   2.536   2.407   8.739  2.5739  2.1486 -1.1433
 8609TIP3    H250023   2.397   2.435   8.791  1.5150 -2.3346 -1.1298
 8610TIP3   OH250024   7.089   3.054   8.339 -0.4771  0.3322  0.2836
 8610TIP3    H150025   7.136   2.981   8.299  0.3794 -0.0535  1.9293
 8610TIP3    H250026   6.997   3.032   8.327 -0.2978  0.4809 -1.8660
 8611TIP3   OH250027   0.652   4.588   1.105 -0.0273  0.5251 -0.0331
 8611TIP3    H150028   0.589   4.529   1.064 -0.5705  0.5658  0.7227
 8611TIP3    H250029   0.671   4.547   1.189  1.2475  0.3209 -0.3945
 8612TIP3   OH250030   2.097   3.379   0.033 -0.4172  0.4257 -0.2945
 8612TIP3    H150031   2.136   3.384  -0.054 -0.9553  0.0762 -0.5655
 8612TIP3    H250032   2.159   3.423   0.091  0.5877 -0.5021 -0.6378
 8613TIP3   OH250033   3.327   1.565   2.184  0.2716  0.0015 -0.2861
 8613TIP3    H150034   3.264   1.504   2.144  0.4976 -0.2246 -0.2987
 8613TIP3    H250035   3.289   1.651   2.169 -0.5766 -0.1895  0.6410
 8614TIP3   OH250036   7.210   2.888   8.116 -0.8309 -0.4663  0.7844
 8614TIP3    H150037   7.136   2.915   8.062 -1.5526 -0.1108  1.9064
 8614TIP3    H250038   7.287   2.901   8.061 -1.3157  2.1387  0.6185
 8615TIP3   OH250039   2.402   0.297   8.224 -0.7159 -0.1970 -0.3022
 8615TIP3    H150040   2.447   0.215   8.245  0.2385  0.0593 -1.2461
 8615TIP3    H250041   2.382   0.336   8.309 -2.6047 -2.1154  0.2231
 8616TIP3   OH250042   3.771   0.277   8.619 -0.4243 -0.2418  0.1730
 8616TIP3    H150043   3.753   0.279   8.525  0.0508 -3.5553 -0.1209
 8616TIP3    H250044   3.808   0.362   8.639 -2.2611  1.2530 -2.2339
 8617TIP3   OH250045   2.031   3.524   1.317  0.2628 -0.0784 -0.2369
 8617TIP3    H150046   2.013   3.463   1.246  0.0459  0.6700 -0.8342
 8617TIP3    H250047   2.123   3.548   1.305 -0.0273  0.7709 -0.8424
 8618TIP3   OH250048   3.876   7.206   2.706  0.5638 -0.8451 -0.5964
 8618TIP3    H150049   3.964   7.180   2.679  0.7580  0.0273 -0.8394
 8618TIP3    H250050   3.818   7.153   2.651  0.9589  0.6666 -2.5735
 8619TIP3   OH250051   1.502   2.116   8.771 -0.6308 -0.1108 -0.1489
 8619TIP3    H150052   1.415   2.157   8.772 -0.7130 -0.2852  0.3645
 8619TIP3    H250053   1.553   2.169   8.710 -1.3535 -0.5451 -1.1515
 8620TIP3   OH250054   0.037   6.137   9.735  0.0780 -1.2341  0.1289
 8620TIP3    H150055   0.048   6.052   9.776 -0.5427 -1.4289 -0.1014
 8620TIP3    H250056   0.127   6.169   9.722  0.3000 -1.6014  0.7163
 8621TIP3   OH250057   0.936   4.124   7.830 -0.2677 -0.1004 -0.4569
 8621TIP3    H150058   0.934   4.183   7.905 -0.3281 -2.1201  1.2237
 8621TIP3    H250059   0.852   4.138   7.787 -0.2846  1.0105 -0.0898
 8622TIP3   OH250060   5.021   4.906   0.217  0.2083  0.4657 -0.1510
 8622TIP3    H150061   5.105   4.862   0.205 -0.2261 -0.0329 -1.7249
 8622TIP3    H250062   5.040   4.999   0.209  0.6330  0.3581 -0.4154
 8623TIP3   OH250063   3.960   2.525   1.813  0.2584 -0.1357 -0.1906
 8623TIP3    H150064   3.970   2.434   1.840 -2.2711 -0.4494 -0.0916
 8623TIP3    H250065   3.961   2.574   1.895  0.5411 -0.1709 -0.1691
 8624TIP3   OH250066   3.862   4.673   1.300  0.0262 -0.1919  0.7092
 8624TIP3    H150067   3.786   4.615   1.294 -0.1895  0.1594 -0.1275
 8624TIP3    H250068   3.938   4.614   1.292 -0.1758 -0.4604  0.7825
 8625TIP3   OH250069   1.381   4.909   2.763 -0.4659  0.1268  0.3012
 8625TIP3    H150070   1.324   4.868   2.698 -0.6437  0.3681  0.3026
 8625TIP3    H250071   1.397   4.841   2.828 -0.5389 -0.0206  0.1634
 8626TIP3   OH250072   3.980   6.035   8.020  0.6756  0.0554 -0.6484
 8626TIP3    H150073   3.982   6.130   8.019 -2.9712  0.3061  1.5368
 8626TIP3    H250074   4.043   6.010   8.089 -1.3385  1.2314  1.7556
 8627TIP3   OH250075   1.082   0.307   0.615 -0.1743  0.8175  0.4658
 8627TIP3    H150076   0.994   0.339   0.637 -0.8368  0.2350 -1.1617
 8627TIP3    H250077   1.084   0.217   0.648  0.1611  1.1267  1.3135
 8628TIP3   OH250078   3.663   7.253   2.057 -0.2662  0.4012 -0.0606
 8628TIP3    H150079   3.580   7.294   2.084 -0.8228 -0.6877 -0.0607
 8628TIP3    H250080   3.638   7.165   2.029  0.5274  0.8579 -2.4439
 8629TIP3   OH250081   0.894   1.903   9.294 -0.2794 -0.0249 -0.1864
 8629TIP3    H150082   0.948   1.968   9.339 -2.5825  0.3986  2.2225
 8629TIP3    H250083   0.833   1.955   9.242 -1.0329 -0.2771  0.4197
 8630TIP3   OH250084   2.070   7.080   8.002 -0.3296  0.5570  0.0430
 8630TIP3    H150085   1.984   7.044   8.022  0.1346 -0.8743 -0.4538
 8630TIP3    H250086   2.130   7.007   8.014  0.7539  1.3888 -0.1696
 8631TIP3   OH250087   6.746   6.539   8.160 -0.4381 -0.1373 -0.1943
 8631TIP3    H150088   6.835   6.506   8.174 -0.4370 -0.5285 -1.0685
 8631TIP3    H250089   6.692   6.488   8.222 -0.1998 -0.6217 -0.3775
 8632TIP3   OH250090   0.815   2.134   0.627  0.1779 -0.3934  0.0759
 8632TIP3    H150091   0.796   2.047   0.662  0.1074 -0.5598 -0.3680
 8632TIP3    H250092   0.750   2.146   0.557 -0.6494  0.5431  0.9867
 8633TIP3   OH250093   3.396   5.805   2.485  0.0690  0.1712 -0.1808
 8633TIP3    H150094   3.405   5.894   2.449  1.9587  0.0645 -0.0868
 8633TIP3    H250095   3.343   5.816   2.563 -1.1841  0.9465 -1.1064
 8634TIP3   OH250096   3.507   1.445   1.543  0.6673  0.3548 -0.3470
 8634TIP3    H150097   3.480   1.357   1.568 -1.9458  1.6809  2.3086
 8634TIP3    H250098   3.566   1.473   1.614 -0.3957  1.4436  0.1670
 8635TIP3   OH250099   2.315   0.579   9.351 -0.8393  0.2804  0.4321
 8635TIP3    H150100   2.384   0.645   9.355 -0.3187 -0.2944  1.2466
 8635TIP3    H250101   2.234   0.629   9.360 -0.4073  0.7270  2.3715
 8636TIP3   OH250102   6.695   1.072   0.497 -0.1883 -0.4610  0.0669
 8636TIP3    H150103   6.706   1.137   0.567 -0.0567  0.5021 -0.8381
 8636TIP3    H250104   6.761   1.094   0.432 -1.4169 -0.2930 -1.1577
 8637TIP3   OH250105   3.251   4.803   8.102  0.1527 -0.0606 -0.1806
 8637TIP3    H150106   3.298   4.739   8.155 -0.7550 -1.7143 -1.2642
 8637TIP3    H250107   3.186   4.841   8.161 -1.5150 -2.5868 -0.2332
 8638TIP3   OH250108   2.462   2.843   9.665  0.1882  0.0451  0.1735
 8638TIP3    H150109   2.546   2.808   9.636 -1.3272 -2.1341 -1.9144
 8638TIP3    H250110   2.442   2.913   9.602  0.8538  1.2882  1.2937
 8639TIP3   OH250111   2.005   1.576   0.236  0.0446  0.2169 -0.0511
 8639TIP3    H150112   2.092   1.612   0.249  0.5658 -0.7348 -0.7516
 8639TIP3    H250113   1.997   1.507   0.302  0.3331 -0.5527 -0.8032
 8640TIP3   OH250114   0.336   3.458   7.940  0.2955 -0.1218  0.5322
 8640TIP3    H150115   0.305   3.538   7.983 -0.3417  0.4026 -0.8394
 8640TIP3    H250116   0.257   3.405   7.928  0.6203 -0.6964  0.8553
 8641TIP3   OH250117   3.321   6.729   2.432 -0.4813  0.0208  0.4904
 8641TIP3    H150118   3.291   6.814   2.465 -1.5924 -0.5537  1.0096
 8641TIP3    H250119   3.246   6.693   2.385 -0.3399 -1.0702  1.0701
 8642TIP3   OH250120   2.455   1.186   0.726 -0.1944 -0.2574  0.3029
 8642TIP3    H150121   2.383   1.124   0.720  2.5509 -3.6855 -0.1620
 8642TIP3    H250122   2.438   1.250   0.657 -2.5605 -1.1208  0.0170
 8643TIP3   OH250123   0.989   7.191   1.045 -0.5622  0.3507  0.4241
 8643TIP3    H150124   1.062   7.193   1.107  1.0752 -0.1383 -1.3776
 8643TIP3    H250125   0.960   7.282   1.041 -0.5511  0.4350  1.7012
 8644TIP3   OH250126   2.473   1.047   0.997  1.0240 -0.5649  0.1392
 8644TIP3    H150127   2.457   1.127   0.947 -0.7956 -0.6650  0.5031
 8644TIP3    H250128   2.406   1.048   1.065  0.5969 -2.6945 -0.2010
 8645TIP3   OH250129   2.484   0.761   2.865  0.2978 -0.4703 -0.0073
 8645TIP3    H150130   2.481   0.839   2.810  2.4013  1.1699  2.0043
 8645TIP3    H250131   2.400   0.760   2.911 -0.7020 -0.7986 -1.7573
 8646TIP3   OH250132   2.306   1.913   2.285 -0.3308 -0.5405  0.2875
 8646TIP3    H150133   2.397   1.934   2.264  0.0607 -1.2051  1.2397
 8646TIP3    H250134   2.285   1.838   2.230 -0.7978  0.4705 -0.9883
 8647TIP3   OH250135   0.849   5.504   8.867  0.0344  0.4452  0.0625
 8647TIP3    H150136   0.825   5.572   8.805 -0.2783  0.8881  0.6599
 8647TIP3    H250137   0.819   5.422   8.826  0.2501  0.6740 -0.5716
 8648TIP3   OH250138   0.606   4.384   2.267 -0.4271 -0.3463 -0.1401
 8648TIP3    H150139   0.589   4.384   2.173 -0.7423  0.7247 -0.0940
 8648TIP3    H250140   0.701   4.374   2.274 -0.3550 -0.0213 -0.5924
 8649TIP3   OH250141   5.440   6.490   2.149 -0.3434 -0.1059  0.2956
 8649TIP3    H150142   5.423   6.549   2.221  2.6831  1.5132 -0.1425
 8649TIP3    H250143   5.508   6.431   2.182  1.2788  0.8272 -1.1853
 8650TIP3   OH250144   0.039   3.570   2.131  0.2857  0.2390  0.6738
 8650TIP3    H150145  -0.044   3.617   2.133 -0.6911 -1.4063  1.3060
 8650TIP3    H250146   0.038   3.516   2.210  1.6295 -0.3713  0.3127
 8651TIP3   OH250147   7.451   5.931   9.250 -0.6959 -0.3193 -0.2463
 8651TIP3    H150148   7.513   5.862   9.271  1.6093  1.8033  0.3653
 8651TIP3    H250149   7.417   5.961   9.334 -1.2423 -0.3068 -0.4630
 8652TIP3   OH250150   6.486   7.435   9.747 -0.7929  0.2056 -0.1256
 8652TIP3    H150151   6.405   7.401   9.709 -0.1889 -1.2427 -0.1586
 8652TIP3    H250152   6.545   7.360   9.750  0.3682  1.1092  0.4218
 8653TIP3   OH250153   2.849   2.901   8.517 -0.2858 -0.2177 -0.3263
 8653TIP3    H150154   2.820   2.915   8.607 -0.2262 -0.3801 -0.2829
 8653TIP3    H250155   2.798   2.963   8.465 -2.1744 -1.8504 -0.5240
 8654TIP3   OH250156   3.317   6.075   8.991  0.3349  0.6078 -0.1847
 8654TIP3    H150157   3.305   6.158   9.037  1.5928  0.8794 -0.3118
 8654TIP3    H250158   3.360   6.018   9.055  0.5895  0.4586 -0.4859
 8655TIP3   OH250159   0.647   4.206   7.029 -0.5090 -0.7743 -0.1448
 8655TIP3    H150160   0.641   4.155   7.110 -0.3312  0.8999  0.9662
 8655TIP3    H250161   0.732   4.248   7.033 -0.9750  0.2534 -0.6424
 8656TIP3   OH250162   3.313   3.938   7.764  0.3733 -0.1144 -0.0024
 8656TIP3    H150163   3.251   4.009   7.743 -0.4250 -1.3389 -2.2224
 8656TIP3    H250164   3.281   3.901   7.846 -0.6643  0.5635 -0.0811
 8657TIP3   OH250165   3.190   2.421   1.331  0.2038  0.2348  0.2768
 8657TIP3    H150166   3.223   2.426   1.241  0.0156  1.7674  0.2789
 8657TIP3    H250167   3.252   2.470   1.383 -1.1665  1.8037  0.5192
 8658TIP3   OH250168   2.701   5.239   9.948 -0.2446  0.3826  0.3493
 8658TIP3    H150169   2.773   5.205   9.895  0.2801  0.6719  0.8626
 8658TIP3    H250170   2.714   5.200  10.034  0.9852  2.5977  1.2578
 8659TIP3   OH250171   5.709   0.247   9.473  0.6113  0.2163  0.4625
 8659TIP3    H150172   5.759   0.252   9.391 -0.6302  0.0854 -0.3200
 8659TIP3    H250173   5.731   0.161   9.509  0.7382  0.0420 -0.0187
 8660TIP3   OH250174   6.461   1.709   9.236 -0.2483  0.5846 -0.6047
 8660TIP3    H150175   6.393   1.713   9.304  0.5948 -0.1913  0.3176
 8660TIP3    H250176   6.541   1.734   9.282  0.4863 -0.8138 -1.0899
 8661TIP3   OH250177   0.468   4.119   0.881  0.0009  0.9168 -0.0951
 8661TIP3    H150178   0.521   4.190   0.846  0.4463  0.2407 -0.8246
 8661TIP3    H250179   0.484   4.045   0.821 -0.7334  0.3141  0.4324
 8662TIP3   OH250180   4.352   5.034   9.240 -0.0015 -0.0324 -0.1098
 8662TIP3    H150181   4.438   5.002   9.215 -0.0604 -0.4287  0.1745
 8662TIP3    H250182   4.312   4.961   9.287 -0.5455  0.0977 -0.3565
 8663TIP3   OH250183   1.060   4.781   1.003 -0.0223  0.1598  0.7454
 8663TIP3    H150184   1.100   4.857   1.044  0.0802  1.2648 -1.2936
 8663TIP3    H250185   1.113   4.765   0.925 -0.4615 -1.5932  0.7585
 8664TIP3   OH250186   2.583   0.059   0.195  0.5990  0.0804 -0.2970
 8664TIP3    H150187   2.654   0.030   0.137  1.0405 -0.0327  0.2866
 8664TIP3    H250188   2.545   0.134   0.150  1.9347  0.9546 -0.0130
 8665TIP3   OH250189   0.890   7.440   2.390 -0.2300 -0.0084  0.3709
 8665TIP3    H150190   0.833   7.438   2.467  1.0576 -0.5073  1.3577
 8665TIP3    H250191   0.950   7.513   2.406  0.6176 -0.6689  0.2927
 8666TIP3   OH250192   5.117   0.632   2.475 -0.2266  0.3902 -0.0875
 8666TIP3    H150193   5.031   0.660   2.444 -0.2607 -0.1453 -0.5070
 8666TIP3    H250194   5.118   0.537   2.460  1.3700  0.6771 -2.4940
 8667TIP3   OH250195   5.536   6.111   0.904 -0.5821 -0.2881  0.4495
 8667TIP3    H150196   5.599   6.148   0.965  1.4670 -0.0976 -1.6367
 8667TIP3    H250197   5.537   6.017   0.921 -0.0000 -0.2407  0.6748
 8668TIP3   OH250198   5.327   1.675   0.136  0.4995  0.2439 -0.9173
 8668TIP3    H150199   5.325   1.604   0.071 -0.4384 -0.7624  0.1621
 8668TIP3    H250200   5.264   1.739   0.102  0.2862 -0.1023 -1.1916
 8669TIP3   OH250201   5.685   6.191   9.519 -0.2517 -0.0469  0.0770
 8669TIP3    H150202   5.651   6.112   9.563  0.4850 -0.5600 -0.2527
 8669TIP3    H250203   5.647   6.264   9.568  0.1524 -0.6043  1.2767
 8670TIP3   OH250204   2.023   3.503   0.648 -0.0911 -0.1308 -0.4018
 8670TIP3    H150205   2.083   3.475   0.580 -0.4430  1.4137 -1.4097
 8670TIP3    H250206   1.952   3.439   0.646  0.1020 -0.3240 -1.2100
 8671TIP3   OH250207   7.392   6.574   7.305 -0.1287 -0.6156 -0.1058
 8671TIP3    H150208   7.307   6.537   7.283  0.2418 -2.4270  1.2973
 8671TIP3    H250209   7.455   6.514   7.267  0.5373  0.0474 -0.0814
 8672TIP3   OH250210   3.322   1.947   9.539  0.5273 -0.8755  0.2712
 8672TIP3    H150211   3.281   1.868   9.505 -0.1214 -1.0228  1.3412
 8672TIP3    H250212   3.278   1.963   9.623  2.1784 -0.6473  1.1485
 8673TIP3   OH250213   6.376   5.985   9.473  0.3535  0.0133  0.0197
 8673TIP3    H150214   6.391   6.004   9.566  1.5468 -0.3110 -0.0867
 8673TIP3    H250215   6.412   5.897   9.461  0.4358  0.1586 -0.8104
 8674TIP3   OH250216   2.385   3.191   8.579 -0.2518 -0.0339  0.3795
 8674TIP3    H150217   2.327   3.244   8.634  0.6130 -1.1283  2.4675
 8674TIP3    H250218   2.332   3.116   8.554 -0.8365  0.7575 -0.8583
 8675TIP3   OH250219   1.126   4.539   7.333 -0.3738  0.3611 -0.1746
 8675TIP3    H150220   1.101   4.630   7.317 -0.9236 -0.0017 -1.5263
 8675TIP3    H250221   1.078   4.514   7.412 -0.2234  1.2428  0.1973
 8676TIP3   OH250222   3.585   2.601   9.457  0.5407  0.1695 -0.2721
 8676TIP3    H150223   3.601   2.662   9.529  0.6367  0.5037 -0.5738
 8676TIP3    H250224   3.526   2.535   9.494 -0.8282  1.2882 -0.3897
 8677TIP3   OH250225   2.784   3.044   0.203  0.4419 -0.2562 -0.1522
 8677TIP3    H150226   2.732   3.041   0.123  0.5687 -1.4012 -0.2016
 8677TIP3    H250227   2.826   3.131   0.201 -1.3257  0.6444 -0.1817
 8678TIP3   OH250228   2.661   6.167   7.252  0.4742  0.4067 -0.5439
 8678TIP3    H150229   2.614   6.194   7.173  1.5025  0.8871 -1.0120
 8678TIP3    H250230   2.610   6.202   7.324  0.5002  1.5821 -1.0686
 8679TIP3   OH250231   1.562   1.789   1.836 -0.8202  0.3538 -0.3986
 8679TIP3    H150232   1.528   1.878   1.834 -1.5020  0.0987 -0.3353
 8679TIP3    H250233   1.652   1.797   1.805 -0.6218  1.1753  0.3500
 8680TIP3   OH250234   6.426   5.144   1.439  0.4460  0.4134  0.0529
 8680TIP3    H150235   6.375   5.197   1.500  2.0019  1.3298  0.6158
 8680TIP3    H250236   6.477   5.086   1.494  1.0971  0.5298 -0.4143
 8681TIP3   OH250237   6.296   2.411   9.718 -0.4707 -0.0958 -0.0648
 8681TIP3    H150238   6.268   2.332   9.671 -0.4739  0.4555 -1.0205
 8681TIP3    H250239   6.253   2.483   9.670  0.2183  0.5441  0.2704
 8682TIP3   OH250240   5.964   5.495   1.342 -0.5673 -0.4927 -0.1079
 8682TIP3    H150241   5.908   5.536   1.276 -1.6351 -1.2146  0.3248
 8682TIP3    H250242   6.007   5.423   1.296  1.1245  0.8723 -0.8053
 8683TIP3   OH250243   5.851   4.328   8.632 -0.7741  0.7681 -0.1997
 8683TIP3    H150244   5.790   4.285   8.692  0.3145 -1.4956 -0.6120
 8683TIP3    H250245   5.815   4.311   8.545  0.3818 -0.6166 -0.4492
 8684TIP3   OH250246   2.617   5.605   2.802  0.5275 -0.0847  0.1574
 8684TIP3    H150247   2.580   5.613   2.714  1.0220 -0.0331 -0.0505
 8684TIP3    H250248   2.618   5.510   2.818 -2.7124 -0.0195  1.4931
 8685TIP3   OH250249   6.727   4.767   8.864  0.4027  0.1184 -0.3242
 8685TIP3    H150250   6.748   4.842   8.921 -0.5338 -1.3276  2.0689
 8685TIP3    H250251   6.655   4.799   8.809  1.2443  1.5386 -0.6451
 8686TIP3   OH250252   2.737   6.719   2.102  0.0179  0.4526  0.1891
 8686TIP3    H150253   2.741   6.699   2.195 -1.7601 -0.3563  0.1396
 8686TIP3    H250254   2.754   6.636   2.058 -0.5327  0.5198 -0.1667
 8687TIP3   OH250255   5.274   0.085   9.489  0.0359  0.4340  0.2634
 8687TIP3    H150256   5.263  -0.010   9.477  1.0961  0.4674 -1.2480
 8687TIP3    H250257   5.300   0.095   9.581 -0.0072 -0.7494  0.4174
 8688TIP3   OH250258   4.499   5.283   1.327  0.5313 -0.1151  0.6239
 8688TIP3    H150259   4.480   5.326   1.410 -0.8399  0.2268  0.1505
 8688TIP3    H250260   4.467   5.193   1.339  1.3628 -0.3990  0.8334
 8689TIP3   OH250261   7.053   6.115   0.633 -0.0025  0.3473  0.1242
 8689TIP3    H150262   7.069   6.142   0.724  1.8650  0.3406 -0.1769
 8689TIP3    H250263   7.048   6.197   0.585 -0.3520  0.3287  0.1270
 8690TIP3   OH250264   4.516   0.313   1.158  0.0064 -0.0878 -0.1994
 8690TIP3    H150265   4.572   0.251   1.203  0.3940 -0.0239 -0.5873
 8690TIP3    H250266   4.427   0.285   1.179  0.1579  0.8985  1.9212
 8691TIP3   OH250267   0.370   1.701   1.554 -0.4398  0.3638  0.1070
 8691TIP3    H150268   0.422   1.628   1.519 -2.6101 -1.1625 -0.1451
 8691TIP3    H250269   0.303   1.716   1.487 -0.8236  1.7329  0.7708
 8692TIP3   OH250270   1.346   1.796   9.831  0.1560  0.2766  0.4705
 8692TIP3    H150271   1.372   1.882   9.865 -1.1376  0.2537  1.5606
 8692TIP3    H250272   1.428   1.759   9.797  1.2841  0.7950  2.4810
 8693TIP3   OH250273   4.512   1.255   2.049  0.2106 -0.3725 -0.5210
 8693TIP3    H150274   4.439   1.226   1.993  0.6358 -1.0129 -0.7567
 8693TIP3    H250275   4.470   1.285   2.130 -0.4734  1.2528 -1.4287
 8694TIP3   OH250276   0.117   2.830   9.241 -0.5856 -0.2291 -0.2672
 8694TIP3    H150277   0.177   2.824   9.166 -0.9200  0.8272 -0.6308
 8694TIP3    H250278   0.037   2.870   9.205 -0.2971  1.4972  0.9034
 8695TIP3   OH250279   2.929   4.657   6.800 -0.3135 -0.0781 -0.0880
 8695TIP3    H150280   2.898   4.729   6.744 -0.6935 -0.0991  0.0889
 8695TIP3    H250281   2.926   4.580   6.743 -0.6690 -0.0936 -0.0529
 8696TIP3   OH250282   4.336   5.685   1.089  0.1779 -0.3726 -1.1730
 8696TIP3    H150283   4.398   5.746   1.129  0.2619 -0.8098 -0.6320
 8696TIP3    H250284   4.349   5.697   0.995  1.9073 -1.2641 -1.0975
 8697TIP3   OH250285   7.396   0.103   1.534  0.2531  0.0734 -0.2738
 8697TIP3    H150286   7.454   0.110   1.611 -0.1176  1.5123 -0.0991
 8697TIP3    H250287   7.456   0.100   1.460  0.5881 -0.3278  0.0026
 8698TIP3   OH250288   5.384   5.016   1.742  0.1734  0.0465  0.0892
 8698TIP3    H150289   5.414   4.980   1.659 -0.0691  1.1977 -0.5147
 8698TIP3    H250290   5.342   5.099   1.719 -1.1423 -0.2703  1.2023
 8699TIP3   OH250291   4.704   3.081   1.000  0.2582  0.3642  0.2266
 8699TIP3    H150292   4.681   3.151   1.061 -0.9087 -0.9566  1.3652
 8699TIP3    H250293   4.681   3.001   1.046  0.7763 -0.7472 -1.3779
 8700TIP3   OH250294   3.999   0.778   8.150 -0.1875  0.3445 -0.2507
 8700TIP3    H150295   3.946   0.721   8.093  0.1851 -0.2156 -0.0479
 8700TIP3    H250296   3.936   0.842   8.184 -0.8796 -0.6869  0.4849
 8701TIP3   OH250297   5.569   3.347   1.249 -0.0679 -0.0636 -0.2470
 8701TIP3    H150298   5.618   3.410   1.302  0.9265  0.3134 -1.5584
 8701TIP3    H250299   5.477   3.371   1.262  0.2610  1.2311 -0.1796
 8702TIP3   OH250300   0.901   0.025   0.491 -0.1689  0.4374 -0.2993
 8702TIP3    H150301   0.943  -0.030   0.424  1.0019  0.9319  0.0034
 8702TIP3    H250302   0.877   0.105   0.443 -0.5239  0.2595 -0.4172
 8703TIP3   OH250303   0.279   0.578   0.786  0.2042  0.1386 -0.0412
 8703TIP3    H150304   0.357   0.620   0.821 -1.1804  1.8074  1.2456
 8703TIP3    H250305   0.216   0.649   0.776 -1.6191 -1.3340  0.3639
 8704TIP3   OH250306   0.823   1.313   8.663 -0.1594  0.0324 -0.1429
 8704TIP3    H150307   0.873   1.375   8.611  0.3521 -0.5051 -0.3148
 8704TIP3    H250308   0.816   1.354   8.749  2.3008 -0.6690  0.4904
 8705TIP3   OH250309   1.898   1.022   9.584 -0.5364 -0.3801 -0.0072
 8705TIP3    H150310   1.826   1.054   9.638 -2.2616 -0.3471 -2.1514
 8705TIP3    H250311   1.886   1.066   9.500  2.3723  0.0489 -0.3024
 8706TIP3   OH250312   4.357   4.590   8.372  0.0119 -0.2402  0.3162
 8706TIP3    H150313   4.341   4.630   8.458  1.2803 -0.0047  0.4625
 8706TIP3    H250314   4.330   4.657   8.309 -1.8770 -0.7884  0.4862
 8707TIP3   OH250315   4.742   6.068   1.547  0.2074 -0.1673  0.4097
 8707TIP3    H150316   4.804   6.105   1.485  0.3565 -0.4163  0.4100
 8707TIP3    H250317   4.789   6.066   1.630 -0.0564  0.3431  0.5759
 8708TIP3   OH250318   7.338   0.681   0.230  0.1499 -0.6857 -0.4213
 8708TIP3    H150319   7.387   0.698   0.149 -1.0796  1.7358 -0.7514
 8708TIP3    H250320   7.404   0.685   0.299  0.7036  0.9524 -0.9976
 8709TIP3   OH250321   7.247   1.069   0.945 -0.3497  0.2636  0.5296
 8709TIP3    H150322   7.240   1.130   0.872 -0.7419  0.2249  0.5349
 8709TIP3    H250323   7.191   0.995   0.920  1.5753 -0.9979 -0.3748
 8710TIP3   OH250324   3.615   7.002   7.108  0.3816 -0.3888 -0.1667
 8710TIP3    H150325   3.640   7.028   7.197  1.8971 -0.4725 -0.5479
 8710TIP3    H250326   3.682   6.939   7.081 -0.6895 -1.2442 -0.9637
 8711TIP3   OH250327   7.348   5.486   2.945  0.9409 -0.3247  0.2957
 8711TIP3    H150328   7.257   5.464   2.963  1.1227 -1.7079 -0.3514
 8711TIP3    H250329   7.384   5.510   3.031  0.0616 -0.0724  0.6039
 8712TIP3   OH250330   1.849   0.894   9.064  0.9290  0.5871 -0.1327
 8712TIP3    H150331   1.811   0.808   9.086 -0.9299  1.2073 -0.6930
 8712TIP3    H250332   1.893   0.879   8.981 -0.4033  0.3920 -0.8432
 8713TIP3   OH250333   4.858   4.402   8.550  0.4595  0.2159 -0.1121
 8713TIP3    H150334   4.780   4.437   8.506  0.6068  0.5766 -0.0903
 8713TIP3    H250335   4.847   4.426   8.642  1.3317  1.6415 -0.3500
 8714TIP3   OH250336   0.697   0.111   1.252 -0.4510  0.1670  1.0773
 8714TIP3    H150337   0.657   0.185   1.206 -0.1019 -1.2738 -1.7819
 8714TIP3    H250338   0.623   0.063   1.289 -1.3663 -1.2930 -2.3115
 8715TIP3   OH250339   5.870   4.931   0.875 -0.4322  0.3164 -0.0870
 8715TIP3    H150340   5.845   4.841   0.896 -0.6750  0.3308 -0.3168
 8715TIP3    H250341   5.902   4.927   0.785  0.7558  0.2288  0.3252
 8716TIP3   OH250342   7.403   0.453   9.903 -0.7022  0.3985 -0.5421
 8716TIP3    H150343   7.394   0.360   9.884  1.0850 -0.3397  1.7069
 8716TIP3    H250344   7.472   0.484   9.844 -0.5680  0.0323 -0.5777
 8717TIP3   OH250345   3.312   4.109   1.906  0.5283 -0.3345  0.2190
 8717TIP3    H150346   3.386   4.135   1.853 -0.1813 -0.6930 -0.9921
 8717TIP3    H250347   3.307   4.174   1.976  0.8413  0.7625 -0.7659
 8718TIP3   OH250348   2.487   4.044   8.902  0.1817  0.0164 -0.0567
 8718TIP3    H150349   2.459   4.132   8.877  0.6431 -0.2653 -1.7200
 8718TIP3    H250350   2.456   3.988   8.831 -0.1649 -1.1883  1.0074
 8719TIP3   OH250351   3.521   4.498   9.440  0.3079 -0.4231  0.1172
 8719TIP3    H150352   3.580   4.471   9.370 -0.1753  0.2093 -0.5547
 8719TIP3    H250353   3.434   4.496   9.400  0.1569  1.1571  0.3042
 8720TIP3   OH250354   6.658   3.053   1.889 -0.1258  0.3281  0.3940
 8720TIP3    H150355   6.623   2.992   1.953  0.6873  0.1178  0.6592
 8720TIP3    H250356   6.582   3.092   1.848 -0.6563 -0.2664  0.7980
 8721TIP3   OH250357   4.400   6.056   0.045 -0.8386  0.8268  0.4391
 8721TIP3    H150358   4.325   6.042  -0.013 -1.5746  0.1379  1.5267
 8721TIP3    H250359   4.419   5.969   0.082  1.3446  0.7035 -0.7944
 8722TIP3   OH250360   3.828   4.211   9.488  0.0923 -0.2347 -0.1311
 8722TIP3    H150361   3.843   4.120   9.461 -1.6508 -0.2571 -1.1302
 8722TIP3    H250362   3.745   4.235   9.448 -0.3064  1.2766  1.4820
 8723TIP3   OH250363   5.720   6.843   0.694  0.1171  0.6445 -0.4418
 8723TIP3    H150364   5.758   6.755   0.698  0.7122  0.9595  1.7633
 8723TIP3    H250365   5.705   6.858   0.600 -1.4115 -2.3840 -0.8082
 8724TIP3   OH250366   3.867   4.052   1.741 -0.5267  0.0674  0.1421
 8724TIP3    H150367   3.831   3.981   1.688  0.2799 -0.5557  0.4033
 8724TIP3    H250368   3.851   4.131   1.690 -1.7088 -0.2602 -0.0147
 8725TIP3   OH250369   2.047   6.711   8.669  0.8704  0.1992  0.2112
 8725TIP3    H150370   2.054   6.626   8.713 -0.1062 -0.3511 -0.6516
 8725TIP3    H250371   1.960   6.711   8.630  0.7460  1.7226  0.4115
 8726TIP3   OH250372   3.447   3.901   1.503  0.1909 -0.0684  0.4914
 8726TIP3    H150373   3.466   3.832   1.567 -0.7245 -0.6476  0.1659
 8726TIP3    H250374   3.473   3.982   1.547  1.2430 -0.6067  0.9035
 8727TIP3   OH250375   1.510   5.573   7.189 -0.6424 -0.5820  0.7275
 8727TIP3    H150376   1.462   5.627   7.126  0.1829 -0.4105  0.2369
 8727TIP3    H250377   1.452   5.569   7.266 -1.0808  0.3030  0.4597
 8728TIP3   OH250378   6.079   1.412   0.564 -0.0979  0.3682  0.2405
 8728TIP3    H150379   6.147   1.378   0.506  0.0433 -0.2714  0.7663
 8728TIP3    H250380   6.079   1.506   0.548  0.5772  0.3160 -0.1167
 8729TIP3   OH250381   6.484   0.890   0.571 -0.6361 -0.6145 -0.1322
 8729TIP3    H150382   6.423   0.932   0.632  1.5408 -0.6048  2.1822
 8729TIP3    H250383   6.551   0.956   0.555  0.8551 -1.9231  0.5673
 8730TIP3   OH250384   0.821   5.480   0.709  0.2007  0.2416 -0.3802
 8730TIP3    H150385   0.749   5.542   0.694 -0.0554  0.1413  0.3686
 8730TIP3    H250386   0.794   5.432   0.788  0.5553 -0.5929 -0.7593
 8731TIP3   OH250387   0.055   3.920   0.190  0.3572 -0.5557  0.1003
 8731TIP3    H150388   0.082   3.879   0.272  1.3688  1.0300  0.6192
 8731TIP3    H250389   0.000   3.994   0.218  0.2850 -0.3052 -0.6743
 8732TIP3   OH250390   3.143   2.504   7.279 -0.1982 -0.0103 -0.7212
 8732TIP3    H150391   3.086   2.455   7.221 -0.0856  1.5390 -2.2229
 8732TIP3    H250392   3.219   2.527   7.225 -0.2847  1.8314 -0.1362
 8733TIP3   OH250393   3.257   4.382   7.501  0.5908 -0.0489  0.0120
 8733TIP3    H150394   3.324   4.405   7.564  1.2183 -1.7458  0.0051
 8733TIP3    H250395   3.304   4.363   7.420  0.1051 -1.1107 -0.0384
 8734TIP3   OH250396   3.491   1.059   8.168 -0.1952 -0.1251  0.2129
 8734TIP3    H150397   3.490   1.043   8.263  0.1557  1.9455  0.6122
 8734TIP3    H250398   3.431   1.132   8.156  0.3572  0.1343 -1.0808
 8735TIP3   OH250399   5.773   3.249   9.579  0.3507 -0.1401 -0.2181
 8735TIP3    H150400   5.755   3.280   9.668  0.2837  0.1098 -0.3164
 8735TIP3    H250401   5.727   3.311   9.523  1.7799  0.7311 -0.4915
 8736TIP3   OH250402   4.817   2.388   1.680 -0.4094 -0.2439  1.0050
 8736TIP3    H150403   4.731   2.391   1.638 -0.9362 -1.3325  1.9812
 8736TIP3    H250404   4.806   2.438   1.761 -0.1062 -0.3479  1.1102
 8737TIP3   OH250405   4.297   6.024   2.291 -0.0869 -0.1780  0.0262
 8737TIP3    H150406   4.369   5.967   2.263  0.4454  0.7459 -0.5539
 8737TIP3    H250407   4.275   6.075   2.213 -1.1910 -0.2455  0.2762
 8738TIP3   OH250408   6.595   6.909   0.049 -0.0939  0.1711 -0.2739
 8738TIP3    H150409   6.506   6.924   0.019 -0.0205  0.9091 -0.1300
 8738TIP3    H250410   6.608   6.973   0.119  0.6704  0.3238 -0.5470
 8739TIP3   OH250411   0.446   4.213   2.838 -0.9665 -0.0983 -0.7857
 8739TIP3    H150412   0.445   4.271   2.763 -0.2247 -0.4583 -1.0851
 8739TIP3    H250413   0.486   4.132   2.806 -3.6921 -1.5408 -0.9210
 8740TIP3   OH250414   2.175   2.271   2.368 -0.5412  0.0848 -0.0267
 8740TIP3    H150415   2.129   2.188   2.373 -1.4118  0.4419 -1.5659
 8740TIP3    H250416   2.108   2.337   2.387 -0.6837  0.5919 -2.0193
 8741TIP3   OH250417   2.929   5.152   9.808  0.3169 -0.1226  0.2748
 8741TIP3    H150418   3.024   5.153   9.799  0.3999  0.0046  1.1045
 8741TIP3    H250419   2.907   5.060   9.820  0.4037 -0.0757  0.7828
 8742TIP3   OH250420   1.998   2.758   2.558  0.1315  0.1790  0.2229
 8742TIP3    H150421   1.931   2.819   2.587  0.8752  0.4789  1.3450
 8742TIP3    H250422   2.041   2.728   2.638 -0.9952 -2.7812 -0.1553
 8743TIP3   OH250423   4.660   3.476   0.571 -0.1374 -0.1331 -0.2950
 8743TIP3    H150424   4.663   3.538   0.645 -2.3951 -0.8396  0.4693
 8743TIP3    H250425   4.748   3.481   0.533  0.9557  0.6745  2.0916
 8744TIP3   OH250426   3.846   6.359   9.361  0.1400  0.0096  0.2659
 8744TIP3    H150427   3.845   6.328   9.270  1.2214 -1.0317  0.5785
 8744TIP3    H250428   3.939   6.357   9.385  0.1825  2.5964  0.6519
 8745TIP3   OH250429   5.718   4.936   9.666 -0.2224 -0.1063  0.0735
 8745TIP3    H150430   5.645   4.970   9.717  0.7156  1.6023  0.3406
 8745TIP3    H250431   5.773   4.891   9.730  0.4821  1.2411  0.4516
 8746TIP3   OH250432   5.223   6.607   9.988 -0.0853 -0.3327  0.1671
 8746TIP3    H150433   5.210   6.662   9.911 -0.3559 -0.5108  0.0845
 8746TIP3    H250434   5.282   6.538   9.958  0.7141  0.2237  0.4235
 8747TIP3   OH250435   1.581   6.886   7.504 -0.0087  0.3276  0.1839
 8747TIP3    H150436   1.543   6.827   7.439 -1.7949  2.3799 -0.7286
 8747TIP3    H250437   1.507   6.929   7.544  1.1348  0.0979  2.7141
 8748TIP3   OH250438   5.441   0.356   0.018  0.2614  0.1561  0.3891
 8748TIP3    H150439   5.527   0.383   0.051  0.2629  0.0870  0.4430
 8748TIP3    H250440   5.422   0.275   0.065  0.9207 -0.7389 -0.8235
 8749TIP3   OH250441   0.315   0.653   8.584  0.2045  0.5152  0.2804
 8749TIP3    H150442   0.408   0.670   8.595 -0.1892  1.3138  3.5497
 8749TIP3    H250443   0.273   0.739   8.595 -0.9586  0.0986 -0.6760
 8750TIP3   OH250444   1.138   6.028   8.684  0.3559  0.9095 -0.0365
 8750TIP3    H150445   1.126   6.101   8.623  1.2243  0.5427 -0.6769
 8750TIP3    H250446   1.130   6.068   8.771 -0.2788  1.5568 -0.3791
 8751TIP3   OH250447   5.851   5.399   9.583 -0.3145  0.3811 -0.0582
 8751TIP3    H150448   5.895   5.457   9.645 -2.0903  1.6333  0.1308
 8751TIP3    H250449   5.881   5.429   9.497  1.6954 -0.9750  0.1015
 8752TIP3   OH250450   5.400   6.022   9.017 -0.6226 -0.0259  0.1707
 8752TIP3    H150451   5.311   6.047   8.993 -0.4048 -0.3103 -1.0091
 8752TIP3    H250452   5.454   6.054   8.945  0.1849 -0.2066  0.6827
 8753TIP3   OH250453   4.362   4.709   9.850  0.1462  0.7837  0.0102
 8753TIP3    H150454   4.400   4.712   9.762 -0.4693  0.8846 -0.2615
 8753TIP3    H250455   4.272   4.677   9.835  0.0336  0.8224  0.6000
 8754TIP3   OH250456   6.771   0.504   9.828  0.2310 -0.4907  0.2722
 8754TIP3    H150457   6.762   0.439   9.898  2.4075  0.6305  1.7332
 8754TIP3    H250458   6.804   0.582   9.873 -1.7597  1.4830 -1.4948
 8755TIP3   OH250459   3.207   2.717   8.975 -0.0697  0.5423  0.0948
 8755TIP3    H150460   3.215   2.798   9.026  2.5990  1.6759 -1.9057
 8755TIP3    H250461   3.155   2.742   8.898 -0.9066 -0.1901  0.4089
 8756TIP3   OH250462   4.900   3.494   0.467 -0.0215 -0.3757 -0.5809
 8756TIP3    H150463   4.960   3.533   0.403 -1.2764  0.7097 -1.1346
 8756TIP3    H250464   4.957   3.443   0.525  1.3207 -0.1248 -1.6326
 8757TIP3   OH250465   0.432   4.159   1.269 -0.8868  0.2141  1.2115
 8757TIP3    H150466   0.425   4.067   1.243 -0.7369  0.4619  0.2557
 8757TIP3    H250467   0.392   4.207   1.197 -0.3963  0.9343  1.4086
 8758TIP3   OH250468   3.867   2.780   9.814 -0.5467 -0.2574  0.3938
 8758TIP3    H150469   3.839   2.751   9.727  1.8581  0.5464 -0.7128
 8758TIP3    H250470   3.814   2.858   9.831 -1.2792 -0.6150 -0.1601
 8759TIP3   OH250471   3.332   0.561   3.139 -0.4182  0.0972 -0.5552
 8759TIP3    H150472   3.323   0.555   3.234  1.2687  0.0539 -0.3827
 8759TIP3    H250473   3.290   0.481   3.107 -1.4373  0.3424  0.0899
 8760TIP3   OH250474   7.237   0.035   8.621 -0.0206  0.2617  0.4499
 8760TIP3    H150475   7.303   0.002   8.561  0.4880 -1.6649  1.9408
 8760TIP3    H250476   7.277   0.026   8.708 -2.7334 -2.7707  1.6231
 8761TIP3   OH250477   0.508   6.509   9.950  0.0694 -0.0598 -0.0775
 8761TIP3    H150478   0.480   6.536  10.038  0.8116  0.2667  0.0689
 8761TIP3    H250479   0.602   6.528   9.949  0.0140  0.1914 -1.0388
 8762TIP3   OH250480   1.945   3.320   2.533  0.4696 -0.6988 -0.2431
 8762TIP3    H150481   1.898   3.398   2.504  1.2878  0.8049  2.1902
 8762TIP3    H250482   2.029   3.324   2.487  0.8498  0.3833  0.5068
 8763TIP3   OH250483   1.580   6.714   9.461  0.3593 -0.0202 -0.6705
 8763TIP3    H150484   1.575   6.618   9.459 -0.9818  0.0398 -0.7980
 8763TIP3    H250485   1.515   6.741   9.526 -0.3065  0.8494 -1.6585
 8764TIP3   OH250486   0.550   5.233   1.294  0.3110  0.5502 -0.0654
 8764TIP3    H150487   0.471   5.188   1.325 -0.0983  0.9795 -0.4631
 8764TIP3    H250488   0.621   5.192   1.342 -0.2881  1.1051  1.3511
 8765TIP3   OH250489   3.685   1.535   8.526  0.2816 -0.1610  0.3554
 8765TIP3    H150490   3.669   1.475   8.453 -1.4057  1.4020 -0.6643
 8765TIP3    H250491   3.598   1.551   8.563  0.4238  2.6002 -0.2612
 8766TIP3   OH250492   2.948   6.167   7.953 -0.5834  0.0968 -0.1929
 8766TIP3    H150493   2.933   6.159   8.047 -0.9394 -1.4919 -0.3644
 8766TIP3    H250494   3.043   6.160   7.944 -0.4020  1.7166  0.1482
 8767TIP3   OH250495   2.040   0.392   8.286  0.6495 -0.3375 -0.0496
 8767TIP3    H150496   2.090   0.447   8.225 -1.5865  2.4036  0.3836
 8767TIP3    H250497   1.965   0.362   8.235 -0.3513  0.5864  0.8281
 8768TIP3   OH250498   4.813   0.362   9.409  0.0531  0.1494  0.6895
 8768TIP3    H150499   4.802   0.418   9.485 -0.0168  2.2814 -0.8130
 8768TIP3    H250500   4.899   0.321   9.421 -0.2606 -0.0883  2.2162
 8769TIP3   OH250501   5.480   1.308   2.039  0.1592  0.0380  0.1817
 8769TIP3    H150502   5.473   1.354   2.122  0.5196  0.1614  0.1434
 8769TIP3    H250503   5.571   1.321   2.011 -0.0822  0.4149 -0.4712
 8770TIP3   OH250504   0.895   6.570   1.728  0.1332  0.1976  0.2901
 8770TIP3    H150505   0.894   6.613   1.643  2.2183  1.0670  0.6512
 8770TIP3    H250506   0.980   6.526   1.732 -0.3159 -0.6165  1.5448
 8771TIP3   OH250507   1.038   2.058   9.483 -0.5023  0.0904  0.2972
 8771TIP3    H150508   0.962   2.033   9.536 -0.1925 -2.8953 -0.4790
 8771TIP3    H250509   1.111   2.058   9.545 -0.6233 -0.3575  0.4434
 8772TIP3   OH250510   5.001   6.968   2.533  0.1410  0.1500  0.1113
 8772TIP3    H150511   5.086   7.002   2.562 -0.5058  0.7099  1.4962
 8772TIP3    H250512   4.959   7.043   2.490 -1.1875  1.1865  2.9483
 8773TIP3   OH250513   2.898   6.529   7.622 -0.2505  0.5201 -0.4174
 8773TIP3    H150514   2.861   6.617   7.613 -1.6795 -0.0377 -0.3300
 8773TIP3    H250515   2.942   6.531   7.707 -1.3127  0.8147  0.1472
 8774TIP3   OH250516   6.541   1.201   8.976 -0.1288 -0.0914 -0.6323
 8774TIP3    H150517   6.550   1.141   8.902  0.1549  0.7807 -1.3259
 8774TIP3    H250518   6.447   1.220   8.980 -0.2079 -0.5186 -0.4609
 8775TIP3   OH250519   4.486   5.968   1.734 -0.1673  0.0354 -0.6053
 8775TIP3    H150520   4.460   6.036   1.797  0.1730  0.4966 -0.9546
 8775TIP3    H250521   4.477   5.886   1.782 -0.9849  0.2920 -0.3035
 8776TIP3   OH250522   2.640   0.825   9.985  0.4586 -0.6302 -0.1190
 8776TIP3    H150523   2.732   0.802   9.997  0.4216 -0.0862  1.3844
 8776TIP3    H250524   2.624   0.896  10.047 -1.9431 -3.2192  2.5761
 8777TIP3   OH250525   5.598   2.993   9.896 -0.7151  0.4022 -0.2700
 8777TIP3    H150526   5.624   2.986   9.988  0.5247 -0.8701 -0.6875
 8777TIP3    H250527   5.517   2.942   9.890 -1.9583  2.1523  0.4755
 8778TIP3   OH250528   5.830   6.116   9.296 -0.0563 -0.5851 -0.1840
 8778TIP3    H150529   5.782   6.157   9.367 -2.2940  0.2204 -2.0663
 8778TIP3    H250530   5.816   6.022   9.309 -1.0645 -0.4125  0.0293
 8779TIP3   OH250531   1.618   3.880   9.966  0.6308  0.5134  0.3123
 8779TIP3    H150532   1.566   3.820   9.913  1.4099 -0.9942  1.1840
 8779TIP3    H250533   1.601   3.967   9.929 -0.3631 -0.2622 -1.1176
 8780TIP3   OH250534   6.248   1.135   0.730  0.1408  0.1789  0.5070
 8780TIP3    H150535   6.199   1.061   0.695 -0.7036  0.4626  1.0544
 8780TIP3    H250536   6.268   1.190   0.654 -1.1271  0.4809  0.3788
 8781TIP3   OH250537   3.426   2.649   1.082  0.4313 -0.1432 -0.3268
 8781TIP3    H150538   3.376   2.570   1.063  1.4823 -1.2273  1.1683
 8781TIP3    H250539   3.375   2.693   1.150  0.9179 -0.6598  0.3808
 8782TIP3   OH250540   5.115   0.766   0.525 -0.2110 -0.4609  0.3032
 8782TIP3    H150541   5.196   0.787   0.479  0.2188 -0.7702  0.9058
 8782TIP3    H250542   5.129   0.796   0.615 -0.7493 -0.5561  0.4257
 8783TIP3   OH250543   2.463   3.581   1.897 -0.0353 -0.1311  0.1310
 8783TIP3    H150544   2.450   3.491   1.865  0.9293  0.1284 -1.0667
 8783TIP3    H250545   2.432   3.636   1.825  1.5706  0.4732 -0.1369
 8784TIP3   OH250546   6.613   4.455   0.397 -0.2362 -0.0340  0.2042
 8784TIP3    H150547   6.545   4.412   0.344 -0.5990 -0.1351  0.7359
 8784TIP3    H250548   6.691   4.454   0.342 -0.1138 -1.7792  0.3516
 8785TIP3   OH250549   7.167   0.588   7.844 -0.3396 -0.3710  0.9988
 8785TIP3    H150550   7.129   0.614   7.760 -1.6700  0.6094  1.8597
 8785TIP3    H250551   7.244   0.536   7.820 -2.3069 -2.6823 -0.8639
 8786TIP3   OH250552   0.718   6.192   1.478 -0.1425  0.0471  0.4631
 8786TIP3    H150553   0.667   6.266   1.513  0.0797  0.2970  0.2685
 8786TIP3    H250554   0.809   6.216   1.496 -0.1135 -0.6419  1.2812
 8787TIP3   OH250555   0.366   5.581   1.712 -0.5605  0.0623  0.6696
 8787TIP3    H150556   0.323   5.527   1.646 -0.2479  2.0223 -1.2594
 8787TIP3    H250557   0.457   5.588   1.683  0.1526 -0.7368  2.5053
 8788TIP3   OH250558   5.725   1.470   1.302  0.1207  0.1796  0.0740
 8788TIP3    H150559   5.819   1.452   1.302  0.0835 -0.0515 -0.6000
 8788TIP3    H250560   5.684   1.383   1.300 -0.1212  0.2608  1.0916
 8789TIP3   OH250561   7.363   2.521   0.672  0.7795 -0.0170  0.2660
 8789TIP3    H150562   7.327   2.444   0.628  1.8150 -1.0013  1.0856
 8789TIP3    H250563   7.299   2.542   0.740  1.5035 -1.5529  1.5029
 8790TIP3   OH250564   5.821   6.458   8.688  0.5865  0.3018  0.2988
 8790TIP3    H150565   5.736   6.477   8.649  0.9127  1.9310  0.3110
 8790TIP3    H250566   5.878   6.439   8.613  0.9087  2.2107 -0.0099
 8791TIP3   OH250567   1.546   0.691   1.434  0.2292  0.1097  0.0664
 8791TIP3    H150568   1.496   0.636   1.495  0.7022  0.5774  0.8899
 8791TIP3    H250569   1.634   0.694   1.471  0.5438  0.3406 -0.6868
 8792TIP3   OH250570   2.331   0.664   9.724  0.0171  0.0235 -0.5005
 8792TIP3    H150571   2.366   0.610   9.795  1.1784 -1.3946 -2.0940
 8792TIP3    H250572   2.282   0.603   9.669 -1.4851  1.2367 -0.5612
 8793TIP3   OH250573   6.262   7.292   9.665 -0.0840 -0.8910  0.0203
 8793TIP3    H150574   6.268   7.286   9.570  2.7589  1.0397 -0.0425
 8793TIP3    H250575   6.307   7.213   9.697  1.1341 -0.3447 -0.2959
 8794TIP3   OH250576   1.303   4.685   1.364  0.1502  0.2963 -0.0044
 8794TIP3    H150577   1.385   4.638   1.378  0.0335  0.2050  0.3899
 8794TIP3    H250578   1.297   4.745   1.438 -0.8646 -0.7422  0.7918
 8795TIP3   OH250579   3.058   7.416   0.482  0.1884  0.2349  0.3953
 8795TIP3    H150580   3.138   7.427   0.532 -0.4883 -0.4898  1.6767
 8795TIP3    H250581   3.033   7.505   0.456 -0.7110  0.9721  3.4088
 8796TIP3   OH250582   5.840   3.636   0.381  0.2385  0.1296 -0.2053
 8796TIP3    H150583   5.908   3.641   0.314  0.0959 -2.7227 -0.6950
 8796TIP3    H250584   5.883   3.597   0.457 -0.0758  1.4977  0.7139
 8797TIP3   OH250585   1.940   0.992   7.685 -0.9358 -0.8467  0.2498
 8797TIP3    H150586   1.963   0.936   7.610  1.5938 -0.2603  0.4878
 8797TIP3    H250587   1.936   1.080   7.648  0.3810 -0.5463  0.7596
 8798TIP3   OH250588   3.965   3.234   0.522  0.0496 -0.2243 -0.3988
 8798TIP3    H150589   3.920   3.317   0.505  1.2844 -0.0608 -3.7255
 8798TIP3    H250590   4.051   3.260   0.557 -1.1444 -0.4246  3.0547
 8799TIP3   OH250591   5.369   6.380   7.794 -0.2660  0.5873  0.6999
 8799TIP3    H150592   5.292   6.326   7.811 -1.4284  1.6253 -0.9365
 8799TIP3    H250593   5.388   6.366   7.701  1.3854  0.5484  1.0167
 8800TIP3   OH250594   4.988   3.865   2.489 -0.3423  0.2889  0.0733
 8800TIP3    H150595   5.084   3.864   2.487 -0.2850  2.0256 -1.3557
 8800TIP3    H250596   4.967   3.944   2.538 -1.0237  0.2578 -0.1617
 8801TIP3   OH250597   2.503   4.998   8.513  0.2639  0.3493 -0.7097
 8801TIP3    H150598   2.574   5.001   8.576 -0.4793 -3.1248  0.4963
 8801TIP3    H250599   2.530   4.931   8.450 -1.8522 -1.0180 -0.2417
 8802TIP3   OH250600   5.392   1.916   9.242  0.2060  0.7674 -0.6889
 8802TIP3    H150601   5.483   1.907   9.271  0.6127  1.2758 -1.7526
 8802TIP3    H250602   5.398   1.966   9.161 -1.0655  1.1398 -0.5707
 8803TIP3   OH250603   3.843   0.729   1.939 -0.1167 -0.1818  0.0156
 8803TIP3    H150604   3.837   0.821   1.914 -0.1465 -0.3822 -0.7584
 8803TIP3    H250605   3.845   0.729   2.035 -1.2529  0.5662  0.0544
 8804TIP3   OH250606   2.994   5.583   6.354 -0.1944 -0.1352 -1.1181
 8804TIP3    H150607   3.086   5.563   6.335  0.3086  0.1882  0.7869
 8804TIP3    H250608   2.988   5.678   6.348  0.3860  0.1558  1.7050
 8805TIP3   OH250609   3.494   2.716   7.289 -0.3215  0.0268 -0.1279
 8805TIP3    H150610   3.429   2.766   7.339  0.7446  1.3876 -0.0751
 8805TIP3    H250611   3.564   2.778   7.271  0.5898 -1.1963 -0.9285
 8806TIP3   OH250612   4.081   6.837   7.541  0.1625 -0.5892 -0.5692
 8806TIP3    H150613   4.047   6.755   7.503 -1.9667  0.5698 -1.3455
 8806TIP3    H250614   4.053   6.905   7.480  1.5449  0.7927  0.2651
 8807TIP3   OH250615   0.186   1.562   9.164 -0.2431  0.0125 -1.1668
 8807TIP3    H150616   0.209   1.626   9.231 -0.7577 -0.6306 -0.3485
 8807TIP3    H250617   0.207   1.605   9.081  0.0142  0.9847 -0.6134
 8808TIP3   OH250618   0.984   5.984   1.324  0.5250  0.2679  0.6077
 8808TIP3    H150619   1.047   6.056   1.324  2.7790 -1.5650 -0.2735
 8808TIP3    H250620   0.959   5.974   1.232  2.4504 -1.7344  0.1903
 8809TIP3   OH250621   0.740   0.726   1.172 -0.4507 -0.1082  0.0148
 8809TIP3    H150622   0.830   0.696   1.173 -0.6413 -0.6820 -0.0468
 8809TIP3    H250623   0.688   0.651   1.200 -0.8447  0.4540  0.8639
 8810TIP3   OH250624   0.942   6.065   1.898 -0.0436 -0.2179 -0.0242
 8810TIP3    H150625   1.003   6.061   1.825 -0.0417 -2.5949  0.0327
 8810TIP3    H250626   0.856   6.051   1.859 -0.2911  0.6505  0.1902
 8811TIP3   OH250627   3.621   2.472   7.828  0.1947 -0.1645 -0.0489
 8811TIP3    H150628   3.603   2.562   7.802  0.0434 -0.5192 -1.1957
 8811TIP3    H250629   3.536   2.427   7.823  0.2131 -0.3248  0.7842
 8812TIP3   OH250630   3.889   6.273   0.918 -0.1711 -0.3525 -0.0717
 8812TIP3    H150631   3.915   6.268   0.826 -2.2168  0.0903 -0.7228
 8812TIP3    H250632   3.870   6.183   0.943 -2.7150 -0.1868 -1.1087
 8813TIP3   OH250633   5.965   2.227   9.063 -0.0652  0.1768  0.0456
 8813TIP3    H150634   5.908   2.176   9.005 -3.0930  0.9215  2.0954
 8813TIP3    H250635   5.929   2.212   9.151  1.1147  3.0196  1.1283
 8814TIP3   OH250636   7.417   5.900   7.774 -0.1943  0.1712  0.2064
 8814TIP3    H150637   7.511   5.891   7.793 -0.5402 -0.8288  1.6380
 8814TIP3    H250638   7.404   5.994   7.760  1.2990  0.1503 -1.7506
 8815TIP3   OH250639   6.592   5.846   1.679 -0.0328  0.2094  0.0608
 8815TIP3    H150640   6.503   5.836   1.645 -0.2098 -0.2057  0.6264
 8815TIP3    H250641   6.621   5.757   1.700  0.1720  0.4194  0.7181
 8816TIP3   OH250642   5.481   4.801   0.904 -0.0982  0.8742 -0.1989
 8816TIP3    H150643   5.528   4.809   0.988 -2.7090  3.1140  1.2069
 8816TIP3    H250644   5.440   4.714   0.908  0.2514  0.7338  0.5644
 8817TIP3   OH250645   4.619   6.723   9.687  0.3088  0.4000 -0.2953
 8817TIP3    H150646   4.657   6.680   9.763  0.2913 -0.4574 -0.7594
 8817TIP3    H250647   4.538   6.675   9.669  0.6072  0.2105 -1.2022
 8818TIP3   OH250648   1.311   0.078   0.606  0.2340 -0.0916  0.3547
 8818TIP3    H150649   1.402   0.104   0.613  0.3355 -0.3681  0.0838
 8818TIP3    H250650   1.284   0.110   0.520  0.2067 -0.4063  0.2447
 8819TIP3   OH250651   0.076   1.154   1.527  0.1637 -0.0652  0.0718
 8819TIP3    H150652   0.085   1.238   1.484  2.0981 -0.5626 -0.5921
 8819TIP3    H250653   0.134   1.159   1.603  0.2260 -0.7706  0.0820
 8820TIP3   OH250654   2.317   1.348   8.394  0.2756  0.1840 -0.4023
 8820TIP3    H150655   2.366   1.419   8.352  0.3634  0.0855 -0.4666
 8820TIP3    H250656   2.367   1.328   8.473  1.4642 -1.2833 -1.4719
 8821TIP3   OH250657   0.806   0.364   9.681 -0.0660  0.1174  0.5249
 8821TIP3    H150658   0.807   0.294   9.746  0.8170 -1.0279 -0.6511
 8821TIP3    H250659   0.883   0.417   9.701  0.1593 -0.1870  0.4760
 8822TIP3   OH250660   6.275   1.044   8.898  0.0798  0.0833 -0.0120
 8822TIP3    H150661   6.305   1.037   8.989 -1.0411  0.2708  0.3877
 8822TIP3    H250662   6.235   1.131   8.892 -1.7775 -0.7229 -0.0574
 8823TIP3   OH250663   6.238   5.655   7.679 -0.7534  0.1953 -0.0894
 8823TIP3    H150664   6.315   5.712   7.686  0.5958 -1.6485  0.6805
 8823TIP3    H250665   6.226   5.619   7.766 -0.5497 -1.9571 -0.9021
 8824TIP3   OH250666   1.969   4.605   2.422 -0.1210 -0.3393 -0.3358
 8824TIP3    H150667   1.877   4.609   2.449 -0.2446  1.6022 -0.9035
 8824TIP3    H250668   2.017   4.643   2.496  0.4393 -2.6981  0.6009
 8825TIP3   OH250669   2.964   5.621   1.113  0.0836  0.1765 -0.8452
 8825TIP3    H150670   3.018   5.684   1.065  0.1268  0.0532 -0.9608
 8825TIP3    H250671   3.026   5.558   1.148  0.0244  0.0904 -0.8930
 8826TIP3   OH250672   4.565   6.006   0.920 -0.2433 -0.3234  0.3603
 8826TIP3    H150673   4.650   6.035   0.954  0.3189 -0.8553 -0.5463
 8826TIP3    H250674   4.542   5.931   0.975  0.4794 -0.9460 -0.1546
 8827TIP3   OH250675   7.054   7.370   8.919 -0.3022 -0.1073 -0.3031
 8827TIP3    H150676   7.055   7.445   8.978 -1.5584  0.5803 -1.1117
 8827TIP3    H250677   6.965   7.368   8.883  0.3759 -0.5273 -2.1085
 8828TIP3   OH250678   7.146   2.437   8.352  0.8810 -0.7103 -0.8150
 8828TIP3    H150679   7.193   2.518   8.333 -0.6353  0.0939 -1.2968
 8828TIP3    H250680   7.185   2.405   8.433  1.1471  0.7950 -0.3136
 8829TIP3   OH250681   3.253   0.176   8.732 -0.3155  0.8986 -0.3738
 8829TIP3    H150682   3.218   0.118   8.665 -0.6278 -2.3492  2.3367
 8829TIP3    H250683   3.347   0.155   8.735 -0.1357  1.6657 -0.3665
 8830TIP3   OH250684   7.345   0.171   8.940  0.0903 -0.0689 -0.0969
 8830TIP3    H150685   7.297   0.136   9.015  1.8714  1.3445  1.8122
 8830TIP3    H250686   7.277   0.207   8.882 -1.2778 -0.3517  1.2752
 8831TIP3   OH250687   4.724   2.329   0.483 -0.0251  0.3768 -0.7428
 8831TIP3    H150688   4.685   2.376   0.409 -0.0265 -0.8412 -1.5464
 8831TIP3    H250689   4.658   2.265   0.508 -0.0126  0.7620  0.3200
 8832TIP3   OH250690   4.281   6.390   0.980 -0.1214 -0.1053  0.4170
 8832TIP3    H150691   4.280   6.318   0.917  0.3564  0.7754 -0.6264
 8832TIP3    H250692   4.374   6.402   1.000 -0.2084  0.1410  0.6731
 8833TIP3   OH250693   0.663   4.757   8.013 -0.2053  0.0459  0.6443
 8833TIP3    H150694   0.621   4.829   7.966 -0.4738 -0.2860  0.3764
 8833TIP3    H250695   0.614   4.679   7.988 -0.7885 -0.0565  2.0055
 8834TIP3   OH250696   3.266   4.956   1.262 -0.2279 -0.1951  0.5869
 8834TIP3    H150697   3.214   4.939   1.340 -0.4448  0.5993  0.6228
 8834TIP3    H250698   3.339   5.009   1.292  0.2248 -0.7062  0.4113
 8835TIP3   OH250699   1.017   6.472   0.243 -0.2438 -0.1310 -0.5707
 8835TIP3    H150700   1.110   6.467   0.264 -0.3336 -2.0283 -0.4665
 8835TIP3    H250701   1.004   6.561   0.209  1.4442  0.3965  0.0816
 8836TIP3   OH250702   5.465   3.458   1.565  0.3059 -0.5054 -0.1189
 8836TIP3    H150703   5.535   3.396   1.586 -0.0060 -0.7060  0.3625
 8836TIP3    H250704   5.499   3.509   1.492  0.4261 -1.4733 -0.7478
 8837TIP3   OH250705   0.551   2.642   3.069  0.6312  0.3228  0.0752
 8837TIP3    H150706   0.488   2.570   3.072  1.7956 -0.7057  1.8837
 8837TIP3    H250707   0.599   2.629   2.988 -1.6255  1.3538 -1.5565
 8838TIP3   OH250708   1.376   6.617   7.565  0.3518 -0.0518 -0.2606
 8838TIP3    H150709   1.313   6.627   7.493  0.8822 -0.4766 -0.7904
 8838TIP3    H250710   1.344   6.677   7.632 -1.4658 -1.2993  0.0658
 8839TIP3   OH250711   2.414   4.854   1.677  0.2799 -0.2246 -0.2999
 8839TIP3    H150712   2.494   4.840   1.626  0.2167  0.5637 -0.6218
 8839TIP3    H250713   2.381   4.939   1.648  1.4105  1.3262  2.5569
 8840TIP3   OH250714   0.741   0.049   9.104  0.2682 -0.2741  0.3321
 8840TIP3    H150715   0.755  -0.025   9.045  0.4529  1.0877 -1.4055
 8840TIP3    H250716   0.746   0.011   9.192  2.5230 -1.9655 -0.4410
 8841TIP3   OH250717   0.163   4.079   9.183 -0.4404  0.1878  0.4991
 8841TIP3    H150718   0.131   4.152   9.131  1.5775  0.5649 -0.2954
 8841TIP3    H250719   0.253   4.102   9.204 -0.2481 -1.3734  1.5555
 8842TIP3   OH250720   7.188   3.394   2.548 -0.0004 -0.3472 -0.3870
 8842TIP3    H150721   7.117   3.411   2.486 -0.0757  0.0267 -0.2042
 8842TIP3    H250722   7.144   3.373   2.630  0.0680  1.2831  0.1133
 8843TIP3   OH250723   1.670   1.735   1.251  0.5970 -0.1346  0.8992
 8843TIP3    H150724   1.653   1.778   1.167  0.8409 -2.1070 -0.2107
 8843TIP3    H250725   1.724   1.660   1.229  0.6681 -0.7065  2.8416
 8844TIP3   OH250726   2.810   6.820   9.811 -0.0795  0.5613 -0.0909
 8844TIP3    H150727   2.849   6.735   9.833 -1.2906  0.4192  1.7742
 8844TIP3    H250728   2.719   6.800   9.790  0.1617  1.1747 -1.8396
 8845TIP3   OH250729   3.499   6.291   3.275 -0.3789 -0.4660  0.5324
 8845TIP3    H150730   3.404   6.290   3.260 -0.3130 -1.5731  0.1142
 8845TIP3    H250731   3.520   6.202   3.302  0.6615 -0.4276 -0.1047
 8846TIP3   OH250732   1.871   2.568   2.139 -0.2328  0.0976  0.2213
 8846TIP3    H150733   1.936   2.538   2.075  0.1636  0.4968  0.4291
 8846TIP3    H250734   1.790   2.522   2.114  0.0926 -0.3033 -0.1216
 8847TIP3   OH250735   0.451   3.658   1.651 -0.1820 -0.0180  0.5173
 8847TIP3    H150736   0.411   3.745   1.658  0.3141  0.2185  0.4489
 8847TIP3    H250737   0.381   3.602   1.617  0.4309  1.0854 -2.9219
 8848TIP3   OH250738   7.383   7.050   0.524  0.3368 -0.2593 -0.5354
 8848TIP3    H150739   7.420   7.138   0.515  0.7291 -0.2548  0.9175
 8848TIP3    H250740   7.288   7.065   0.529  0.4680  0.2464  1.1282
 8849TIP3   OH250741   0.175   5.263   1.843  0.0963 -0.1118  0.6834
 8849TIP3    H150742   0.117   5.217   1.782  1.8144 -0.2649 -0.9397
 8849TIP3    H250743   0.176   5.208   1.921  1.1042 -2.2745 -0.7374
 8850TIP3   OH250744   5.677   0.116   2.052 -0.0614  0.1430 -0.7196
 8850TIP3    H150745   5.735   0.093   2.124 -1.2627 -1.1096 -0.0995
 8850TIP3    H250746   5.658   0.209   2.066  1.7137  0.5689 -0.9234
 8851TIP3   OH250747   3.448   5.947   7.952  0.2298  0.1997  0.1560
 8851TIP3    H150748   3.539   5.938   7.923  0.4170 -1.5166  1.1024
 8851TIP3    H250749   3.451   6.016   8.018  0.8555  0.1578  0.1811
 8852TIP3   OH250750   3.919   5.135   1.408 -0.4749 -0.0657  0.9586
 8852TIP3    H150751   3.846   5.196   1.399  0.0305  0.5721  1.1190
 8852TIP3    H250752   3.879   5.048   1.401 -1.6153  0.1783  3.4899
 8853TIP3   OH250753   2.967   6.639   8.071  0.1961 -0.3503 -0.0473
 8853TIP3    H150754   2.975   6.590   8.153 -1.4886 -1.8753 -0.7375
 8853TIP3    H250755   3.022   6.716   8.084 -0.2030 -0.4315  2.5900
 8854TIP3   OH250756   0.936   4.910   1.611  0.1093 -0.0126  0.5862
 8854TIP3    H150757   0.879   4.933   1.684 -0.0817  1.1433  0.0810
 8854TIP3    H250758   1.021   4.947   1.634  0.2208 -0.2200  0.5162
 8855TIP3   OH250759   0.970   5.654   1.279 -0.0037  0.3707 -0.1026
 8855TIP3    H150760   1.039   5.675   1.341  0.1579  1.6510 -0.7063
 8855TIP3    H250761   0.889   5.663   1.330  0.1737  0.5287  0.1523
 8856TIP3   OH250762   0.071   3.823   0.479 -0.3387  0.2356  0.4737
 8856TIP3    H150763   0.042   3.751   0.422 -0.1789 -0.0079  0.7016
 8856TIP3    H250764   0.145   3.787   0.528 -0.6537  0.3522  1.0415
 8857TIP3   OH250765   4.356   2.889   9.303 -0.2756  0.8113 -0.2906
 8857TIP3    H150766   4.436   2.836   9.295 -0.1246  0.7229  1.4608
 8857TIP3    H250767   4.387   2.975   9.331 -0.7552  0.9515 -0.1926
 8858TIP3   OH250768   2.705   3.727   7.433  0.7947  0.5748 -0.5091
 8858TIP3    H150769   2.629   3.759   7.481  0.3544 -1.5170  0.2816
 8858TIP3    H250770   2.779   3.747   7.489  0.2564 -2.1822  1.4180
 8859TIP3   OH250771   4.582   6.156   1.299  0.2259  1.1694  0.4767
 8859TIP3    H150772   4.663   6.206   1.308 -0.2183  1.8277  0.9570
 8859TIP3    H250773   4.517   6.222   1.272 -0.2610  0.7556  0.6322
 8860TIP3   OH250774   2.638   5.236   1.124  0.4132 -0.4434  0.5194
 8860TIP3    H150775   2.674   5.244   1.036  1.0983 -1.1171  0.7194
 8860TIP3    H250776   2.543   5.244   1.113  0.6117  2.8457  0.1337
 8861TIP3   OH250777   5.875   6.499   7.238  0.0478 -0.2433  0.0410
 8861TIP3    H150778   5.876   6.418   7.188  1.4080 -0.0160 -0.3356
 8861TIP3    H250779   5.950   6.492   7.297 -0.8008  0.0304  1.1915
 8862TIP3   OH250780   2.434   0.367   2.169  0.1788 -0.1172 -0.3417
 8862TIP3    H150781   2.347   0.382   2.206 -0.2444  0.0068 -1.3613
 8862TIP3    H250782   2.463   0.285   2.209 -1.4514 -1.4790 -1.7828
 8863TIP3   OH250783   5.266   1.117   0.856 -0.4215  0.0424  0.3960
 8863TIP3    H150784   5.221   1.147   0.934  0.0934  2.9498 -0.3120
 8863TIP3    H250785   5.205   1.134   0.784 -0.5895 -1.8865  0.0045
 8864TIP3   OH250786   4.329   0.999   8.287  0.4971 -0.3577  0.3601
 8864TIP3    H150787   4.323   0.914   8.331  2.5104 -0.6543  0.1872
 8864TIP3    H250788   4.386   0.983   8.212 -1.2048  0.6032 -1.2206
 8865TIP3   OH250789   3.513   6.348   9.698 -0.4834 -0.3938  0.0223
 8865TIP3    H150790   3.503   6.364   9.604 -0.3378 -2.0742 -0.3049
 8865TIP3    H250791   3.483   6.429   9.740 -0.8815  0.2403 -1.4546
 8866TIP3   OH250792   4.557   2.828   7.508 -0.1081 -0.2906  0.0082
 8866TIP3    H150793   4.639   2.876   7.510  0.2723 -0.8677 -1.0298
 8866TIP3    H250794   4.492   2.891   7.476  0.3094 -0.3500 -0.9777
 8867TIP3   OH250795   5.571   3.727   0.317 -0.0254 -0.1909 -0.4799
 8867TIP3    H150796   5.651   3.687   0.350 -0.1112  0.5790  0.7518
 8867TIP3    H250797   5.513   3.730   0.393 -1.0582 -0.3069 -1.2375
 8868TIP3   OH250798   2.585   7.318   2.410 -0.0187  0.4754 -0.1787
 8868TIP3    H150799   2.600   7.234   2.367  0.6875 -0.5525  1.9015
 8868TIP3    H250800   2.670   7.363   2.405 -0.8007  1.8884 -2.7361
 8869TIP3   OH250801   3.695   2.228   0.611 -0.1842  0.0090 -0.5614
 8869TIP3    H150802   3.709   2.322   0.623  0.2369  0.1534 -2.0239
 8869TIP3    H250803   3.784   2.193   0.601 -0.3958 -0.4157 -0.9185
 8870TIP3   OH250804   5.343   6.319   8.741  0.0726  0.0740  0.0366
 8870TIP3    H150805   5.342   6.377   8.664 -1.8674 -0.0750 -0.0922
 8870TIP3    H250806   5.325   6.232   8.705 -0.6368 -0.0276  0.6330
 8871TIP3   OH250807   4.183   1.126   8.061  0.6777  0.2740 -0.5928
 8871TIP3    H150808   4.155   1.101   8.149  2.8087 -0.4936 -0.0744
 8871TIP3    H250809   4.107   1.171   8.024 -0.7852 -0.6643  1.0913
 8872TIP3   OH250810   3.638   2.798   9.637  0.1694 -0.4442  0.2416
 8872TIP3    H150811   3.555   2.813   9.681  0.8401 -0.4199  1.5471
 8872TIP3    H250812   3.673   2.886   9.622  1.5657 -0.4360  2.9358
 8873TIP3   OH250813   1.933   5.197   0.887 -0.0758 -0.2915  0.8319
 8873TIP3    H150814   1.980   5.240   0.815  1.2319 -2.0288  0.5822
 8873TIP3    H250815   1.901   5.269   0.941  2.4163  1.0046  0.7195
 8874TIP3   OH250816   5.220   3.815   1.580  0.0657  0.4104  0.3803
 8874TIP3    H150817   5.265   3.762   1.646  0.0468  0.1143  0.1525
 8874TIP3    H250818   5.131   3.780   1.578 -0.4407  1.5472  1.4494
 8875TIP3   OH250819   4.053   2.587   2.479  0.1831  0.4105 -0.5303
 8875TIP3    H150820   4.072   2.680   2.465 -0.0221  0.5909  0.3302
 8875TIP3    H250821   4.137   2.543   2.467  0.2308  0.6631 -1.2057
 8876TIP3   OH250822   5.455   2.867   0.144 -0.2392  0.5681 -0.5306
 8876TIP3    H150823   5.388   2.875   0.076  1.5765  0.0462 -2.4860
 8876TIP3    H250824   5.500   2.786   0.124  1.0516  0.9456  0.6874
 8877TIP3   OH250825   6.670   2.236   9.183 -0.4421  0.3920 -0.0326
 8877TIP3    H150826   6.709   2.221   9.097 -0.1219 -1.5356  0.3866
 8877TIP3    H250827   6.742   2.272   9.236  0.1953 -1.0154  0.1242
 8878TIP3   OH250828   3.667   4.098   9.094  0.0236 -0.1898 -0.3022
 8878TIP3    H150829   3.689   4.155   9.167 -0.7037 -1.4288  0.9223
 8878TIP3    H250830   3.602   4.037   9.129 -0.6332 -0.5861 -2.0832
 8879TIP3   OH250831   4.676   6.013   9.276 -0.3229 -0.9789  0.6728
 8879TIP3    H150832   4.668   6.049   9.187  1.6964 -2.2745 -0.0945
 8879TIP3    H250833   4.598   6.045   9.321  0.1830  2.4492 -0.5738
 8880TIP3   OH250834   1.180   4.578   1.156  0.1924  0.3241 -0.3021
 8880TIP3    H150835   1.133   4.657   1.133 -0.1725 -0.1956 -1.4344
 8880TIP3    H250836   1.228   4.600   1.235 -0.5278  1.4215 -0.1566
 8881TIP3   OH250837   6.556   5.072   8.612  0.2227 -0.6422 -0.3697
 8881TIP3    H150838   6.644   5.070   8.649 -0.5423 -1.9938  1.5569
 8881TIP3    H250839   6.523   5.159   8.634  0.4709 -0.7540  0.4896
 8882TIP3   OH250840   1.438   6.703   9.729  0.0189 -0.2939 -0.2268
 8882TIP3    H150841   1.390   6.780   9.762  1.7694  1.7927 -2.2362
 8882TIP3    H250842   1.504   6.686   9.796 -0.8960 -0.6190  0.6227
 8883TIP3   OH250843   1.815   0.970   9.990 -0.2712  0.1824  0.6108
 8883TIP3    H150844   1.873   0.919   9.933 -1.0393  3.5054 -3.6201
 8883TIP3    H250845   1.874   1.026  10.041  0.3388 -0.2103  0.3516
 8884TIP3   OH250846   1.687   4.289   2.422 -0.3283  0.0390 -0.2380
 8884TIP3    H150847   1.701   4.375   2.462  0.8736 -0.1495 -0.2178
 8884TIP3    H250848   1.685   4.228   2.496  0.8135 -0.1769 -0.3635
 8885TIP3   OH250849   3.475   1.819   9.872 -0.4881  0.2585 -0.3559
 8885TIP3    H150850   3.480   1.901   9.921 -0.4907  0.2803 -0.3918
 8885TIP3    H250851   3.565   1.801   9.846 -0.1897 -0.7593  1.3003
 8886TIP3   OH250852   2.099   4.550   1.263  0.2598  0.4246  0.0962
 8886TIP3    H150853   2.192   4.536   1.243  0.3962  0.5704  0.6062
 8886TIP3    H250854   2.094   4.643   1.287  0.3358  0.0084  1.8821
 8887TIP3   OH250855   0.711   4.546   8.746 -0.4856 -0.2397  0.2542
 8887TIP3    H150856   0.684   4.484   8.678 -0.1160  0.7025 -0.7793
 8887TIP3    H250857   0.652   4.621   8.734 -0.0097  0.1898  0.5606
 8888TIP3   OH250858   4.744   1.123   0.410  0.2777  0.2913 -0.2004
 8888TIP3    H150859   4.814   1.059   0.399  0.4418  0.5936 -0.9753
 8888TIP3    H250860   4.758   1.187   0.341 -0.7288  0.3843 -0.3395
 8889TIP3   OH250861   4.488   5.453   1.110  0.0024 -0.0689 -0.0991
 8889TIP3    H150862   4.495   5.405   1.192  0.0534 -0.3184 -0.2498
 8889TIP3    H250863   4.417   5.516   1.125 -0.8391 -0.9578 -0.2889
 8890TIP3   OH250864   5.851   0.738   8.697 -0.3762 -0.6633  0.5943
 8890TIP3    H150865   5.842   0.772   8.608 -3.4844 -0.5767  0.8332
 8890TIP3    H250866   5.890   0.810   8.747  1.1419 -0.6186 -0.5715
 8891TIP3   OH250867   1.869   6.609   9.439  0.4677 -0.5132 -0.1336
 8891TIP3    H150868   1.894   6.659   9.517 -0.5657  3.7239 -2.2090
 8891TIP3    H250869   1.774   6.605   9.443  0.5138 -2.2085 -0.1810
 8892TIP3   OH250870   7.417   6.566   0.119  0.3625 -0.3396  0.3603
 8892TIP3    H150871   7.439   6.480   0.083 -2.2093 -1.3393  0.9901
 8892TIP3    H250872   7.332   6.554   0.161  0.5184  2.2185  1.6197
 8893TIP3   OH250873   2.283   5.142   8.581  0.2902 -0.1883 -0.1397
 8893TIP3    H150874   2.250   5.211   8.523  0.3890 -0.4719 -0.5388
 8893TIP3    H250875   2.361   5.109   8.536  0.5159 -0.2382  0.2818
 8894TIP3   OH250876   4.855   2.266   1.096 -0.2743 -0.2830 -0.3131
 8894TIP3    H150877   4.867   2.342   1.154 -1.1325 -0.2825 -0.1192
 8894TIP3    H250878   4.924   2.275   1.030 -0.4193  0.7228 -0.3495
 8895TIP3   OH250879   3.126   6.447   2.522  0.5032  0.6712  0.4210
 8895TIP3    H150880   3.163   6.360   2.540  0.1569  0.4906  0.2652
 8895TIP3    H250881   3.046   6.429   2.472 -0.2449  1.0089  1.4588
 8896TIP3   OH250882   1.095   0.719   0.648 -0.5331 -0.3099 -0.3420
 8896TIP3    H150883   1.160   0.693   0.583  1.3583  2.3283  0.3610
 8896TIP3    H250884   1.106   0.656   0.719  1.4270  0.2127 -0.1448
 8897TIP3   OH250885   4.132   1.003   0.749 -0.4214  0.2002  0.0217
 8897TIP3    H150886   4.096   1.063   0.683 -1.6208 -1.6053 -1.0345
 8897TIP3    H250887   4.221   0.985   0.720 -0.3463  0.7812 -0.1174
 8898TIP3   OH250888   0.369   0.015   1.002 -0.0046  0.0343 -0.2330
 8898TIP3    H150889   0.357   0.082   0.934 -0.0108  1.0661  0.7537
 8898TIP3    H250890   0.336   0.056   1.082 -1.4242 -1.7284  0.1364
 8899TIP3   OH250891   4.604   0.178   0.875 -0.7005 -0.2940  0.0783
 8899TIP3    H150892   4.629   0.129   0.797 -0.8126 -0.4146  0.1176
 8899TIP3    H250893   4.514   0.151   0.893 -0.7626 -0.0747  0.1010
 8900TIP3   OH250894   2.485   4.293   2.829 -0.0165  0.4406  0.6758
 8900TIP3    H150895   2.557   4.327   2.882 -0.9234  1.5786  1.2508
 8900TIP3    H250896   2.490   4.342   2.747  1.1273 -1.0111 -0.1462
 8901TIP3   OH250897   6.230   6.496   8.894 -0.7124  0.1848 -0.0616
 8901TIP3    H150898   6.239   6.563   8.826 -0.9719 -0.3264 -0.6093
 8901TIP3    H250899   6.319   6.480   8.924 -0.7139  1.2662  0.5656
 8902TIP3   OH250900   1.875   0.606   1.882  0.1604 -0.4609 -0.3673
 8902TIP3    H150901   1.949   0.650   1.840 -0.9362  0.1464 -1.7800
 8902TIP3    H250902   1.816   0.585   1.809 -1.6900  0.3098  0.8285
 8903TIP3   OH250903   5.511   2.014   7.803  0.0265 -0.8804 -0.0655
 8903TIP3    H150904   5.456   2.044   7.731 -1.2719  1.9412  1.8960
 8903TIP3    H250905   5.597   2.053   7.786 -0.2763 -0.2229 -0.1197
 8904TIP3   OH250906   5.909   6.554   8.422  0.2545 -0.2927  0.4126
 8904TIP3    H150907   5.962   6.610   8.479  1.4419 -0.7771 -0.1823
 8904TIP3    H250908   5.848   6.613   8.379  0.8699  0.4089  0.4948
 8905TIP3   OH250909   4.059   0.544   1.881  0.1440 -0.1633 -0.2887
 8905TIP3    H150910   4.051   0.606   1.953  0.1985  0.2813 -0.6637
 8905TIP3    H250911   3.970   0.508   1.872  0.6956 -2.3279  1.8342
 8906TIP3   OH250912   3.752   4.346   8.108  0.8070 -0.0260  0.0648
 8906TIP3    H150913   3.834   4.390   8.131  0.5298  2.2424 -2.7288
 8906TIP3    H250914   3.685   4.396   8.154  0.7740  0.1049 -0.1243
 8907TIP3   OH250915   4.274   2.409   0.343 -1.4888 -0.0011 -0.2190
 8907TIP3    H150916   4.278   2.318   0.312 -1.0218  0.4170 -1.4439
 8907TIP3    H250917   4.189   2.441   0.314 -1.1904  0.2921 -0.7699
 8908TIP3   OH250918   7.406   2.663   1.355  0.2897 -0.5079  0.4648
 8908TIP3    H150919   7.409   2.575   1.393 -0.2019 -0.6562  0.1643
 8908TIP3    H250920   7.365   2.717   1.423 -0.5919 -0.7741  0.1511
 8909TIP3   OH250921   1.153   5.773   1.047  0.1640  0.0945 -0.0599
 8909TIP3    H150922   1.086   5.758   1.113 -2.3209  2.3928 -1.8417
 8909TIP3    H250923   1.138   5.704   0.982  0.8577 -0.5525  0.4457
 8910TIP3   OH250924   6.751   2.876   9.850 -0.1162 -0.0125 -0.1954
 8910TIP3    H150925   6.832   2.900   9.805 -0.0765 -2.0036 -1.3213
 8910TIP3    H250926   6.765   2.903   9.941  1.0369  1.3798 -0.7539
 8911TIP3   OH250927   1.696   3.227   7.399 -0.9515 -0.3487  0.2424
 8911TIP3    H150928   1.660   3.222   7.311  0.5120 -2.8855 -0.3039
 8911TIP3    H250929   1.631   3.185   7.455 -1.6262  0.7594  0.3135
 8912TIP3   OH250930   4.417   1.195   2.599  0.0654 -0.3111  0.0057
 8912TIP3    H150931   4.335   1.159   2.632 -0.3014 -1.8938 -2.3414
 8912TIP3    H250932   4.484   1.139   2.639 -0.1501 -0.3617  0.3046
 8913TIP3   OH250933   2.655   6.797   8.152 -0.1568  0.4489 -0.8391
 8913TIP3    H150934   2.722   6.770   8.215 -0.7571  1.4429  0.2647
 8913TIP3    H250935   2.681   6.886   8.126 -0.5740  0.5087 -1.0565
 8914TIP3   OH250936   0.003   5.166   1.651 -0.2152  0.0133 -0.0555
 8914TIP3    H150937  -0.070   5.162   1.714  0.1755 -1.5105  0.3455
 8914TIP3    H250938  -0.019   5.100   1.586  1.3168 -1.2864  0.6765
 8915TIP3   OH250939   1.009   5.799   0.585  0.4052  1.1238  0.1164
 8915TIP3    H150940   0.923   5.793   0.625 -0.4380 -1.1280 -1.7772
 8915TIP3    H250941   0.995   5.844   0.502  0.9322  0.3820 -0.3977
 8916TIP3   OH250942   4.397   4.100   0.985 -0.1907  0.1212 -0.1027
 8916TIP3    H150943   4.465   4.141   0.932 -0.0062 -0.0710 -0.0133
 8916TIP3    H250944   4.444   4.057   1.056 -0.2719 -1.2793 -0.8492
 8917TIP3   OH250945   7.176   2.296   8.880 -0.2382  0.6866 -0.1785
 8917TIP3    H150946   7.088   2.263   8.898  0.3093 -0.9267 -0.2630
 8917TIP3    H250947   7.177   2.310   8.785 -0.3244  0.4167 -0.2223
 8918TIP3   OH250948   0.487   4.015   1.722 -0.7056 -0.2000  0.0624
 8918TIP3    H150949   0.424   4.010   1.795 -0.1284 -2.4111  0.4811
 8918TIP3    H250950   0.533   4.098   1.736 -1.9109  0.3258  1.1044
 8919TIP3   OH250951   5.789   1.019   7.876 -0.1327  0.4932  0.3766
 8919TIP3    H150952   5.838   0.937   7.869  0.3616  0.6320  1.7595
 8919TIP3    H250953   5.841   1.072   7.936 -0.7581  1.5948 -0.0319
 8920TIP3   OH250954   0.659   3.008   8.571 -0.5293 -0.2098 -0.3170
 8920TIP3    H150955   0.620   3.025   8.485 -0.9997  1.3561  0.1562
 8920TIP3    H250956   0.595   2.953   8.616 -0.0310 -1.4818 -1.1417
 8921TIP3   OH250957   7.284   1.576   0.230 -0.4004  0.3793 -0.4002
 8921TIP3    H150958   7.334   1.626   0.294  1.5758 -0.8697 -0.8894
 8921TIP3    H250959   7.323   1.489   0.231 -2.0906 -0.4524 -1.3905
 8922TIP3   OH250960   2.223   5.899   6.935 -0.2130 -1.0664  0.0492
 8922TIP3    H150961   2.194   5.970   6.877 -0.1492 -0.0414  1.2303
 8922TIP3    H250962   2.303   5.866   6.894 -0.4600 -0.7322 -0.7327
 8923TIP3   OH250963   0.280   4.054   8.555  0.4168  0.2226  0.0124
 8923TIP3    H150964   0.210   4.043   8.619  1.1731  0.4992  0.9209
 8923TIP3    H250965   0.343   3.984   8.576  1.0527  0.8071  0.1182
 8924TIP3   OH250966   1.402   5.723   1.325 -0.0587 -0.3887 -0.0778
 8924TIP3    H150967   1.363   5.755   1.244 -0.1965  1.2161  0.5744
 8924TIP3    H250968   1.338   5.747   1.393  0.4303 -0.9584  0.5992
 8925TIP3   OH250969   2.829   5.757   8.194  0.2275  0.6028  0.3699
 8925TIP3    H150970   2.880   5.794   8.121  1.7422  0.7041  1.4380
 8925TIP3    H250971   2.770   5.827   8.220 -0.2311  0.6171 -0.6571
 8926TIP3   OH250972   0.121   0.644   9.729 -0.5990  0.6698  0.1010
 8926TIP3    H150973   0.200   0.635   9.675 -1.3833 -0.0823 -0.9538
 8926TIP3    H250974   0.154   0.650   9.819  0.6367  0.0712 -0.2934
 8927TIP3   OH250975   4.150   2.742   9.821  0.2708 -0.0634  0.2041
 8927TIP3    H150976   4.160   2.696   9.738 -0.3500 -0.1492  0.1691
 8927TIP3    H250977   4.059   2.773   9.820  1.1575  2.8284 -0.6208
 8928TIP3   OH250978   4.699   0.764   9.865 -0.4074 -1.0474 -0.2446
 8928TIP3    H150979   4.738   0.677   9.870 -0.8442 -1.2340 -0.0737
 8928TIP3    H250980   4.695   0.793   9.956 -2.2678 -1.7444 -0.0563
 8929TIP3   OH250981   7.339   4.762   2.122  0.0658  0.6146  0.2702
 8929TIP3    H150982   7.387   4.704   2.063 -0.3656 -1.4952  1.8592
 8929TIP3    H250983   7.247   4.739   2.111 -0.2848  2.0443 -0.0778
 8930TIP3   OH250984   5.076   1.404   0.353  0.8221 -0.4485  0.1838
 8930TIP3    H150985   5.106   1.480   0.303  1.0810 -0.4669  0.3123
 8930TIP3    H250986   5.054   1.439   0.439 -0.4290 -0.2668 -0.1946
 8931TIP3   OH250987   4.542   0.811   1.917 -0.1481  0.2845  0.5417
 8931TIP3    H150988   4.571   0.812   1.826  1.2875 -1.1615  0.9260
 8931TIP3    H250989   4.579   0.730   1.953 -2.5129 -0.3171  1.8337
 8932TIP3   OH250990   6.836   6.669   9.128 -0.1238 -0.4817  0.6944
 8932TIP3    H150991   6.795   6.582   9.132 -0.8485 -0.1738  0.2526
 8932TIP3    H250992   6.893   6.672   9.204  0.3478 -1.5649  0.4134
 8933TIP3   OH250993   5.597   6.125   0.196 -0.1789 -0.9332 -0.2088
 8933TIP3    H150994   5.523   6.186   0.198 -0.2700 -0.9205 -2.0691
 8933TIP3    H250995   5.561   6.045   0.158  1.0626 -0.3493 -2.8734
 8934TIP3   OH250996   3.242   0.324   0.319  0.4875 -0.3805 -0.2498
 8934TIP3    H150997   3.306   0.280   0.263  0.1854 -0.6530 -0.3773
 8934TIP3    H250998   3.281   0.410   0.336  0.8388 -0.5053 -0.4174
 8935TIP3   OH250999   6.917   6.363   0.181 -0.3387  0.0763 -0.0757
 8935TIP3    H151000   6.835   6.379   0.134 -0.0222  0.4587 -0.5047
 8935TIP3    H251001   6.980   6.340   0.112  0.1329  0.6405  0.1629
 8936TIP3   OH251002   2.140   5.970   6.360 -0.0930 -0.4642  0.5110
 8936TIP3    H151003   2.105   5.881   6.361 -1.5476  0.0779  0.3212
 8936TIP3    H251004   2.064   6.026   6.375  0.5941  0.8027 -0.4945
 8937TIP3   OH251005   2.032   6.261   3.466  0.3234  0.1370 -0.1952
 8937TIP3    H151006   2.078   6.340   3.493  0.1296 -0.4898  2.2317
 8937TIP3    H251007   2.100   6.194   3.461  0.1086 -0.1492  0.5630
 8938TIP3   OH251008   5.753   6.053   9.016  0.5245  0.2083 -0.3461
 8938TIP3    H151009   5.798   6.101   9.086 -0.0891  1.1142 -0.5598
 8938TIP3    H251010   5.692   6.116   8.979 -2.1294 -1.3889  0.9878
 8939TIP3   OH251011   6.932   7.047   0.250 -0.3392 -0.1917  0.0234
 8939TIP3    H151012   6.988   7.041   0.328 -0.4174 -1.7973 -0.0100
 8939TIP3    H251013   6.904   6.957   0.234 -1.2892  0.2920 -1.1721
 8940TIP3   OH251014   2.802   5.823   1.774  0.3966 -0.0914 -0.7501
 8940TIP3    H151015   2.728   5.831   1.834 -0.0351  0.4071 -1.3334
 8940TIP3    H251016   2.870   5.780   1.826  0.3920  1.2245  0.4018
 8941TIP3   OH251017   5.900   1.685   9.303  0.3491  0.0608  0.2234
 8941TIP3    H151018   5.837   1.753   9.327  0.1875  0.4410 -1.1769
 8941TIP3    H251019   5.966   1.731   9.252  0.4653 -0.7511 -0.3696
 8942TIP3   OH251020   1.252   5.205   7.454 -0.6487 -0.1826 -0.1358
 8942TIP3    H151021   1.259   5.137   7.521 -1.2309  0.9532  1.1111
 8942TIP3    H251022   1.286   5.284   7.495  1.2796  0.0497 -1.9991
 8943TIP3   OH251023   6.529   2.794   9.729 -0.0259  0.2105  0.1320
 8943TIP3    H151024   6.595   2.863   9.739 -2.0835  2.2513  0.6262
 8943TIP3    H251025   6.463   2.833   9.673 -1.1517 -1.5109  0.1873
 8944TIP3   OH251026   1.273   5.316   1.528 -0.2493 -0.2629 -0.5068
 8944TIP3    H151027   1.218   5.355   1.595 -2.0672 -1.2290 -1.3602
 8944TIP3    H251028   1.284   5.385   1.463 -0.7076 -0.1548 -0.4736
 8945TIP3   OH251029   1.606   1.115   0.795  0.1887  0.4273 -0.8649
 8945TIP3    H151030   1.559   1.198   0.798  1.7271  1.3672 -1.2327
 8945TIP3    H251031   1.565   1.061   0.862 -0.3889  1.7520 -0.1067
 8946TIP3   OH251032   7.346   5.277   7.350 -0.9858 -0.7880 -0.4615
 8946TIP3    H151033   7.261   5.236   7.367 -1.8404  0.5808 -1.1885
 8946TIP3    H251034   7.391   5.215   7.293 -2.3497 -0.6522 -1.7640
 8947TIP3   OH251035   0.017   0.136   9.281  0.0684 -0.0138  0.4283
 8947TIP3    H151036   0.017   0.044   9.305  0.7136 -0.0822  0.1836
 8947TIP3    H251037  -0.016   0.138   9.192 -0.6808  0.0714  0.7031
 8948TIP3   OH251038   4.258   1.197   8.817  0.1187  0.5496  0.2346
 8948TIP3    H151039   4.189   1.206   8.751  1.2410  1.0022 -0.9110
 8948TIP3    H251040   4.246   1.272   8.875 -0.8256  0.1942  0.5188
 8949TIP3   OH251041   1.822   0.246   7.464  0.6209 -0.2983  0.3230
 8949TIP3    H151042   1.835   0.288   7.379  0.8999 -0.5086  0.2614
 8949TIP3    H251043   1.864   0.160   7.456  0.7769 -0.2632  0.7188
 8950TIP3   OH251044   0.294   6.392   1.642  0.4958  0.8313  0.1059
 8950TIP3    H151045   0.282   6.311   1.592 -0.8315 -0.0027  1.6961
 8950TIP3    H251046   0.206   6.429   1.649  0.6004  0.7865  2.0230
 8951TIP3   OH251047   2.078   4.310   9.496 -0.4582  0.0532  0.6225
 8951TIP3    H151048   2.055   4.368   9.423 -0.1605  0.9286  1.2140
 8951TIP3    H251049   1.995   4.299   9.543 -0.7480 -0.8574 -0.0673
 8952TIP3   OH251050   1.140   6.377   9.769  0.0495 -0.0632 -0.1834
 8952TIP3    H151051   1.142   6.283   9.785  0.5511 -0.1726 -0.8813
 8952TIP3    H251052   1.050   6.395   9.743  0.2326 -0.5390 -1.1722
 8953TIP3   OH251053   6.832   1.947   0.694  0.0656 -0.1037  0.0334
 8953TIP3    H151054   6.747   1.908   0.716 -0.5267  1.3716  0.4838
 8953TIP3    H251055   6.877   1.955   0.778  0.5893 -0.7355 -0.1853
 8954TIP3   OH251056   5.274   4.693   9.678  0.3218 -0.0500 -0.0765
 8954TIP3    H151057   5.309   4.606   9.658 -2.6479 -1.4392  0.2570
 8954TIP3    H251058   5.231   4.721   9.597 -1.8259 -0.5954  0.7909
 8955TIP3   OH251059   4.033   6.832   2.161  0.0196 -0.5935  0.0658
 8955TIP3    H151060   3.983   6.906   2.128  0.9216 -0.5555 -1.3046
 8955TIP3    H251061   4.021   6.835   2.256 -1.8774 -0.1119 -0.1476
 8956TIP3   OH251062   6.812   1.001   0.019 -0.3450  0.4674  0.0759
 8956TIP3    H151063   6.819   0.995  -0.076 -1.0651  0.7790 -0.0027
 8956TIP3    H251064   6.873   0.936   0.052 -0.8615 -0.3812 -0.6096
 8957TIP3   OH251065   2.554   7.140   2.603  0.1849 -0.0680 -0.1892
 8957TIP3    H151066   2.520   7.186   2.680  0.0657 -0.7654  0.1893
 8957TIP3    H251067   2.576   7.209   2.541 -3.5858  0.4143 -1.2196
 8958TIP3   OH251068   2.576   0.428   9.461 -0.3039  0.1055 -0.3153
 8958TIP3    H151069   2.570   0.333   9.454  0.9667  0.0731 -1.4103
 8958TIP3    H251070   2.486   0.458   9.456 -0.6958 -1.0251 -0.3330
 8959TIP3   OH251071   2.388   6.147   7.973 -0.6292  0.4490 -0.1598
 8959TIP3    H151072   2.382   6.208   7.900  0.3204 -0.2127 -0.8183
 8959TIP3    H251073   2.467   6.174   8.020 -1.1931  0.8260  0.5955
 8960TIP3   OH251074   1.127   7.108   9.588  0.2400 -0.0730  0.6265
 8960TIP3    H151075   1.216   7.079   9.565 -0.0752  0.6627 -1.7834
 8960TIP3    H251076   1.073   7.031   9.572  0.2354 -0.0434  0.4975
 8961TIP3   OH251077   3.301   0.158   9.322  0.0145  0.1561  0.4973
 8961TIP3    H151078   3.215   0.117   9.311  0.1788 -0.2445  0.6798
 8961TIP3    H251079   3.292   0.213   9.400  0.6440 -1.8712  2.0743
 8962TIP3   OH251080   0.445   6.500   9.664  0.3290 -0.2837  0.3928
 8962TIP3    H151081   0.516   6.463   9.611  0.0184  0.1338 -0.3349
 8962TIP3    H251082   0.486   6.523   9.747  1.6547  2.1360 -0.8167
 8963TIP3   OH251083   1.060   2.560   6.646 -0.6930 -0.4618 -0.0350
 8963TIP3    H151084   0.970   2.592   6.646 -0.9110 -0.8833 -2.8288
 8963TIP3    H251085   1.113   2.638   6.633 -0.7983 -0.4537 -0.4236
 8964TIP3   OH251086   4.656   1.329   0.228  0.5516 -0.0808  0.0849
 8964TIP3    H151087   4.633   1.367   0.313 -0.0246  1.5863 -0.7630
 8964TIP3    H251088   4.575   1.290   0.196  0.7860 -0.7724  0.3263
 8965TIP3   OH251089   4.015   1.380   0.651 -0.1772 -0.1904  0.1943
 8965TIP3    H151090   3.979   1.411   0.734 -0.1582 -0.5985  0.3591
 8965TIP3    H251091   4.107   1.360   0.672 -0.1123 -0.0827  0.0178
 8966TIP3   OH251092   3.383   5.536   0.894 -0.0464 -0.0356 -0.4386
 8966TIP3    H151093   3.463   5.492   0.864  1.8874  1.7763  1.5852
 8966TIP3    H251094   3.378   5.615   0.841  0.5909  0.7293  0.5847
 8967TIP3   OH251095   2.188   2.743   8.241 -0.0379  0.3225 -0.3398
 8967TIP3    H151096   2.281   2.763   8.238 -0.1547  1.0879  0.6040
 8967TIP3    H251097   2.170   2.721   8.332 -1.0291  1.5191 -0.2158
 8968TIP3   OH251098   5.258   3.868   2.487 -0.6146 -0.2489 -0.1181
 8968TIP3    H151099   5.332   3.917   2.522 -0.2559 -2.2122  2.1905
 8968TIP3    H251100   5.298   3.798   2.436 -0.9577 -0.1815 -0.4817
 8969TIP3   OH251101   4.360   6.516   1.653  0.0277 -0.4404 -0.3238
 8969TIP3    H151102   4.291   6.552   1.597  0.9808  0.6198 -0.8600
 8969TIP3    H251103   4.320   6.512   1.740 -0.7176  0.1360 -0.6273
 8970TIP3   OH251104   4.391   6.909   9.890  0.1486 -0.8055 -0.2845
 8970TIP3    H151105   4.362   6.819   9.878  2.0708 -1.4432 -0.5502
 8970TIP3    H251106   4.329   6.947   9.952 -1.9629 -1.6259 -1.7819
 8971TIP3   OH251107   2.379   4.844   9.706 -0.0379 -0.2291 -0.7923
 8971TIP3    H151108   2.305   4.784   9.702  0.2789 -0.5865 -1.6592
 8971TIP3    H251109   2.357   4.912   9.642 -0.2587  0.4342 -0.0288
 8972TIP3   OH251110   2.849   5.145   7.481  0.0471 -0.0954 -0.2462
 8972TIP3    H151111   2.780   5.086   7.449 -2.7351  3.2237 -1.0480
 8972TIP3    H251112   2.802   5.206   7.539  2.1393  2.7419 -1.3418
 8973TIP3   OH251113   1.353   5.008   8.579  0.0701 -0.2679 -0.1067
 8973TIP3    H151114   1.421   4.999   8.646  0.1049  2.0733  0.2582
 8973TIP3    H251115   1.280   4.954   8.611 -0.2210  1.4030  2.3240
 8974TIP3   OH251116   0.876   5.044   7.886  0.7222  0.3553  0.1804
 8974TIP3    H151117   0.815   5.098   7.936 -0.5211 -0.8672  0.0346
 8974TIP3    H251118   0.912   4.983   7.951  1.0013  0.3983  0.0648
 8975TIP3   OH251119   6.792   6.409   9.197  0.0109  0.6074 -0.2235
 8975TIP3    H151120   6.800   6.361   9.115 -0.9200  0.6415 -0.3474
 8975TIP3    H251121   6.842   6.357   9.261 -0.5378 -0.2502 -0.4730
 8976TIP3   OH251122   4.272   2.067   0.754  0.2984  0.0128 -0.3440
 8976TIP3    H151123   4.223   2.077   0.673  0.7870  1.3159 -0.5078
 8976TIP3    H251124   4.355   2.028   0.728  0.0999 -0.4158 -0.3374
 8977TIP3   OH251125   3.138   6.512   7.396  0.1634  0.0044  0.8626
 8977TIP3    H151126   3.173   6.511   7.307  0.7278 -2.6350  1.0341
 8977TIP3    H251127   3.050   6.549   7.386  0.4098  0.2489 -0.7004
 8978TIP3   OH251128   0.015   3.524   1.443 -0.0183 -0.1478  0.6045
 8978TIP3    H151129   0.073   3.521   1.367 -0.9403  1.4540 -0.2065
 8978TIP3    H251130   0.031   3.441   1.489  1.9614 -0.2939 -0.2704
 8979TIP3   OH251131   6.108   2.857   0.419  0.2529 -0.6132 -0.2824
 8979TIP3    H151132   6.150   2.923   0.364 -1.9252  0.1216 -1.1595
 8979TIP3    H251133   6.148   2.868   0.505  0.4887  1.3160 -0.6088
 8980TIP3   OH251134   2.776   1.278   0.992  0.0001  0.1399 -0.1933
 8980TIP3    H151135   2.745   1.254   0.905  0.6582  0.4543 -0.5249
 8980TIP3    H251136   2.699   1.271   1.048 -0.0086 -2.0543 -0.3922
 8981TIP3   OH251137   3.477   1.348   7.571  0.4343  0.2277  0.0442
 8981TIP3    H151138   3.423   1.427   7.573 -1.2501 -0.9061  1.5721
 8981TIP3    H251139   3.418   1.280   7.540  2.2507 -0.2474 -2.7237
 8982TIP3   OH251140   3.986   2.020   1.878 -0.0930  0.4527 -0.4181
 8982TIP3    H151141   3.953   1.956   1.816 -0.3018 -0.0247  0.1779
 8982TIP3    H251142   3.908   2.052   1.924 -0.0637  1.5398 -1.0727
 8983TIP3   OH251143   4.998   5.307   2.225  0.0303 -0.1722 -0.3708
 8983TIP3    H151144   4.906   5.317   2.201 -0.9783 -0.6918  2.7784
 8983TIP3    H251145   5.026   5.227   2.181 -1.7338 -1.2302  0.2890
 8984TIP3   OH251146   4.265   3.019   1.707  0.4955 -0.1832 -0.1152
 8984TIP3    H151147   4.263   2.978   1.794 -1.2955 -1.6375 -0.7777
 8984TIP3    H251148   4.349   3.063   1.704  0.4403  0.3099  2.5425
 8985TIP3   OH251149   1.897   1.105   0.308  0.8373  0.8352 -0.0275
 8985TIP3    H151150   1.875   1.198   0.317  1.2887  0.8757  0.7789
 8985TIP3    H251151   1.984   1.104   0.268  0.2586  0.7206 -1.3145
 8986TIP3   OH251152   1.308   5.912   7.565 -0.5769  0.2851 -0.7175
 8986TIP3    H151153   1.383   5.932   7.509 -0.2245  0.2273 -0.2747
 8986TIP3    H251154   1.329   5.826   7.602 -0.0679  0.9912  0.6920
 8987TIP3   OH251155   2.443   7.162   7.076 -0.1715  0.2577 -0.0741
 8987TIP3    H151156   2.472   7.187   7.163 -0.3426 -0.6040  0.2393
 8987TIP3    H251157   2.349   7.148   7.085 -0.1733  0.0690 -0.3702
 8988TIP3   OH251158   4.134   5.475   7.580 -0.0819  0.2302 -0.0251
 8988TIP3    H151159   4.065   5.532   7.546  0.0222  0.5415  0.2877
 8988TIP3    H251160   4.207   5.486   7.518 -0.1168  0.3190 -0.0504
 8989TIP3   OH251161   1.763   5.836   7.197  0.3911 -0.3540 -0.6234
 8989TIP3    H151162   1.812   5.894   7.139 -0.2642 -1.7363 -2.6604
 8989TIP3    H251163   1.806   5.751   7.190 -0.1790 -0.7414  0.3311
 8990TIP3   OH251164   6.874   3.739   1.521  0.1698  0.1014 -0.5512
 8990TIP3    H151165   6.928   3.708   1.594 -0.7404 -1.7138 -0.5698
 8990TIP3    H251166   6.933   3.743   1.447  0.4467 -1.2367 -0.4280
 8991TIP3   OH251167   5.315   7.305   0.997  0.4532 -0.5481 -0.0706
 8991TIP3    H151168   5.270   7.292   1.080  0.0260 -0.2451 -0.2529
 8991TIP3    H251169   5.407   7.294   1.018  0.3324 -0.7055  0.3977
 8992TIP3   OH251170   4.998   1.961   2.185 -0.0544 -0.2478 -0.5843
 8992TIP3    H151171   4.976   2.035   2.242 -0.5956 -0.8578  0.0271
 8992TIP3    H251172   5.034   1.896   2.245  0.5585 -0.4210 -1.1411
 8993TIP3   OH251173   3.789   6.339   9.627  0.1126 -0.1197 -0.0332
 8993TIP3    H151174   3.792   6.334   9.531  0.8307 -0.4741  0.0061
 8993TIP3    H251175   3.696   6.349   9.647 -0.0356  0.0383 -0.7721
 8994TIP3   OH251176   0.284   0.265   2.496 -0.1344 -0.3372  0.3295
 8994TIP3    H151177   0.252   0.255   2.586  0.7170 -0.4350  0.6255
 8994TIP3    H251178   0.376   0.289   2.505 -0.1376  0.0404 -0.5155
 8995TIP3   OH251179   2.641   5.088   5.943 -0.0070  0.0256 -0.5264
 8995TIP3    H151180   2.611   5.119   6.029  0.0771 -0.7587 -0.1990
 8995TIP3    H251181   2.599   5.002   5.933  1.9466 -1.0399 -0.1243
 8996TIP3   OH251182   1.132   4.152   0.040 -0.2031  0.3658  0.2332
 8996TIP3    H151183   1.068   4.165  -0.030  0.1715  0.2471 -0.1368
 8996TIP3    H251184   1.209   4.201   0.011  0.0882  0.0002  0.3784
 8997TIP3   OH251185   0.224   3.338   1.643  0.1082 -0.3584 -0.2802
 8997TIP3    H151186   0.248   3.310   1.731  0.2270  1.1310  0.1855
 8997TIP3    H251187   0.160   3.273   1.613  1.7869 -2.2288 -0.0434
 8998TIP3   OH251188   2.689   5.980   8.222  0.0840 -0.0496 -0.0443
 8998TIP3    H151189   2.626   5.985   8.294  0.8243  0.1538  0.6051
 8998TIP3    H251190   2.673   6.060   8.171 -0.2400 -0.0459  0.0615
 8999TIP3   OH251191   4.587   0.003   0.675  0.7472  0.1717 -0.1908
 8999TIP3    H151192   4.630   0.009   0.589 -1.5320 -0.5624 -1.4687
 8999TIP3    H251193   4.579  -0.091   0.692 -2.1145  0.1538 -1.0545
 9000TIP3   OH251194   1.625   2.577   1.077 -0.3639 -0.1765  0.2619
 9000TIP3    H151195   1.667   2.557   0.994 -0.7042 -0.4160  0.1478
 9000TIP3    H251196   1.623   2.494   1.124 -0.1159 -0.0299  0.5365
 9001TIP3   OH251197   3.389   3.831   7.011  0.4145  0.3786  0.3111
 9001TIP3    H151198   3.335   3.890   6.959 -2.7899 -0.1470  2.7483
 9001TIP3    H251199   3.458   3.888   7.046 -0.4049  1.8431 -0.3313
 9002TIP3   OH251200   4.459   6.425   2.120  0.3965 -0.2126 -0.7052
 9002TIP3    H151201   4.437   6.463   2.205  1.9020 -0.0103 -0.3643
 9002TIP3    H251202   4.550   6.451   2.105  0.1201 -0.1217 -2.4590
 9003TIP3   OH251203   0.897   2.931   8.959  0.1250  0.8953  0.1716
 9003TIP3    H151204   0.992   2.939   8.957  0.2281 -0.3282 -1.1699
 9003TIP3    H251205   0.872   2.966   9.045  1.9307 -0.2664  1.2445
 9004TIP3   OH251206   1.224   6.194   9.542  0.1907  0.4245 -0.2918
 9004TIP3    H151207   1.265   6.200   9.629 -1.9149  0.6653  0.7386
 9004TIP3    H251208   1.190   6.105   9.538 -0.4620  0.6822 -0.5217
 9005TIP3   OH251209   5.648   4.465   1.170  0.0108  0.0640 -0.0307
 9005TIP3    H151210   5.702   4.430   1.098  0.9024 -0.6860  0.9657
 9005TIP3    H251211   5.692   4.435   1.249  0.6544  3.1886  0.9361
 9006TIP3   OH251212   0.357   2.813   1.817 -0.2965 -0.4605 -0.0409
 9006TIP3    H151213   0.268   2.807   1.853 -0.4446 -0.8030 -0.4618
 9006TIP3    H251214   0.413   2.823   1.894 -0.8540  1.6755  0.1665
 9007TIP3   OH251215   1.802   1.480   2.242  0.5422  0.0306 -0.0507
 9007TIP3    H151216   1.891   1.481   2.206  0.9547  0.0185  0.9254
 9007TIP3    H251217   1.750   1.528   2.178  1.2903  0.2209 -0.5402
 9008TIP3   OH251218   2.808   0.446   2.225  0.7142 -0.3178 -0.1071
 9008TIP3    H151219   2.726   0.490   2.245 -0.0256 -1.1827 -1.0705
 9008TIP3    H251220   2.855   0.506   2.168  0.2310 -0.2789 -0.4716
 9009TIP3   OH251221   7.429   3.851   8.561  0.3009 -0.0706 -0.2522
 9009TIP3    H151222   7.482   3.830   8.484 -0.6673  1.2747 -1.3443
 9009TIP3    H251223   7.379   3.771   8.577  2.1566 -1.1467  0.4287
 9010TIP3   OH251224   1.776   5.445   1.162 -0.0336 -0.2339  0.2631
 9010TIP3    H151225   1.836   5.517   1.181  0.1936  0.0887 -1.5081
 9010TIP3    H251226   1.760   5.451   1.068  0.8633 -3.1883 -0.1814
 9011TIP3   OH251227   1.394   2.802   8.974  0.2479 -0.2543 -0.4674
 9011TIP3    H151228   1.443   2.871   9.019 -2.4785  1.2801  0.3940
 9011TIP3    H251229   1.402   2.726   9.031  1.5962 -0.0800 -0.3855
 9012TIP3   OH251230   5.356   4.233   8.864  0.2244  0.3439  0.2345
 9012TIP3    H151231   5.265   4.263   8.857 -0.2410 -1.1123 -0.3369
 9012TIP3    H251232   5.350   4.147   8.904  1.3294  0.1043 -0.0785
 9013TIP3   OH251233   4.163   6.958   1.164  0.0694  0.2547 -0.0487
 9013TIP3    H151234   4.078   6.916   1.175 -1.0061  2.2182 -0.5594
 9013TIP3    H251235   4.179   6.955   1.069  0.3916  0.2319  0.0050
 9014TIP3   OH251236   2.321   0.283   0.712  0.0857 -0.2235 -0.1763
 9014TIP3    H151237   2.325   0.294   0.617 -1.5124  2.4580 -0.0314
 9014TIP3    H251238   2.236   0.242   0.727  0.5311 -1.0706  0.1228
 9015TIP3   OH251239   0.481   1.420   2.393 -0.1894  0.1785  0.6297
 9015TIP3    H151240   0.570   1.411   2.428 -0.1203 -0.6650  0.2407
 9015TIP3    H251241   0.433   1.347   2.431  0.0548 -1.1754 -1.5501
 9016TIP3   OH251242   0.961   5.619   8.360 -0.1851 -0.1428  0.2629
 9016TIP3    H151243   1.023   5.689   8.380 -0.6034  0.1421  0.5727
 9016TIP3    H251244   1.012   5.555   8.310 -0.1787  1.1459 -1.4690
 9017TIP3   OH251245   2.032   2.499   8.379 -0.2626  0.1175 -0.6514
 9017TIP3    H151246   2.005   2.441   8.308 -1.1070  0.0170 -0.2614
 9017TIP3    H251247   1.978   2.472   8.454 -0.4055  1.1480 -0.3630
 9018TIP3   OH251248   1.691   0.668   0.360 -0.0979  1.1281 -0.4629
 9018TIP3    H151249   1.706   0.673   0.265 -0.1526 -2.2210 -0.7861
 9018TIP3    H251250   1.756   0.606   0.391 -0.1276  2.1122  1.7373
 9019TIP3   OH251251   7.074   6.762   0.566  0.5626 -0.2331 -0.4606
 9019TIP3    H151252   7.063   6.857   0.559 -0.5513 -0.0423  2.3432
 9019TIP3    H251253   6.998   6.725   0.523  1.2249  0.0913 -1.9571
 9020TIP3   OH251254   5.691   4.505   9.562 -0.5395 -0.4771 -0.2874
 9020TIP3    H151255   5.672   4.530   9.471  2.1024  1.4681 -0.4528
 9020TIP3    H251256   5.609   4.470   9.595 -1.7638 -0.7452 -3.2434
 9021TIP3   OH251257   3.417   3.644   7.796 -0.3726  0.2271 -0.1816
 9021TIP3    H151258   3.380   3.605   7.717 -0.9933 -0.9481  0.6571
 9021TIP3    H251259   3.343   3.689   7.837  0.2584  2.0824 -0.9655
 9022TIP3   OH251260   4.908   5.193   8.964 -0.1039 -0.0948 -0.3807
 9022TIP3    H151261   4.916   5.286   8.983  0.7056  0.0005 -1.1317
 9022TIP3    H251262   4.978   5.175   8.901 -0.8590 -1.0046 -0.9886
 9023TIP3   OH251263   4.451   7.038   8.682 -0.3797  0.0227  0.6556
 9023TIP3    H151264   4.478   7.053   8.773  3.6175  1.4401 -0.5216
 9023TIP3    H251265   4.481   6.950   8.662  1.2847  0.6748  0.0641
 9024TIP3   OH251266   1.510   7.353   7.977  0.4403  0.2082 -0.0776
 9024TIP3    H151267   1.467   7.429   8.018 -0.1002  0.2125 -0.6322
 9024TIP3    H251268   1.460   7.339   7.896  0.4989 -0.7817  0.0541
 9025TIP3   OH251269   5.562   2.238   0.005 -0.3700 -0.2479 -0.1261
 9025TIP3    H151270   5.592   2.247  -0.085  0.7302  2.6756  0.4123
 9025TIP3    H251271   5.639   2.253   0.059 -1.3023 -0.3761  1.3228
 9026TIP3   OH251272   1.791   7.288   8.319 -0.0718 -0.0552 -0.0202
 9026TIP3    H151273   1.783   7.256   8.409 -1.6924  0.2984 -0.0088
 9026TIP3    H251274   1.858   7.357   8.324 -0.8913  0.7022  1.1602
 9027TIP3   OH251275   0.764   0.552   9.347 -0.3036 -0.1461 -0.1284
 9027TIP3    H151276   0.770   0.479   9.285 -1.3486 -0.2606 -0.1095
 9027TIP3    H251277   0.839   0.607   9.326  0.5604 -1.2579 -0.0922
 9028TIP3   OH251278   0.265   4.006   1.928  0.0768 -0.1547 -0.4914
 9028TIP3    H151279   0.246   4.085   1.979 -0.4578 -0.1520 -0.6877
 9028TIP3    H251280   0.239   3.934   1.985 -0.9968 -0.1387 -0.9393
 9029TIP3   OH251281   0.979   4.582   8.059  0.4382 -0.6135  0.0518
 9029TIP3    H151282   0.986   4.544   8.147 -0.8388 -1.1423 -0.0652
 9029TIP3    H251283   0.927   4.662   8.072  1.5945  0.1699  0.0108
 9030TIP3   OH251284   1.525   5.338   7.048 -0.0583 -0.0226 -0.4414
 9030TIP3    H151285   1.533   5.426   7.085 -2.6572  0.6214 -1.2178
 9030TIP3    H251286   1.554   5.279   7.118 -0.2015  1.3541  0.8115
 9031TIP3   OH251287   1.212   7.430   8.573 -0.0777 -0.1561 -0.0369
 9031TIP3    H151288   1.127   7.459   8.607 -0.6980 -1.8902  0.0279
 9031TIP3    H251289   1.199   7.422   8.479 -0.1146 -0.7776  0.0156
 9032TIP3   OH251290   2.026   1.740   8.507 -0.0142 -0.5082  0.5407
 9032TIP3    H151291   2.115   1.761   8.534 -0.5512  2.7432  0.1588
 9032TIP3    H251292   1.980   1.719   8.588  0.4362  0.6750  1.1207
 9033TIP3   OH251293   6.325   5.513   9.278 -0.5471 -0.2314  0.5972
 9033TIP3    H151294   6.305   5.603   9.253  0.7809 -0.1924 -0.4656
 9033TIP3    H251295   6.244   5.479   9.315 -1.3437  1.0979  0.1244
 9034TIP3   OH251296   2.315   5.121   0.030  0.3270 -0.3034  0.5467
 9034TIP3    H151297   2.376   5.062   0.074  0.1730 -0.9414 -0.0766
 9034TIP3    H251298   2.228   5.091   0.060  0.2456 -0.4514  0.1631
 9035TIP3   OH251299   4.186   4.773   2.157 -0.4538  0.2660 -0.1618
 9035TIP3    H151300   4.159   4.753   2.247 -0.5611  0.1062 -0.2304
 9035TIP3    H251301   4.261   4.715   2.141 -0.4261  0.3043 -0.1718
 9036TIP3   OH251302   6.146   2.686   8.442  0.1544  0.0370 -0.0074
 9036TIP3    H151303   6.224   2.731   8.408 -0.7294 -0.3685 -2.8869
 9036TIP3    H251304   6.074   2.748   8.424 -0.4117 -0.3075  1.0174
 9037TIP3   OH251305   1.730   5.607   8.918  0.4938 -0.0295 -0.2742
 9037TIP3    H151306   1.635   5.591   8.913  0.7820 -1.4700 -2.3910
 9037TIP3    H251307   1.742   5.692   8.875  0.2295 -0.2133 -0.7200
 9038TIP3   OH251308   4.005   2.232   8.272  0.2023  0.3981 -0.2288
 9038TIP3    H151309   4.055   2.182   8.207 -0.1421 -0.0334 -0.1604
 9038TIP3    H251310   4.065   2.240   8.346 -0.4842 -1.7785  0.6202
 9039TIP3   OH251311   1.298   7.075   8.662 -0.1205  0.0524  0.5145
 9039TIP3    H151312   1.391   7.095   8.673 -0.2408 -0.3074  2.6697
 9039TIP3    H251313   1.294   7.028   8.580  1.2802  1.8667 -0.6930
 9040TIP3   OH251314   2.592   0.813   1.615 -0.1065  0.2560 -0.3495
 9040TIP3    H151315   2.586   0.856   1.530  0.8314  0.4028 -0.3551
 9040TIP3    H251316   2.630   0.879   1.673 -0.3850  0.0326  0.0963
 9041TIP3   OH251317   1.257   6.213   6.448 -0.4277  0.0737  0.1998
 9041TIP3    H151318   1.260   6.119   6.471 -0.5118 -0.3479 -1.4314
 9041TIP3    H251319   1.230   6.214   6.357  1.0638  1.6385 -0.2624
 9042TIP3   OH251320   4.504   4.571   8.867  0.3081  0.5352  0.2475
 9042TIP3    H151321   4.510   4.599   8.958 -2.0342  0.1900  0.5626
 9042TIP3    H251322   4.427   4.616   8.832  1.0182  0.4779 -1.5146
 9043TIP3   OH251323   5.361   5.725   1.327 -0.2139 -0.5231 -0.0038
 9043TIP3    H151324   5.325   5.643   1.360 -2.1523  0.8297  1.4903
 9043TIP3    H251325   5.302   5.792   1.361  1.4381  1.5280 -0.9683
 9044TIP3   OH251326   5.456   3.472   7.583  0.0232  0.2872  0.5326
 9044TIP3    H151327   5.425   3.562   7.571  1.5020  0.6528 -1.1121
 9044TIP3    H251328   5.544   3.473   7.545  0.6405 -1.5197  1.8096
 9045TIP3   OH251329   2.408   0.333   2.780 -0.1554  0.2942  0.1878
 9045TIP3    H151330   2.321   0.301   2.805 -0.0722 -0.2591 -0.2257
 9045TIP3    H251331   2.469   0.267   2.812  0.0260  0.0819 -0.5797
 9046TIP3   OH251332   2.521   4.623   7.246  0.2046  0.3054 -0.3311
 9046TIP3    H151333   2.439   4.632   7.295  0.2555 -0.8115 -0.0004
 9046TIP3    H251334   2.537   4.710   7.210 -1.7617  0.2861 -1.4223
 9047TIP3   OH251335   2.675   4.691   0.926 -0.4319 -0.0864 -0.5874
 9047TIP3    H151336   2.699   4.723   0.839 -2.3587 -0.8050 -1.4400
 9047TIP3    H251337   2.756   4.694   0.976  0.4220  1.6792 -1.9861
 9048TIP3   OH251338   4.353   4.876   0.487 -0.1616 -0.0464  0.1920
 9048TIP3    H151339   4.265   4.890   0.452 -1.1421 -2.1746  1.6203
 9048TIP3    H251340   4.411   4.893   0.413 -1.9095 -0.6669 -1.3953
 9049TIP3   OH251341   3.102   0.229   8.367 -0.0391 -0.1713  0.1214
 9049TIP3    H151342   3.182   0.281   8.366 -0.2120  0.1940  1.9869
 9049TIP3    H251343   3.113   0.169   8.441 -1.1285 -0.7248 -0.1367
 9050TIP3   OH251344   6.581   3.006   9.033 -0.3811  0.5492 -0.2389
 9050TIP3    H151345   6.502   3.011   9.087  1.0862  1.7665  1.9761
 9050TIP3    H251346   6.620   2.922   9.056  0.7028  1.4488  1.3947
 9051TIP3   OH251347   3.403   2.063   7.506  0.1856  0.1257  0.2982
 9051TIP3    H151348   3.472   2.042   7.443 -0.7682 -0.1159 -0.6974
 9051TIP3    H251349   3.371   2.150   7.479  0.4834  0.5054  1.1139
 9052TIP3   OH251350   4.127   3.471   0.171  0.5709 -1.1006  0.1729
 9052TIP3    H151351   4.134   3.517   0.088  1.4173  0.0000  0.8295
 9052TIP3    H251352   4.217   3.451   0.197  0.4802  0.3088  1.7423
 9053TIP3   OH251353   1.596   0.818   2.042 -0.4774  0.2141 -0.4342
 9053TIP3    H151354   1.520   0.859   2.082  0.0534  1.7754 -0.9384
 9053TIP3    H251355   1.624   0.880   1.974  1.7825  0.1486  0.3417
 9054TIP3   OH251356   4.298   0.181   1.206 -0.7222 -0.1037 -0.0171
 9054TIP3    H151357   4.338   0.097   1.226  1.2338  1.1952  2.0325
 9054TIP3    H251358   4.225   0.188   1.268 -0.6658 -0.1431  0.0532
 9055TIP3   OH251359   4.084   0.954   7.596 -0.2362  0.0456  0.2691
 9055TIP3    H151360   4.147   0.883   7.605 -1.6740 -1.5786 -1.5309
 9055TIP3    H251361   4.108   0.997   7.515 -0.1129  0.8761  0.7358
 9056TIP3   OH251362   3.871   3.119   9.246  0.4296 -0.5153 -0.8327
 9056TIP3    H151363   3.873   3.056   9.318 -1.5365 -0.0279 -0.2947
 9056TIP3    H251364   3.830   3.072   9.173 -0.2083 -0.1531 -0.7146
 9057TIP3   OH251365   3.673   4.265   0.133 -0.3748 -0.3379 -0.1285
 9057TIP3    H151366   3.643   4.227   0.050  0.6539 -2.6097  0.4621
 9057TIP3    H251367   3.594   4.303   0.172 -0.9591  0.3970 -1.9207
 9058TIP3   OH251368   2.725   1.698   0.395 -0.5566 -0.6555 -0.7126
 9058TIP3    H151369   2.746   1.604   0.394  1.8103 -0.3179  2.4766
 9058TIP3    H251370   2.806   1.740   0.365 -1.4640  0.4509 -1.7001
 9059TIP3   OH251371   3.346   6.541   1.777  0.1108  0.2763  0.4373
 9059TIP3    H151372   3.415   6.608   1.777  0.9131 -0.5178  1.5854
 9059TIP3    H251373   3.272   6.582   1.822 -0.5627  1.4583 -1.5783
 9060TIP3   OH251374   2.539   6.867   2.511  0.4812  0.2204  0.7611
 9060TIP3    H151375   2.591   6.854   2.590  2.6359  0.1272 -0.6004
 9060TIP3    H251376   2.507   6.957   2.518  0.5165  0.1671  1.7899
 9061TIP3   OH251377   7.290   6.191   7.466 -0.2861  0.2558  0.3737
 9061TIP3    H151378   7.299   6.096   7.472 -0.1838  0.1014 -1.5638
 9061TIP3    H251379   7.236   6.205   7.388  0.6052  1.8214 -0.0033
 9062TIP3   OH251380   5.916   0.336   9.306  0.3575  0.5587 -0.2573
 9062TIP3    H151381   5.979   0.393   9.263  1.7661 -0.4256  0.4295
 9062TIP3    H251382   5.940   0.248   9.278  0.0142  0.0722  0.9047
 9063TIP3   OH251383   2.573   5.988   1.442 -0.0298  0.1773 -0.5111
 9063TIP3    H151384   2.632   5.977   1.368  1.1776  0.2501  0.4212
 9063TIP3    H251385   2.557   5.899   1.473 -0.6405  0.1365 -0.9167
 9064TIP3   OH251386   1.589   7.308   0.026  0.3983  0.0021  0.5658
 9064TIP3    H151387   1.622   7.241  -0.033  2.1792  0.9603  0.3851
 9064TIP3    H251388   1.596   7.389  -0.025  0.9735  0.6966  1.7193
 9065TIP3   OH251389   6.626   5.861   9.782 -0.0449 -0.7725  0.1101
 9065TIP3    H151390   6.585   5.775   9.775 -0.4574 -0.6859  1.3497
 9065TIP3    H251391   6.555   5.923   9.763  0.0274 -0.6763  0.1530
 9066TIP3   OH251392   5.778   0.849   9.786  0.0200  0.1719 -0.0516
 9066TIP3    H151393   5.852   0.853   9.846 -0.0226  0.0854  0.0063
 9066TIP3    H251394   5.790   0.925   9.728 -0.6517  1.0554  0.9092
 9067TIP3   OH251395   2.218   2.714   8.507  0.0541 -0.5906  0.7005
 9067TIP3    H151396   2.175   2.690   8.589 -0.7932 -0.9386  0.1592
 9067TIP3    H251397   2.303   2.669   8.511  1.0161  1.1958  2.3909
 9068TIP3   OH251398   1.088   3.300   0.239 -0.1339 -0.3112  0.0513
 9068TIP3    H151399   1.005   3.263   0.268 -0.7862 -0.1660 -1.5383
 9068TIP3    H251400   1.068   3.344   0.156  1.2980  0.7230  0.2076
 9069TIP3   OH251401   1.730   1.170   0.557  0.2514 -0.4073 -0.1045
 9069TIP3    H151402   1.679   1.169   0.638 -2.7469  1.3462 -1.7850
 9069TIP3    H251403   1.708   1.087   0.514  2.2716 -1.5865  1.0429
 9070TIP3   OH251404   4.632   3.412   9.482 -0.0995 -0.2962 -0.5061
 9070TIP3    H151405   4.553   3.367   9.512 -1.2060  1.1399 -1.1355
 9070TIP3    H251406   4.628   3.405   9.387 -0.7634  1.7630 -0.6853
 9071TIP3   OH251407   6.842   2.496   1.847 -0.0290 -1.0856  0.0838
 9071TIP3    H151408   6.936   2.478   1.851  0.5017  1.3991  1.0736
 9071TIP3    H251409   6.837   2.590   1.832 -2.3737 -1.1609  0.0965
 9072TIP3   OH251410   7.434   3.173   9.028  0.2891  0.4664 -0.1400
 9072TIP3    H151411   7.475   3.107   8.972  0.7957  0.1472  0.5767
 9072TIP3    H251412   7.438   3.135   9.116  0.2518  1.2969  0.2314
 9073TIP3   OH251413   1.825   3.431   9.995 -0.0908  0.1865 -0.2401
 9073TIP3    H151414   1.787   3.480  10.067 -1.2075 -1.1707  0.1445
 9073TIP3    H251415   1.910   3.400  10.028 -0.3864 -0.0278  0.3239
 9074TIP3   OH251416   3.685   5.270   1.448 -0.2194  0.2848 -0.5655
 9074TIP3    H151417   3.690   5.264   1.544  2.1811  1.2258 -0.5439
 9074TIP3    H251418   3.684   5.364   1.430 -3.0864  0.1694 -1.4863
 9075TIP3   OH251419   0.693   0.812   2.374 -0.1330 -0.4886  0.7098
 9075TIP3    H151420   0.734   0.750   2.433 -1.1817 -1.1426  0.7799
 9075TIP3    H251421   0.613   0.839   2.419 -0.4434 -0.2455  0.0338
 9076TIP3   OH251422   5.129   1.560   1.719 -0.0947  0.0575 -0.0370
 9076TIP3    H151423   5.197   1.628   1.715  1.6278 -1.5844  0.0403
 9076TIP3    H251424   5.131   1.520   1.632 -0.9165 -0.0971  0.0091
 9077TIP3   OH251425   3.040   6.500   8.278  0.1172  0.2695 -0.1630
 9077TIP3    H151426   3.072   6.551   8.352 -2.2595  2.8814 -0.7816
 9077TIP3    H251427   2.966   6.450   8.312 -0.8197  1.2782 -0.6709
 9078TIP3   OH251428   3.661   0.567   9.324  0.1003 -0.0130  0.8385
 9078TIP3    H151429   3.702   0.483   9.302 -0.8449 -0.1765 -0.3779
 9078TIP3    H251430   3.686   0.582   9.415  1.3886 -0.9592  0.6793
 9079TIP3   OH251431   6.644   1.509   1.144 -0.0470 -0.6846 -0.9029
 9079TIP3    H151432   6.672   1.521   1.053 -0.4076 -2.5238 -1.2865
 9079TIP3    H251433   6.721   1.474   1.188  0.1554  0.2889 -0.4414
 9080TIP3   OH251434   0.980   1.988   8.461 -0.3058 -0.6005  0.1579
 9080TIP3    H151435   1.053   2.027   8.508  1.3132  0.1102 -2.7255
 9080TIP3    H251436   0.905   2.044   8.481  0.8707  1.1055 -0.0255
 9081TIP3   OH251437   4.188   1.386   1.766 -0.2231  0.4978 -0.5622
 9081TIP3    H151438   4.203   1.402   1.672 -0.0640 -1.4810 -0.9350
 9081TIP3    H251439   4.108   1.433   1.786 -1.6209 -0.9581 -2.3492
 9082TIP3   OH251440   2.949   6.718   9.353 -0.0437 -0.4418  0.1857
 9082TIP3    H151441   2.968   6.626   9.372 -0.5141 -0.3777  1.0041
 9082TIP3    H251442   2.973   6.729   9.261 -1.7087 -1.8786 -0.4738
 9083TIP3   OH251443   4.135   3.051   8.519 -0.3951  0.1686  0.4535
 9083TIP3    H151444   4.136   3.141   8.486 -1.9282 -0.4813 -1.5734
 9083TIP3    H251445   4.043   3.035   8.542 -0.6084 -1.5489 -1.3381
 9084TIP3   OH251446   2.333   3.651   9.903 -0.6039 -0.3419  0.4813
 9084TIP3    H151447   2.266   3.648   9.835 -0.9407  1.6758  0.6622
 9084TIP3    H251448   2.302   3.718   9.965  0.8836 -0.3755  1.3218
 9085TIP3   OH251449   0.509   4.305   6.639  0.5400  0.4483 -0.0157
 9085TIP3    H151450   0.455   4.230   6.615 -0.4355  1.5442 -1.4307
 9085TIP3    H251451   0.595   4.268   6.660  0.1659 -1.0294 -1.0017
 9086TIP3   OH251452   3.096   2.616   0.203 -0.2847 -0.1385 -0.0640
 9086TIP3    H151453   3.040   2.693   0.210  0.6058  0.4412  1.2579
 9086TIP3    H251454   3.178   2.649   0.168  0.7994 -0.0404  2.3917
 9087TIP3   OH251455   2.119   7.152   8.361  0.0424 -0.8437 -0.0451
 9087TIP3    H151456   2.174   7.228   8.343 -0.7072 -0.1275  0.6384
 9087TIP3    H251457   2.066   7.142   8.282 -1.4945  0.7861  0.7203
 9088TIP3   OH251458   2.540   1.854   8.339 -0.0218  0.3337 -0.1345
 9088TIP3    H151459   2.530   1.933   8.393  0.9089 -1.4168  2.8285
 9088TIP3    H251460   2.628   1.822   8.359 -0.4837 -1.6199 -1.0187
 9089TIP3   OH251461   4.385   4.049   0.046  0.3603  0.0501 -0.1626
 9089TIP3    H151462   4.431   4.071   0.127  0.3961 -0.6476  0.0091
 9089TIP3    H251463   4.318   3.987   0.072 -0.6443  1.0001 -0.4262
 9090TIP3   OH251464   1.961   4.631   7.887 -0.2968 -0.0770 -1.4389
 9090TIP3    H151465   1.872   4.632   7.923 -0.9564 -0.7903 -2.9403
 9090TIP3    H251466   1.977   4.539   7.865  1.3839 -0.2026  0.0550
 9091TIP3   OH251467   0.492   5.703   8.821  0.5963 -0.2176 -0.5755
 9091TIP3    H151468   0.501   5.734   8.731 -1.9703  1.0037 -0.4821
 9091TIP3    H251469   0.425   5.759   8.860  0.5023 -1.7295  1.6409
 9092TIP3   OH251470   0.649   4.171   8.440 -0.2083 -1.3178  0.2306
 9092TIP3    H151471   0.706   4.096   8.421  0.4118 -0.8960  0.4216
 9092TIP3    H251472   0.639   4.170   8.535 -0.4272 -1.3174  0.2086
 9093TIP3   OH251473   4.805   1.754   8.240  0.1456  0.0493 -0.1427
 9093TIP3    H151474   4.776   1.845   8.244  0.5272  0.1787 -0.3157
 9093TIP3    H251475   4.724   1.704   8.228  0.0760  0.4853 -1.6571
 9094TIP3   OH251476   2.054   7.226   0.124  0.2679 -0.6403 -0.0057
 9094TIP3    H151477   2.031   7.230   0.217  1.2547  0.0088  0.2176
 9094TIP3    H251478   2.083   7.314   0.102  0.4051 -0.8839 -0.8383
 9095TIP3   OH251479   3.666   0.610   8.445 -0.7514  0.1141  0.0676
 9095TIP3    H151480   3.640   0.676   8.380  0.3347  0.9264  0.4388
 9095TIP3    H251481   3.719   0.658   8.508  0.1942 -1.1523  0.2648
 9096TIP3   OH251482   3.956   5.918   8.325  0.5145 -0.0726 -0.1881
 9096TIP3    H151483   3.958   5.832   8.366 -0.5902 -0.4801 -0.9620
 9096TIP3    H251484   4.032   5.919   8.266  0.4604 -0.5638 -0.2661
 9097TIP3   OH251485   4.720   2.286   8.873  0.3762  0.2653 -0.5350
 9097TIP3    H151486   4.687   2.367   8.911  0.0579 -0.4871  0.8336
 9097TIP3    H251487   4.777   2.315   8.801 -1.3431  1.6359 -1.4038
 9098TIP3   OH251488   6.404   4.170   2.464 -0.7041  0.0241 -0.2057
 9098TIP3    H151489   6.471   4.234   2.490 -0.3828  0.7677 -2.6505
 9098TIP3    H251490   6.454   4.091   2.443 -0.9279 -0.4453  0.9344
 9099TIP3   OH251491   5.685   2.483   0.648 -0.1698  0.4565  0.2409
 9099TIP3    H151492   5.598   2.506   0.682  0.8503  2.1030  1.9136
 9099TIP3    H251493   5.738   2.471   0.726  0.7783 -2.2156 -0.7077
 9100TIP3   OH251494   0.063   2.593   8.153  0.4333 -0.1803  0.0866
 9100TIP3    H151495   0.159   2.590   8.149  0.4243  0.0835 -0.3286
 9100TIP3    H251496   0.035   2.569   8.064  0.1311  0.6594 -0.0487
 9101TIP3   OH251497   3.991   0.042   8.614 -0.0395  0.2935  0.0654
 9101TIP3    H151498   4.068  -0.013   8.632 -1.1305 -1.7403 -1.1189
 9101TIP3    H251499   4.019   0.098   8.541  0.3639 -0.3314 -0.2676
 9102TIP3   OH251500   2.011   5.057   9.718  0.5010  0.2628  0.5035
 9102TIP3    H151501   2.030   5.124   9.652  0.8040  0.3753  0.7031
 9102TIP3    H251502   1.939   5.094   9.769 -2.2435 -1.3019 -1.9476
 9103TIP3   OH251503   6.577   6.352   1.066 -0.0484  0.1010  0.0488
 9103TIP3    H151504   6.566   6.272   1.013 -0.0264  0.6919 -0.8734
 9103TIP3    H251505   6.504   6.408   1.039  0.7596  0.9689 -0.3909
 9104TIP3   OH251506   2.967   1.515   9.190 -0.3372 -0.0534 -0.1917
 9104TIP3    H151507   2.884   1.526   9.144  1.1317 -1.2128 -3.4753
 9104TIP3    H251508   2.961   1.427   9.229 -0.2824 -0.6247 -1.4140
 9105TIP3   OH251509   1.660   2.099   0.566  0.6426  0.7665  0.4833
 9105TIP3    H151510   1.734   2.040   0.552  0.8862  1.4165 -1.0935
 9105TIP3    H251511   1.584   2.048   0.539  0.6725  0.6209  0.6709
 9106TIP3   OH251512   1.817   4.078   1.827 -0.3010 -0.1245  0.4133
 9106TIP3    H151513   1.763   4.003   1.800  0.6353 -1.2535  1.5724
 9106TIP3    H251514   1.797   4.146   1.762 -2.8626 -0.5849  0.6225
 9107TIP3   OH251515   1.871   3.706   9.626  0.7080  0.6852 -0.1734
 9107TIP3    H151516   1.933   3.686   9.557  0.3544 -1.1430 -0.0093
 9107TIP3    H251517   1.860   3.624   9.673 -0.8550  1.2913  0.5921
 9108TIP3   OH251518   3.141   4.983   8.513 -0.2361  0.1561 -0.2256
 9108TIP3    H151519   3.113   5.075   8.515 -1.0639 -0.0799 -0.5830
 9108TIP3    H251520   3.062   4.934   8.492  0.4189 -0.5613 -1.0948
 9109TIP3   OH251521   5.309   6.567   0.388  0.7795 -0.1279  0.0458
 9109TIP3    H151522   5.314   6.611   0.473 -2.1870 -0.1728  0.3553
 9109TIP3    H251523   5.294   6.638   0.325 -2.2225 -0.3925  0.3199
 9110TIP3   OH251524   2.848   7.278   9.573  0.4250 -0.1526 -0.0319
 9110TIP3    H151525   2.753   7.281   9.583  0.2907  1.6692 -1.3523
 9110TIP3    H251526   2.879   7.360   9.612  1.4837 -0.7999  0.5335
 9111TIP3   OH251527   5.207   4.281   1.109 -0.0733 -0.9336 -0.0539
 9111TIP3    H151528   5.261   4.357   1.127  0.7251 -0.4711 -3.5909
 9111TIP3    H251529   5.231   4.217   1.177  0.0697  1.4755  2.3038
 9112TIP3   OH251530   3.477   0.633   7.403  0.2611  0.0420  0.2564
 9112TIP3    H151531   3.397   0.592   7.436  0.4936 -0.5834  0.0467
 9112TIP3    H251532   3.540   0.623   7.475  0.2091  0.3703  0.3500
 9113TIP3   OH251533   0.903   2.810   3.335 -1.0278 -0.4290 -0.4422
 9113TIP3    H151534   0.811   2.813   3.363 -1.3390  1.5563 -1.4419
 9113TIP3    H251535   0.900   2.836   3.243  0.6412  1.0334 -0.1353
 9114TIP3   OH251536   4.583   6.700   0.986 -0.2321 -0.5124 -0.4314
 9114TIP3    H151537   4.656   6.751   1.020  0.2412 -0.5476 -1.3741
 9114TIP3    H251538   4.622   6.644   0.919 -0.6885 -2.3007  0.7215
 9115TIP3   OH251539   7.279   0.560   2.167  0.2190 -0.0484 -0.5087
 9115TIP3    H151540   7.291   0.466   2.183 -2.0614 -0.3769 -0.3276
 9115TIP3    H251541   7.301   0.601   2.250 -0.4462 -0.6222 -0.0318
 9116TIP3   OH251542   2.118   6.150   7.622  0.1248 -0.3383 -0.3059
 9116TIP3    H151543   2.068   6.211   7.677 -0.7030  0.2134 -1.6273
 9116TIP3    H251544   2.057   6.123   7.554 -0.3878 -4.5511  1.4570
 9117TIP3   OH251545   2.629   6.415   2.953  0.2546  0.7377 -0.4354
 9117TIP3    H151546   2.662   6.443   3.038 -1.1153  0.7329  0.1205
 9117TIP3    H251547   2.594   6.327   2.969  1.4541  0.0611 -1.3870
 9118TIP3   OH251548   1.945   5.631   1.274  0.1741 -0.2674  0.0563
 9118TIP3    H151549   1.915   5.612   1.363  1.4512 -0.3106  0.4931
 9118TIP3    H251550   2.029   5.675   1.285 -0.3821  1.1578 -1.1025
 9119TIP3   OH251551   3.373   4.536   9.939 -0.4733  0.6301  0.0118
 9119TIP3    H151552   3.384   4.600   9.868  0.7511 -0.5775 -0.9354
 9119TIP3    H251553   3.393   4.585  10.019 -0.2929  1.6168 -0.6157
 9120TIP3   OH251554   7.258   3.923   8.261  0.5736 -0.7077 -0.2594
 9120TIP3    H151555   7.240   3.962   8.175 -0.4820 -0.4176  0.0777
 9120TIP3    H251556   7.255   3.997   8.322 -3.0540 -1.3878  0.6236
 9121TIP3   OH251557   2.410   4.142   9.778 -0.2086  0.7368  0.5245
 9121TIP3    H151558   2.467   4.082   9.824 -2.1878 -0.8136  1.0898
 9121TIP3    H251559   2.391   4.211   9.841  0.4531  0.8838  0.5662
 9122TIP3   OH251560   1.843   3.439   7.469  0.1925 -0.1536  0.2276
 9122TIP3    H151561   1.851   3.506   7.401  0.9489 -0.4445  0.0164
 9122TIP3    H251562   1.803   3.365   7.424  0.8126 -0.3920  0.0557
 9123TIP3   OH251563   4.506   5.186   1.959  0.4639 -0.1089 -0.2265
 9123TIP3    H151564   4.582   5.164   2.012  0.6522 -1.1607 -0.8915
 9123TIP3    H251565   4.541   5.206   1.872  0.1666  1.6550  0.0288
 9124TIP3   OH251566   4.681   1.047   8.555 -0.1599  0.4815  0.0118
 9124TIP3    H151567   4.610   1.110   8.571 -0.5052  0.7397 -2.2060
 9124TIP3    H251568   4.656   0.970   8.606 -1.9497  0.6409 -0.5463
 9125TIP3   OH251569   3.540   7.198   6.922 -0.1034  0.6175  0.6143
 9125TIP3    H151570   3.579   7.129   6.976 -0.2584 -0.9720 -1.1985
 9125TIP3    H251571   3.460   7.222   6.968 -0.7968 -1.4608  0.6127
 9126TIP3   OH251572   5.089   0.923   1.662 -0.2583  0.1780 -0.2568
 9126TIP3    H151573   4.999   0.948   1.683 -0.9446 -3.2425  1.7492
 9126TIP3    H251574   5.125   0.891   1.745  2.4487  0.3564 -1.2604
 9127TIP3   OH251575   1.608   2.475   2.131  0.0953 -0.1250 -0.0911
 9127TIP3    H151576   1.580   2.552   2.080 -0.2748  0.4619  0.9718
 9127TIP3    H251577   1.604   2.504   2.222  0.3593 -1.2832  0.3011
 9128TIP3   OH251578   0.624   3.707   9.640 -0.4390 -0.4577  0.1765
 9128TIP3    H151579   0.559   3.755   9.590  0.0223 -1.7388 -1.7346
 9128TIP3    H251580   0.591   3.617   9.645  1.4588 -1.3309 -1.5092
 9129TIP3   OH251581   7.351   0.185   9.920 -0.2774 -0.0621  0.1485
 9129TIP3    H151582   7.328   0.125   9.850 -1.6946 -1.8960  2.0667
 9129TIP3    H251583   7.414   0.137   9.973  0.1431  0.9590  0.5998
 9130TIP3   OH251584   0.584   2.507   6.873 -0.0398  0.1812  0.6594
 9130TIP3    H151585   0.560   2.458   6.794  1.1340  2.8078 -1.5035
 9130TIP3    H251586   0.501   2.522   6.919 -1.0732  0.2386 -1.1383
 9131TIP3   OH251587   6.315   0.984   1.409 -0.2164  0.5639 -0.0265
 9131TIP3    H151588   6.286   0.960   1.321  0.5572 -0.4215 -0.0315
 9131TIP3    H251589   6.251   1.049   1.438 -1.1928  0.0046 -0.8423
 9132TIP3   OH251590   7.213   0.957   8.050 -0.0599 -0.1752  0.0861
 9132TIP3    H151591   7.308   0.952   8.053  0.0203  1.0034 -0.1159
 9132TIP3    H251592   7.194   1.017   7.977 -0.9800 -0.9725 -0.3583
 9133TIP3   OH251593   0.633   1.016   0.626  0.5114 -0.2728  0.1328
 9133TIP3    H151594   0.683   1.094   0.649 -0.5872  0.4024  0.2875
 9133TIP3    H251595   0.611   1.028   0.533  0.5949 -0.5385  0.0789
 9134TIP3   OH251596   4.235   5.644   0.363  0.0748 -0.6174  0.4199
 9134TIP3    H151597   4.176   5.630   0.436  0.3499  0.9385  0.9794
 9134TIP3    H251598   4.186   5.699   0.302  0.7826  0.3991  0.7313
 9135TIP3   OH251599   2.926   3.723   1.711 -0.5357  0.3863  0.4435
 9135TIP3    H151600   2.872   3.688   1.782  1.4640 -2.1695  0.8461
 9135TIP3    H251601   3.003   3.760   1.756  0.0880  0.0343 -0.3206
 9136TIP3   OH251602   2.001   5.001   3.320 -0.3264 -0.3557 -0.3594
 9136TIP3    H151603   2.068   4.981   3.254  0.1524  2.1875 -0.7152
 9136TIP3    H251604   2.050   5.014   3.401 -0.4903  0.4796 -0.3915
 9137TIP3   OH251605   2.774   6.189   2.310 -0.1887  0.0913  0.6474
 9137TIP3    H151606   2.819   6.198   2.394 -1.0455  0.0115  1.1270
 9137TIP3    H251607   2.767   6.094   2.298  0.5526  0.0990  0.1442
 9138TIP3   OH251608   4.228   3.502   8.457  0.2474  0.2943  0.1559
 9138TIP3    H151609   4.242   3.596   8.463 -1.5617  0.5422  0.9202
 9138TIP3    H251610   4.290   3.465   8.520  1.3127  0.8957 -0.4943
 9139TIP3   OH251611   4.607   0.639   8.410  0.7689  0.7867 -0.3948
 9139TIP3    H151612   4.661   0.624   8.487 -0.0882 -1.0598 -0.1047
 9139TIP3    H251613   4.659   0.697   8.355  1.7714  1.4099  1.1561
 9140TIP3   OH251614   3.569   0.990   2.346  0.2831  0.4709 -0.4973
 9140TIP3    H151615   3.522   0.914   2.381  0.5968  0.1786 -0.7086
 9140TIP3    H251616   3.640   1.006   2.409  0.0039  0.8106 -0.2653
 9141TIP3   OH251617   3.201   2.404   0.349  0.3336  0.8939 -0.2273
 9141TIP3    H151618   3.167   2.478   0.299 -0.3241 -0.3607 -1.6873
 9141TIP3    H251619   3.273   2.369   0.296  1.2381  1.0045  0.8789
 9142TIP3   OH251620   4.147   0.993   7.222 -0.3874 -0.0441  0.2867
 9142TIP3    H151621   4.221   1.048   7.195 -0.0674 -0.5492  0.1243
 9142TIP3    H251622   4.079   1.012   7.158  0.5509 -1.6490 -1.2889
 9143TIP3   OH251623   3.193   5.135   9.752  0.3672  0.0066  0.4362
 9143TIP3    H151624   3.238   5.129   9.837 -0.0597  0.0084  0.6646
 9143TIP3    H251625   3.258   5.175   9.694 -0.1249  2.2567  1.3436
 9144TIP3   OH251626   4.468   5.916   1.179  0.1271 -0.0342  0.2444
 9144TIP3    H151627   4.555   5.881   1.201 -0.4546 -0.5433  1.8133
 9144TIP3    H251628   4.452   5.983   1.245 -1.5934 -1.4632  1.3485
 9145TIP3   OH251629   1.995   1.750   7.372  0.6629  0.3181 -0.0229
 9145TIP3    H151630   2.083   1.778   7.397  0.4371 -0.0382  1.2623
 9145TIP3    H251631   1.937   1.796   7.432 -0.0347  0.4923 -0.8125
 9146TIP3   OH251632   2.194   4.113   8.745  0.1158  0.2257 -0.2676
 9146TIP3    H151633   2.123   4.170   8.774 -0.2111  0.1696 -0.9337
 9146TIP3    H251634   2.274   4.164   8.759  0.1380 -0.3001  2.0234
 9147TIP3   OH251635   3.119   5.521   7.130 -0.3348  0.4235  0.2240
 9147TIP3    H151636   3.082   5.577   7.199 -2.7239 -0.7427  0.0066
 9147TIP3    H251637   3.045   5.503   7.072  1.4329  0.7736 -2.3030
 9148TIP3   OH251638   2.278   0.719   2.545 -0.0284  0.0359  0.7321
 9148TIP3    H151639   2.358   0.677   2.576  0.1295  0.3532  0.7557
 9148TIP3    H251640   2.295   0.813   2.552 -0.3873  0.1069  0.7002
 9149TIP3   OH251641   4.083   2.430   1.504  0.1058  0.0599 -0.2985
 9149TIP3    H151642   4.034   2.378   1.568  1.2063  0.4353  0.9027
 9149TIP3    H251643   4.156   2.373   1.477 -0.3054 -0.0662 -1.1798
 9150TIP3   OH251644   4.528   4.259   0.791 -0.0645  0.1760  0.0743
 9150TIP3    H151645   4.473   4.294   0.720  1.0131  0.6141 -0.5583
 9150TIP3    H251646   4.603   4.317   0.794  1.8067 -2.0154 -1.0140
 9151TIP3   OH251647   4.593   3.322   9.225 -0.0464  0.7421 -0.7558
 9151TIP3    H151648   4.594   3.288   9.136 -1.1237 -0.6897 -0.2644
 9151TIP3    H251649   4.560   3.411   9.217  0.4681  0.8495 -1.8417
 9152TIP3   OH251650   4.827   0.456   1.171 -0.2215 -0.3868 -0.6966
 9152TIP3    H151651   4.897   0.452   1.236 -0.3588 -1.0967 -0.5814
 9152TIP3    H251652   4.807   0.364   1.152 -0.6801 -0.1873 -1.2018
 9153TIP3   OH251653   1.760   5.817   1.132  0.1223  0.3292  0.2028
 9153TIP3    H151654   1.837   5.781   1.174 -0.6008  1.1451  2.3785
 9153TIP3    H251655   1.713   5.741   1.098  1.7850 -0.1748 -1.0754
 9154TIP3   OH251656   0.803   5.553   3.179 -0.0156  0.1584  0.3845
 9154TIP3    H151657   0.731   5.603   3.141  1.9561  0.2595 -3.8511
 9154TIP3    H251658   0.786   5.462   3.155  0.6262  0.0074  0.4636
 9155TIP3   OH251659   3.085   3.270   8.403  0.3290  0.6981 -0.4615
 9155TIP3    H151660   3.029   3.226   8.339  0.0016  1.2569 -0.5691
 9155TIP3    H251661   3.027   3.334   8.445  0.4133  0.0420  0.7202
 9156TIP3   OH251662   4.550   3.946   9.614  0.3331 -0.0668 -0.2176
 9156TIP3    H151663   4.485   3.974   9.678 -1.6794 -3.1827 -0.6503
 9156TIP3    H251664   4.621   3.908   9.666  0.2317  0.3272  0.2129
 9157TIP3   OH251665   0.927   4.767   7.727 -0.2347 -0.1608  0.0211
 9157TIP3    H151666   0.869   4.692   7.739 -0.3157 -0.1156 -0.0811
 9157TIP3    H251667   0.890   4.813   7.651 -1.6505  1.3419  1.5191
 9158TIP3   OH251668   1.107   7.278   9.008  0.3161 -0.2384 -0.1164
 9158TIP3    H151669   1.185   7.223   9.015  1.2876  0.8672 -1.6207
 9158TIP3    H251670   1.141   7.365   8.988 -1.2714  0.5176  0.3046
 9159TIP3   OH251671   4.409   6.550   8.622  0.4224 -0.2615 -0.2164
 9159TIP3    H151672   4.456   6.470   8.599 -0.7516 -1.2241  0.5981
 9159TIP3    H251673   4.346   6.523   8.688  2.9251  2.1600  3.5142
 9160TIP3   OH251674   4.734   0.600   1.998 -0.0361  0.0360 -0.2778
 9160TIP3    H151675   4.719   0.525   1.940 -1.3330 -0.5677  0.7746
 9160TIP3    H251676   4.691   0.575   2.080 -0.3248  1.8722  0.1617
 9161TIP3   OH251677   2.339   5.158   1.794 -0.3859 -0.4553  0.6076
 9161TIP3    H151678   2.272   5.090   1.801 -0.9822  0.0940  0.3058
 9161TIP3    H251679   2.290   5.238   1.773  0.4418 -0.2140 -0.4867
 9162TIP3   OH251680   5.875   1.690   8.181  0.3702 -0.2079 -0.8415
 9162TIP3    H151681   5.889   1.728   8.094  3.5772 -2.4801 -1.5083
 9162TIP3    H251682   5.881   1.764   8.241  3.3978  0.8452 -2.2540
 9163TIP3   OH251683   4.786   1.796   9.059 -0.2661 -0.0731  0.0260
 9163TIP3    H151684   4.771   1.742   8.981  1.9593  0.6833 -1.0153
 9163TIP3    H251685   4.808   1.882   9.025 -0.4404  0.6080  1.5566
 9164TIP3   OH251686   0.830   0.047   7.042  0.3459  0.4021  0.2333
 9164TIP3    H151687   0.781  -0.035   7.033  0.5097  0.3418 -0.0900
 9164TIP3    H251688   0.902   0.039   6.980  1.0877  0.2644  1.0873
 9165TIP3   OH251689   1.183   0.819   3.277 -0.0845 -0.0414 -0.0795
 9165TIP3    H151690   1.150   0.852   3.360  1.1975  0.7423  0.1449
 9165TIP3    H251691   1.137   0.872   3.211 -0.1170  0.2589  0.1809
 9166TIP3   OH251692   6.332   5.705   9.514  0.0817 -0.0733 -0.4843
 9166TIP3    H151693   6.321   5.637   9.581 -1.3935  0.2392 -0.3675
 9166TIP3    H251694   6.243   5.735   9.496  0.6596  1.6177 -0.7479
 9167TIP3   OH251695   2.262   3.813   7.138  0.6136 -0.0670 -0.2661
 9167TIP3    H151696   2.256   3.905   7.113  0.6193 -0.8926 -3.8189
 9167TIP3    H251697   2.351   3.803   7.172 -0.1282  1.6026  2.5252
 9168TIP3   OH251698   0.744   5.293   3.098  0.0519 -0.5881 -0.4296
 9168TIP3    H151699   0.777   5.249   3.020  0.1092  0.8179 -1.2328
 9168TIP3    H251700   0.684   5.230   3.138  0.7477 -1.6860 -1.0807
 9169TIP3   OH251701   6.058   2.227   0.711 -0.0342  1.0369  0.2453
 9169TIP3    H151702   6.098   2.292   0.653  0.5154  0.0971 -0.4504
 9169TIP3    H251703   6.133   2.186   0.756 -0.3061  0.3109  0.0516
 9170TIP3   OH251704   4.276   0.757   8.127  0.4483  0.2105  0.3522
 9170TIP3    H151705   4.314   0.794   8.048  1.3349 -1.3086  0.0354
 9170TIP3    H251706   4.191   0.801   8.136  1.8291  3.0372  0.5887
 9171TIP3   OH251707   7.296   0.278   8.237  0.1250  0.6499  0.7288
 9171TIP3    H151708   7.308   0.240   8.150 -0.0807  3.3366 -0.5473
 9171TIP3    H251709   7.368   0.242   8.289  1.0731  0.0888 -0.9172
 9172TIP3   OH251710   3.831   3.132   8.008  0.6450  0.0054  0.0584
 9172TIP3    H151711   3.806   3.040   8.014  1.0803 -0.1144  0.1254
 9172TIP3    H251712   3.757   3.175   7.967  0.6921 -0.4837 -0.5560
 9173TIP3   OH251713   0.638   5.649   8.366 -0.3187  0.0336 -0.0050
 9173TIP3    H151714   0.726   5.646   8.404  0.2302 -0.2686 -1.2669
 9173TIP3    H251715   0.645   5.599   8.285 -1.3434  1.0766 -0.7621
 9174TIP3   OH251716   3.759   0.434   1.956  0.9207  0.2323  0.4697
 9174TIP3    H151717   3.763   0.525   1.926  0.1768  1.2624  3.1237
 9174TIP3    H251718   3.665   0.414   1.958  0.9371  0.1547  1.7233
 9175TIP3   OH251719   2.181   0.024   7.315 -0.2851 -0.3908 -0.1081
 9175TIP3    H151720   2.119   0.092   7.290 -0.3185 -1.1276 -2.2089
 9175TIP3    H251721   2.246   0.069   7.369 -0.3166  1.3037 -1.4299
 9176TIP3   OH251722   4.028   6.689   7.007  0.0197 -0.2514  0.9448
 9176TIP3    H151723   3.945   6.735   6.994 -0.3105  0.3371  4.2565
 9176TIP3    H251724   4.003   6.607   7.050  0.9027 -2.1372 -1.8631
 9177TIP3   OH251725   2.367   2.532   1.233 -0.2469 -0.3269 -0.1431
 9177TIP3    H151726   2.352   2.626   1.235 -2.2001 -0.6086  1.8065
 9177TIP3    H251727   2.454   2.520   1.272 -0.2096  0.6320  0.0741
 9178TIP3   OH251728   3.591   1.769   2.610  0.0668  0.0316 -0.0837
 9178TIP3    H151729   3.546   1.793   2.528 -0.4281 -0.5138  0.0168
 9178TIP3    H251730   3.538   1.809   2.679 -0.5773 -1.0429  0.0651
 9179TIP3   OH251731   7.060   4.063   2.367 -0.0531  0.1601 -0.0498
 9179TIP3    H151732   7.069   3.992   2.303 -0.4473  0.4228 -0.4012
 9179TIP3    H251733   6.969   4.089   2.361 -0.5936 -1.0654  1.9712
 9180TIP3   OH251734   5.020   6.519   0.149 -0.4551  0.0778 -0.1213
 9180TIP3    H151735   5.079   6.589   0.122 -0.8583  1.0559  1.4828
 9180TIP3    H251736   4.942   6.531   0.094 -0.3862  0.6707 -0.0945
 9181TIP3   OH251737   3.893   2.341   9.908 -0.3814 -0.3092 -0.4517
 9181TIP3    H151738   3.934   2.254   9.911 -1.9421 -1.0618  1.7986
 9181TIP3    H251739   3.858   2.348   9.819  0.2732 -1.7360 -0.8540
 9182TIP3   OH251740   2.228   0.986   0.728 -0.2315 -0.5182 -0.0981
 9182TIP3    H151741   2.287   0.911   0.737 -0.0231 -0.6896 -2.3008
 9182TIP3    H251742   2.170   0.961   0.656 -1.1232  0.8427  0.1279
 9183TIP3   OH251743   0.243   1.201   0.222  0.5959 -0.2482  0.8105
 9183TIP3    H151744   0.232   1.137   0.151  1.2790 -0.8921  1.2803
 9183TIP3    H251745   0.293   1.272   0.183 -0.3702  0.1357  0.2176
 9184TIP3   OH251746   1.525   5.928   0.424  0.6986  0.2217 -0.3524
 9184TIP3    H151747   1.608   5.934   0.378  0.3688 -3.9188 -1.9361
 9184TIP3    H251748   1.488   5.845   0.395 -3.8912  1.6881  0.5349
 9185TIP3   OH251749   7.167   4.446   9.315  0.2774 -0.1779  0.3968
 9185TIP3    H151750   7.099   4.463   9.249 -0.8221 -0.6464  1.3813
 9185TIP3    H251751   7.216   4.372   9.279 -1.3083 -1.4726  0.7938
 9186TIP3   OH251752   3.782   4.093   6.947 -0.3097 -0.1134  0.0365
 9186TIP3    H151753   3.783   4.092   6.851 -1.0699  0.7463  0.0025
 9186TIP3    H251754   3.689   4.098   6.970 -0.0727  1.1892  0.7807
 9187TIP3   OH251755   0.234   2.682   8.438  0.0793 -0.8179  0.2530
 9187TIP3    H151756   0.154   2.719   8.475  1.2416  0.1657  1.9660
 9187TIP3    H251757   0.204   2.613   8.380 -2.0097 -0.3968  0.7389
 9188TIP3   OH251758   0.725   3.620   3.196  0.1831  0.3232 -0.0552
 9188TIP3    H151759   0.729   3.640   3.103  0.8684 -1.1946 -0.3965
 9188TIP3    H251760   0.673   3.690   3.235 -0.8778  0.5023 -1.7221
 9189TIP3   OH251761   5.535   4.641   8.464 -0.3633 -0.0216  0.1743
 9189TIP3    H151762   5.529   4.550   8.492 -1.8840 -0.0171 -0.0495
 9189TIP3    H251763   5.447   4.676   8.478  0.6108  1.9628  2.0348
 9190TIP3   OH251764   4.975   5.872   0.476  0.4499 -0.1691 -0.3443
 9190TIP3    H151765   4.886   5.859   0.508  0.0648  0.4565 -1.1368
 9190TIP3    H251766   4.970   5.853   0.383  1.0391  0.3207 -0.4833
 9191TIP3   OH251767   5.163   6.915   9.447  0.1460  0.1978 -0.1389
 9191TIP3    H151768   5.154   7.007   9.422 -0.3042 -0.0194 -0.7806
 9191TIP3    H251769   5.137   6.913   9.539  1.7130  0.9847  0.3627
 9192TIP3   OH251770   0.959   1.654   0.500 -0.3456 -0.3962 -0.1850
 9192TIP3    H151771   0.959   1.576   0.445 -0.0545 -0.9926  0.6550
 9192TIP3    H251772   1.029   1.640   0.563 -0.5121  0.3903  0.1906
 9193TIP3   OH251773   0.999   2.525   7.632 -0.0247 -0.6519 -0.2913
 9193TIP3    H151774   0.962   2.437   7.632 -0.1241 -0.6717 -2.8038
 9193TIP3    H251775   1.091   2.512   7.655 -0.3411 -1.2309  0.6947
 9194TIP3   OH251776   3.826   5.531   8.916  0.0071  0.3595 -0.4527
 9194TIP3    H151777   3.759   5.542   8.984  0.5869  0.6846  0.0720
 9194TIP3    H251778   3.805   5.447   8.876  0.2544 -0.3257  0.8104
 9195TIP3   OH251779   5.749   0.389   0.122 -0.2534  0.1718  0.0995
 9195TIP3    H151780   5.787   0.377   0.035  2.6491  1.9288  0.9675
 9195TIP3    H251781   5.803   0.458   0.162 -3.2284  1.4488  2.2937
 9196TIP3   OH251782   6.438   1.820   8.710  0.3833  0.0384  0.4893
 9196TIP3    H151783   6.374   1.818   8.638 -2.9373  1.4190  3.1408
 9196TIP3    H251784   6.463   1.729   8.722 -1.0387 -0.5656 -0.7143
 9197TIP3   OH251785   7.271   0.571   1.739 -0.3412  0.3199  0.0582
 9197TIP3    H151786   7.189   0.576   1.689 -0.5264  1.4697  0.4560
 9197TIP3    H251787   7.250   0.613   1.823  0.2868 -0.5817  0.6809
 9198TIP3   OH251788   5.387   3.625   8.424 -0.5048  0.2389 -0.0588
 9198TIP3    H151789   5.477   3.643   8.452 -0.0953 -2.0245  0.3364
 9198TIP3    H251790   5.381   3.664   8.337  0.0966  2.3759  0.8048
 9199TIP3   OH251791   0.089   2.626   8.889 -0.1136  0.1154 -0.1620
 9199TIP3    H151792   0.106   2.533   8.872 -0.2241 -0.1294  0.9514
 9199TIP3    H251793   0.010   2.645   8.839 -0.7183 -0.6982  0.4415
 9200TIP3   OH251794   1.183   7.010   7.184 -0.6478 -0.1814  0.3478
 9200TIP3    H151795   1.126   6.982   7.112 -1.4854  0.7630  0.6135
 9200TIP3    H251796   1.127   7.067   7.238  0.0761 -0.5449  1.5277
 9201TIP3   OH251797   2.382   7.116   0.714 -0.2606  0.7791  0.0249
 9201TIP3    H151798   2.385   7.201   0.757  2.5894  1.0668 -0.5751
 9201TIP3    H251799   2.467   7.076   0.731 -0.5775 -0.8853 -1.8046
 9202TIP3   OH251800   6.408   0.916   9.692 -0.0992  0.0699 -0.2438
 9202TIP3    H151801   6.353   0.909   9.771  0.7742 -0.6096  0.3124
 9202TIP3    H251802   6.481   0.971   9.719  0.6222 -0.8353 -0.3388
 9203TIP3   OH251803   5.198   4.501   8.763 -0.0482 -0.0518  0.4874
 9203TIP3    H151804   5.185   4.491   8.857 -0.0940  2.9209  0.9159
 9203TIP3    H251805   5.127   4.560   8.736  0.5919 -0.0030 -1.2075
 9204TIP3   OH251806   4.576   5.438   0.331  0.0997 -0.4539 -0.1769
 9204TIP3    H151807   4.480   5.433   0.324  0.2060 -0.9016 -1.4593
 9204TIP3    H251808   4.598   5.369   0.394 -0.2891 -1.5687 -1.2248
 9205TIP3   OH251809   5.080   5.779   1.176  0.3405 -0.0315  0.4557
 9205TIP3    H151810   5.121   5.865   1.191  0.6346  0.1736 -1.2641
 9205TIP3    H251811   5.109   5.754   1.088 -0.8938 -1.2390  0.3583
 9206TIP3   OH251812   3.024   5.104   0.120  0.3095  0.0237  0.8479
 9206TIP3    H151813   3.045   5.165   0.050 -0.2447  0.3691  0.9741
 9206TIP3    H251814   3.037   5.018   0.082  0.1117  0.2111  0.3523
 9207TIP3   OH251815   5.501   0.545   1.020  0.0439 -0.4450 -0.5810
 9207TIP3    H151816   5.429   0.482   1.011  0.6858 -1.3875  0.4985
 9207TIP3    H251817   5.510   0.584   0.933  0.3624 -2.7095 -1.6363
 9208TIP3   OH251818   6.132   6.710   8.566 -0.4033  0.0013  0.0228
 9208TIP3    H151819   6.179   6.749   8.639 -0.2508 -1.0825  0.5284
 9208TIP3    H251820   6.123   6.781   8.502 -0.9549  1.1079  1.2684
 9209TIP3   OH251821   0.292   1.707   8.054  0.5248  0.1220  0.0638
 9209TIP3    H151822   0.223   1.701   7.988  2.0478 -0.5116 -1.5390
 9209TIP3    H251823   0.309   1.800   8.062 -0.8101  0.3349  0.8564
 9210TIP3   OH251824   1.618   6.592   1.795 -0.2296 -0.1618 -0.1451
 9210TIP3    H151825   1.599   6.655   1.726 -0.4373 -0.5592 -0.4528
 9210TIP3    H251826   1.621   6.507   1.751 -0.7715 -0.4667  0.3884
 9211TIP3   OH251827   1.577   2.772   8.113  0.3368 -0.6056 -0.4622
 9211TIP3    H151828   1.493   2.728   8.105  0.3863 -0.5026 -1.8006
 9211TIP3    H251829   1.638   2.701   8.135 -0.0594 -0.7095  0.3291
 9212TIP3   OH251830   3.124   1.351   9.395 -0.0867  0.7596  0.1928
 9212TIP3    H151831   3.216   1.376   9.407 -0.5098  2.2077  0.6457
 9212TIP3    H251832   3.122   1.309   9.309  0.4856  3.8152 -1.4878
 9213TIP3   OH251833   3.214   4.072   9.526 -0.4657 -0.3372  0.0932
 9213TIP3    H151834   3.226   4.045   9.435 -0.7058 -0.2540  0.0375
 9213TIP3    H251835   3.148   4.141   9.522 -0.7940 -0.6314  0.3750
 9214TIP3   OH251836   2.308   4.797   0.005  0.1459  0.4571 -0.3898
 9214TIP3    H151837   2.359   4.866   0.049 -0.4241  1.7481 -1.6626
 9214TIP3    H251838   2.369   4.760  -0.059  0.9542 -1.3750  1.3400
 9215TIP3   OH251839   2.250   2.374   1.035 -0.5315  0.1609  0.2426
 9215TIP3    H151840   2.284   2.400   1.120  0.5935 -1.3033  0.2839
 9215TIP3    H251841   2.156   2.368   1.047 -0.5585  1.5909  0.9076
 9216TIP3   OH251842   3.371   6.341   0.145  0.1415 -0.5808 -0.4256
 9216TIP3    H151843   3.352   6.424   0.191 -1.7817 -0.7991 -0.7325
 9216TIP3    H251844   3.316   6.277   0.190 -0.5234 -1.1264 -1.9682
 9217TIP3   OH251845   1.788   5.108   8.652 -0.1314  0.5082 -0.1465
 9217TIP3    H151846   1.752   5.101   8.563  1.6198  0.3837 -0.8787
 9217TIP3    H251847   1.766   5.025   8.693  0.0384  0.1078 -0.8508
 9218TIP3   OH251848   1.652   7.041   1.536  0.3053  0.1002  0.2315
 9218TIP3    H151849   1.721   7.108   1.536 -0.0886  0.5175 -0.0867
 9218TIP3    H251850   1.608   7.053   1.451  0.5696 -0.9190 -0.0588
 9219TIP3   OH251851   4.365   0.140   0.110 -0.7856  0.6501  0.3378
 9219TIP3    H151852   4.416   0.221   0.104 -0.3883  0.4366  0.7517
 9219TIP3    H251853   4.408   0.090   0.179  0.3354 -0.8557 -1.3229
 9220TIP3   OH251854   1.728   6.423   8.996 -0.3662 -0.8685  0.2465
 9220TIP3    H151855   1.702   6.372   9.074  0.8758 -0.6797  0.8031
 9220TIP3    H251856   1.786   6.490   9.030 -1.9498  0.9525 -0.4943
 9221TIP3   OH251857   0.714   0.184   9.379  0.3560  0.6987  0.0304
 9221TIP3    H151858   0.621   0.174   9.397  0.1668 -1.1282 -1.6322
 9221TIP3    H251859   0.720   0.262   9.326 -0.1382  1.1594  0.6382
 9222TIP3   OH251860   2.726   2.407   0.046 -0.1207 -0.5485 -0.3311
 9222TIP3    H151861   2.817   2.393   0.070  0.1596 -0.3832 -1.2570
 9222TIP3    H251862   2.725   2.401  -0.050 -0.4975  2.6031 -0.6294
 9223TIP3   OH251863   0.839   5.325   8.499  0.1993  0.1099  0.3920
 9223TIP3    H151864   0.820   5.418   8.511 -1.2582 -0.0302 -0.4986
 9223TIP3    H251865   0.762   5.280   8.534  1.2925 -0.8373  1.6814
 9224TIP3   OH251866   0.840   6.765   8.128  0.1252 -0.0306 -0.3478
 9224TIP3    H151867   0.927   6.758   8.167  0.3243  0.7715 -0.6354
 9224TIP3    H251868   0.780   6.741   8.199  0.5349  0.3997  0.1525
 9225TIP3   OH251869   6.624   0.658   0.544  0.2545 -0.2586 -0.4153
 9225TIP3    H151870   6.700   0.702   0.506  0.3290 -0.4900 -0.5302
 9225TIP3    H251871   6.558   0.728   0.552  0.1198 -0.2803 -1.2775
 9226TIP3   OH251872   4.083   3.825   9.048  0.2745  0.2132 -0.1121
 9226TIP3    H151873   4.164   3.775   9.036  0.2333 -1.2873  4.1821
 9226TIP3    H251874   4.015   3.758   9.056 -0.9678  1.3386 -0.8934
 9227TIP3   OH251875   3.282   5.543   2.518 -0.2542  0.1898 -0.0338
 9227TIP3    H151876   3.326   5.623   2.489 -2.4944  1.9661  1.1135
 9227TIP3    H251877   3.233   5.513   2.441 -0.7718  0.9554 -0.0155
 9228TIP3   OH251878   3.358   4.922   8.679 -0.1726 -0.4851  0.4684
 9228TIP3    H151879   3.287   4.916   8.615  0.0941 -0.3975  0.1602
 9228TIP3    H251880   3.320   4.892   8.761 -1.0845  1.2467  0.7282
 9229TIP3   OH251881   6.246   4.876   8.871 -0.2513 -0.4528 -0.0778
 9229TIP3    H151882   6.279   4.869   8.961 -0.8968  0.6265  0.2688
 9229TIP3    H251883   6.307   4.824   8.819  0.9122 -0.0255  0.8027
 9230TIP3   OH251884   3.216   0.791   0.875  0.1788 -0.1440  0.4828
 9230TIP3    H151885   3.144   0.854   0.870  0.9118  0.8295  1.6268
 9230TIP3    H251886   3.273   0.814   0.801 -0.0868 -0.1450  0.2775
 9231TIP3   OH251887   3.557   2.890   8.367 -0.1543  0.2083  0.7050
 9231TIP3    H151888   3.559   2.977   8.407  0.4460  0.8312 -0.6084
 9231TIP3    H251889   3.647   2.874   8.339 -0.5761 -0.0922 -0.5507
 9232TIP3   OH251890   4.009   4.443   9.521  0.4912 -0.7673 -0.7733
 9232TIP3    H151891   4.098   4.408   9.520 -0.4618 -3.5475 -3.0292
 9232TIP3    H251892   3.953   4.366   9.511 -2.2336  0.8520  0.7432
 9233TIP3   OH251893   5.089   0.154   0.306  0.0690  0.2727 -0.1649
 9233TIP3    H151894   5.130   0.205   0.376  0.2966 -1.2999  0.9047
 9233TIP3    H251895   5.109   0.063   0.328 -0.0163 -0.2880 -2.1908
 9234TIP3   OH251896   0.401   5.598   9.128 -0.1140  0.0472 -0.1641
 9234TIP3    H151897   0.408   5.693   9.121 -1.6412  0.2444  0.4744
 9234TIP3    H251898   0.338   5.574   9.061  0.4788 -0.5589 -0.5088
 9235TIP3   OH251899   3.525   4.064   7.056  0.2924  0.1752 -0.1778
 9235TIP3    H151900   3.456   4.130   7.048 -0.3292 -0.3350  0.7893
 9235TIP3    H251901   3.531   4.047   7.150 -0.7600 -2.3931 -0.4992
 9236TIP3   OH251902   4.562   0.526   1.698  0.2047  0.4986 -0.6430
 9236TIP3    H151903   4.592   0.459   1.760  2.1143  2.0190  0.1812
 9236TIP3    H251904   4.494   0.483   1.647 -0.0060 -1.4566  1.1538
 9237TIP3   OH251905   2.866   1.162   1.353 -0.0576 -0.4898  0.3290
 9237TIP3    H151906   2.804   1.224   1.315  0.8292  1.4815  1.9156
 9237TIP3    H251907   2.948   1.177   1.306  0.0462 -0.8009  0.4042
 9238TIP3   OH251908   5.597   2.259   0.347 -0.7098  0.3853 -0.3058
 9238TIP3    H151909   5.658   2.318   0.301  0.5117 -1.0642 -0.6181
 9238TIP3    H251910   5.647   2.230   0.424 -1.2987 -0.2682 -0.1675
 9239TIP3   OH251911   0.625   6.407   8.185 -0.1294  0.0541 -0.4712
 9239TIP3    H151912   0.562   6.460   8.234 -0.6037 -1.6144  0.8251
 9239TIP3    H251913   0.683   6.372   8.252 -1.0968 -2.7201 -0.9596
 9240TIP3   OH251914   7.424   5.204   8.780  0.2459  0.1831 -0.5642
 9240TIP3    H151915   7.353   5.226   8.720 -0.0090 -1.9431 -1.1263
 9240TIP3    H251916   7.384   5.207   8.867 -0.0337  0.8328 -0.7141
 9241TIP3   OH251917   4.486   3.064   0.799  0.0065 -0.0249  0.1248
 9241TIP3    H151918   4.552   3.066   0.868  1.4556  0.1033 -1.2111
 9241TIP3    H251919   4.505   3.141   0.745  0.1845 -1.1666 -1.5346
 9242TIP3   OH251920   0.384   2.589   9.345  0.1368  0.0361 -0.0407
 9242TIP3    H151921   0.402   2.506   9.301  1.4704  1.0197 -1.4563
 9242TIP3    H251922   0.423   2.655   9.288 -1.6826  1.7305  0.5714
 9243TIP3   OH251923   3.633   2.280   0.022  0.0366  0.2420  0.2449
 9243TIP3    H151924   3.586   2.360  -0.003 -0.7099  0.2379  1.5769
 9243TIP3    H251925   3.723   2.297  -0.005 -0.1990  1.3539  0.0900
 9244TIP3   OH251926   0.574   7.404   0.433  0.2495  0.2851  0.5364
 9244TIP3    H151927   0.642   7.344   0.464  0.3095  1.0234  1.9480
 9244TIP3    H251928   0.600   7.426   0.344  0.8239 -0.9210  0.3908
 9245TIP3   OH251929   4.403   0.956   0.227 -0.3176  0.2654  0.5274
 9245TIP3    H151930   4.442   0.986   0.145  1.7121 -1.2084  0.8813
 9245TIP3    H251931   4.310   0.948   0.208  0.2226 -1.1204 -2.0107
 9246TIP3   OH251932   0.624   2.738   0.414 -0.2690  0.6428  0.2801
 9246TIP3    H151933   0.531   2.727   0.392  0.2234 -1.0335 -1.2147
 9246TIP3    H251934   0.636   2.686   0.494 -0.2724 -0.7171 -0.5683
 9247TIP3   OH251935   0.649   2.367   0.492  0.4444  0.4524 -0.0055
 9247TIP3    H151936   0.585   2.392   0.426 -0.8520  0.6387  1.2834
 9247TIP3    H251937   0.600   2.317   0.557  1.5311  0.8505  1.1722
 9248TIP3   OH251938   7.342   6.546   0.866 -0.1386 -0.7432  0.3662
 9248TIP3    H151939   7.317   6.632   0.833 -0.2292 -0.8851  0.0526
 9248TIP3    H251940   7.291   6.485   0.813  1.2155 -1.0656 -0.6294
 9249TIP3   OH251941   5.319   3.137   1.407  0.8017  0.4497  0.2779
 9249TIP3    H151942   5.399   3.084   1.405  0.7849  0.4424 -0.5943
 9249TIP3    H251943   5.249   3.074   1.421  0.8025  0.2614 -0.5400
 9250TIP3   OH251944   2.174   3.488   7.281  0.7101  0.3301 -0.5415
 9250TIP3    H151945   2.158   3.579   7.304  1.4005  0.5308 -0.8254
 9250TIP3    H251946   2.173   3.486   7.186  2.5012  0.4019 -0.5929
 9251TIP3   OH251947   0.646   0.660   7.779 -0.1344  0.3171  0.2498
 9251TIP3    H151948   0.588   0.687   7.850 -0.4156  1.2615 -0.3256
 9251TIP3    H251949   0.631   0.724   7.710 -0.8013 -1.2871 -1.1666
 9252TIP3   OH251950   0.073   3.647   1.693 -0.3759  0.4716  0.1407
 9252TIP3    H151951   0.077   3.631   1.599  1.2312  0.4384  0.1766
 9252TIP3    H251952   0.099   3.563   1.732 -1.3486  0.3889  0.6235
 9253TIP3   OH251953   6.158   2.572   9.372  0.8532  0.0572  0.1592
 9253TIP3    H151954   6.187   2.481   9.370 -0.9432 -0.5782  0.6805
 9253TIP3    H251955   6.175   2.605   9.284  0.4848 -1.1377 -0.3734
 9254TIP3   OH251956   5.712   2.892   0.451 -0.5900  0.5471  0.2396
 9254TIP3    H151957   5.627   2.891   0.407 -0.7368 -0.4059  0.5293
 9254TIP3    H251958   5.690   2.892   0.544 -0.2727 -0.7984  0.3231
 9255TIP3   OH251959   1.412   1.657   1.661 -0.1414  0.0275  0.1271
 9255TIP3    H151960   1.470   1.683   1.589  1.4877 -3.0982  0.1007
 9255TIP3    H251961   1.449   1.699   1.738  1.3226 -0.6967 -0.1303
 9256TIP3   OH251962   0.915   5.562   7.864 -0.1103 -0.6206 -0.3519
 9256TIP3    H151963   0.894   5.625   7.933  1.3382  0.7865 -1.1262
 9256TIP3    H251964   0.832   5.519   7.845 -1.9979  3.2634 -1.9433
 9257TIP3   OH251965   2.244   0.710   8.890 -0.0108  0.0097  0.0869
 9257TIP3    H151966   2.308   0.740   8.954 -0.0749 -0.4294  0.3631
 9257TIP3    H251967   2.221   0.788   8.840  0.2291  0.3048  0.4330
 9258TIP3   OH251968   0.215   7.046   8.328  0.4521 -0.0569 -0.5374
 9258TIP3    H151969   0.158   7.054   8.252 -0.1064  1.8752  0.0055
 9258TIP3    H251970   0.291   6.997   8.298 -0.7290 -1.1982 -1.7398
 9259TIP3   OH251971   3.858   3.475   8.875 -0.0017 -0.0779  0.3078
 9259TIP3    H151972   3.811   3.393   8.858 -1.0637  0.7262 -0.7865
 9259TIP3    H251973   3.929   3.476   8.810  0.9837 -0.8550  1.3522
 9260TIP3   OH251974   6.674   1.828   0.007  0.0672  0.0395 -0.4015
 9260TIP3    H151975   6.609   1.884  -0.036  0.5971  0.7282 -0.3272
 9260TIP3    H251976   6.623   1.755   0.041 -0.8302  1.0339  0.4752
 9261TIP3   OH251977   4.484   4.280   1.397 -0.3870 -0.1070  0.0469
 9261TIP3    H151978   4.492   4.188   1.422  3.4449 -0.5814 -2.0614
 9261TIP3    H251979   4.451   4.277   1.307 -4.5814  1.0150  1.3260
 9262TIP3   OH251980   5.756   0.367   0.699  0.2172  0.3329 -0.9716
 9262TIP3    H151981   5.837   0.390   0.653  0.0688  0.9244 -0.9479
 9262TIP3    H251982   5.777   0.378   0.792  0.5433 -0.9442 -0.8731
 9263TIP3   OH251983   1.560   0.112   7.560  0.2433  0.1586  0.2167
 9263TIP3    H151984   1.521   0.161   7.633  0.6186  1.2972 -0.3233
 9263TIP3    H251985   1.597   0.034   7.600 -4.1894 -2.0660  0.6002
 9264TIP3   OH251986   0.145   3.451   0.314  0.3732 -0.3812  0.2201
 9264TIP3    H151987   0.071   3.508   0.338  0.4216  0.3824 -1.2608
 9264TIP3    H251988   0.210   3.511   0.278 -0.4780 -1.4394 -3.6029
 9265TIP3   OH251989   3.604   0.692   0.084  0.0832 -0.2563 -0.4074
 9265TIP3    H151990   3.561   0.736   0.011  1.3521  3.1176  0.6925
 9265TIP3    H251991   3.579   0.742   0.161  0.3333 -2.5415  1.2580
 9266TIP3   OH251992   3.609   4.057   9.855 -0.4646 -0.0044 -0.1166
 9266TIP3    H151993   3.565   4.022   9.778  1.4302 -1.4512 -0.6131
 9266TIP3    H251994   3.664   4.127   9.822 -1.1853  0.7526  0.2606
 9267TIP3   OH251995   5.785   1.837   8.705  0.2255 -0.6575 -0.2457
 9267TIP3    H151996   5.852   1.806   8.766  0.9739  0.2825 -0.5655
 9267TIP3    H251997   5.737   1.758   8.680  1.5431 -1.4405 -0.4060
 9268TIP3   OH251998   5.197   5.863   8.639  0.1480 -0.6763 -0.2835
 9268TIP3    H151999   5.179   5.776   8.602  2.0449 -1.1951 -0.1353
 9268TIP3    H252000   5.289   5.858   8.665  0.3271  1.4419 -0.3935
 9269TIP3   OH252001   6.568   1.528   7.650  0.0920  0.0788 -0.2535
 9269TIP3    H152002   6.477   1.548   7.671 -0.2678 -0.3159 -1.3273
 9269TIP3    H252003   6.581   1.438   7.680 -0.6083 -0.7084 -2.1298
 9270TIP3   OH252004   1.099   7.167   8.346 -0.3043 -0.3637  0.2025
 9270TIP3    H152005   1.137   7.243   8.303 -1.2252 -0.4632 -0.8251
 9270TIP3    H252006   1.051   7.202   8.421  0.7121 -0.1208  0.7611
 9271TIP3   OH252007   4.430   3.380   0.874 -0.1262  0.0086 -0.1972
 9271TIP3    H152008   4.364   3.346   0.935  0.3623 -0.5927  0.0048
 9271TIP3    H252009   4.511   3.378   0.924  0.3459 -0.8292 -0.9701
 9272TIP3   OH252010   3.204   1.333   8.374 -0.4403 -0.0739  0.3828
 9272TIP3    H152011   3.284   1.288   8.400 -0.7556 -0.3476  0.9037
 9272TIP3    H252012   3.134   1.283   8.416 -0.8726  0.2432  0.0449
 9273TIP3   OH252013   3.815   5.547   8.214 -0.4020  0.0660 -0.1030
 9273TIP3    H152014   3.886   5.549   8.279 -0.4528 -0.8724 -0.0149
 9273TIP3    H252015   3.860   5.553   8.130 -0.1793 -0.9045 -0.0629
 9274TIP3   OH252016   4.423   5.607   8.595  0.2739 -0.0224 -0.2285
 9274TIP3    H152017   4.367   5.532   8.574 -1.1782  0.7778  0.6216
 9274TIP3    H252018   4.429   5.656   8.513 -1.1735  0.4185 -0.1088
 9275TIP3   OH252019   2.965   6.277   1.568 -0.2851 -0.1429 -0.3139
 9275TIP3    H152020   2.950   6.319   1.483 -1.0470 -0.0295 -0.1299
 9275TIP3    H252021   2.888   6.223   1.582 -1.9941  2.5607  1.9343
 9276TIP3   OH252022   0.641   1.831   1.913 -0.1371  0.1560 -0.2661
 9276TIP3    H152023   0.713   1.893   1.928 -0.8734  0.9155  0.2331
 9276TIP3    H252024   0.562   1.885   1.919 -0.7969 -0.8426  0.2167
 9277TIP3   OH252025   1.646   3.040   0.676 -0.2888  0.0790 -0.5012
 9277TIP3    H152026   1.661   2.946   0.690  0.0952  0.0521 -1.0407
 9277TIP3    H252027   1.594   3.068   0.751 -1.1846 -0.7568 -0.7969
 9278TIP3   OH252028   6.369   6.234   8.082  0.0745 -0.0821 -0.0551
 9278TIP3    H152029   6.360   6.285   8.002  0.4232 -1.1257 -0.7665
 9278TIP3    H252030   6.308   6.275   8.143 -0.3771  0.5663 -0.9231
 9279TIP3   OH252031   3.478   1.777   8.109  1.0721 -0.0569 -0.1466
 9279TIP3    H152032   3.479   1.700   8.165  0.5995  0.2125  0.2374
 9279TIP3    H252033   3.522   1.749   8.029 -0.3566 -1.1615 -0.5797
 9280TIP3   OH252034   1.104   6.659   8.131 -0.4938 -0.3201 -0.6862
 9280TIP3    H152035   1.106   6.567   8.108 -0.3801 -0.1540 -1.3346
 9280TIP3    H252036   1.122   6.706   8.050  1.9047  0.2284  0.0892
 9281TIP3   OH252037   4.216   5.405   1.911 -0.2151  0.5762  0.4274
 9281TIP3    H152038   4.264   5.456   1.846 -1.9140  0.5682 -0.9254
 9281TIP3    H252039   4.143   5.462   1.937 -1.4176 -0.6212 -0.1650
 9282TIP3   OH252040   1.951   1.894   8.732  0.2359 -0.0413 -0.0371
 9282TIP3    H152041   1.864   1.917   8.700  0.3287 -1.1471 -1.1767
 9282TIP3    H252042   2.011   1.945   8.679  0.3385 -0.7878 -0.6578
 9283TIP3   OH252043   3.734   5.784   8.582 -0.4793  0.2151 -0.5675
 9283TIP3    H152044   3.710   5.857   8.526 -1.8216 -0.7377 -1.3182
 9283TIP3    H252045   3.753   5.823   8.667 -3.0512  1.3199 -0.4026
 9284TIP3   OH252046   4.104   5.187   0.152  0.1786 -0.5382 -0.1609
 9284TIP3    H152047   4.136   5.111   0.104  3.2011  0.9964 -0.8637
 9284TIP3    H252048   4.181   5.219   0.200 -1.3654  1.1744  1.3248
 9285TIP3   OH252049   5.925   2.757   2.297 -0.2994 -0.2662  0.2861
 9285TIP3    H152050   5.833   2.781   2.312 -1.0047 -3.7082  3.0080
 9285TIP3    H252051   5.973   2.796   2.370 -0.1329 -0.7399  0.4374
 9286TIP3   OH252052   2.969   3.074   1.522 -0.0968 -0.4493 -0.6120
 9286TIP3    H152053   2.918   3.004   1.563  0.2568 -0.1997  0.2765
 9286TIP3    H252054   2.908   3.147   1.513  0.5330  0.5650  2.3125
 9287TIP3   OH252055   6.716   4.987   9.043  0.7563  0.3492 -0.1350
 9287TIP3    H152056   6.769   5.061   9.072  1.0664 -0.5446  1.7300
 9287TIP3    H252057   6.625   5.018   9.048  0.8838  0.6117  0.6128
 9288TIP3   OH252058   6.421   6.012   1.403  0.1832 -0.3740 -0.2124
 9288TIP3    H152059   6.375   6.087   1.364  2.7937  0.5067 -1.9357
 9288TIP3    H252060   6.440   6.040   1.493 -1.2780 -0.1450  0.0406
 9289TIP3   OH252061   1.988   1.138   1.306  0.0559  0.0392  0.2236
 9289TIP3    H152062   2.013   1.176   1.390  0.7744  2.1893 -0.8875
 9289TIP3    H252063   1.956   1.212   1.254 -0.2799 -1.2082 -1.4344
 9290TIP3   OH252064   3.420   1.572   8.571 -0.1090 -0.4852 -0.1894
 9290TIP3    H152065   3.357   1.598   8.638 -0.3195  0.8595 -0.8765
 9290TIP3    H252066   3.398   1.481   8.551 -1.2592 -0.3134  0.2216
 9291TIP3   OH252067   1.624   3.043   8.187  0.4651  0.1534  0.1392
 9291TIP3    H152068   1.591   2.958   8.158 -0.8011 -0.1538  2.2438
 9291TIP3    H252069   1.706   3.055   8.139  0.3360 -1.9284 -0.7103
 9292TIP3   OH252070   4.989   1.592   8.370  0.7128  0.0359 -0.4292
 9292TIP3    H152071   4.978   1.506   8.330  1.3136 -0.0760 -0.3643
 9292TIP3    H252072   4.918   1.645   8.333  0.0072 -0.6285 -0.0554
 9293TIP3   OH252073   7.438   5.968   2.239  0.0666 -0.2278  0.7085
 9293TIP3    H152074   7.471   5.970   2.149 -2.6467 -1.4413 -0.4183
 9293TIP3    H252075   7.499   6.024   2.288  1.1124  1.2351 -2.0357
 9294TIP3   OH252076   1.233   0.335   1.584 -0.1026  0.5206 -0.0599
 9294TIP3    H152077   1.299   0.320   1.652 -3.1933 -0.4629  3.0358
 9294TIP3    H252078   1.237   0.429   1.566  0.8002  0.8184  1.5370
 9295TIP3   OH252079   3.347   4.739   9.054 -0.3167 -0.2148  0.0872
 9295TIP3    H152080   3.368   4.689   8.975  0.4258 -1.7063  1.1651
 9295TIP3    H252081   3.432   4.752   9.096 -0.8957 -1.3014  1.6704
 9296TIP3   OH252082   1.878   5.718   6.728 -0.0727  0.0319  0.1039
 9296TIP3    H152083   1.818   5.788   6.703  1.2540  1.3864  0.5563
 9296TIP3    H252084   1.870   5.653   6.659  0.1997  1.5962 -1.4667
 9297TIP3   OH252085   1.003   0.096   6.843  0.4332 -0.2855 -0.1303
 9297TIP3    H152086   1.081   0.151   6.847 -0.8615  1.6755 -0.5049
 9297TIP3    H252087   0.946   0.140   6.780 -0.9294 -1.7255  0.0425
 9298TIP3   OH252088   7.457   5.279   8.145 -0.1281  0.2594  0.4756
 9298TIP3    H152089   7.371   5.310   8.170 -0.7934  0.1994 -1.5842
 9298TIP3    H252090   7.452   5.184   8.155 -1.3051 -0.0642 -2.2258
 9299TIP3   OH252091   4.262   2.569   7.636 -0.5031  0.1383  0.3565
 9299TIP3    H152092   4.201   2.548   7.707  0.2737  0.2086  1.0559
 9299TIP3    H252093   4.306   2.487   7.617 -0.4503  0.2013  0.2067
 9300TIP3   OH252094   4.354   0.336   0.400  0.7524 -0.3095 -0.3394
 9300TIP3    H152095   4.440   0.304   0.373  0.0879 -1.4378 -1.2287
 9300TIP3    H252096   4.309   0.258   0.432 -0.5801 -0.1399 -1.6544
 9301TIP3   OH252097   1.259   4.009   1.345  0.0431  0.6069  0.7268
 9301TIP3    H152098   1.220   4.096   1.358 -1.7012 -0.1700  0.9547
 9301TIP3    H252099   1.186   3.948   1.355  0.9573 -0.8148 -0.7815
 9302TIP3   OH252100   3.006   3.961   6.445 -0.2419  0.0490  0.0916
 9302TIP3    H152101   3.064   4.033   6.471  0.2980  0.1820 -1.3719
 9302TIP3    H252102   3.050   3.882   6.476 -0.3632  0.2938  0.8884
 9303TIP3   OH252103   2.516   2.163   0.573 -0.0408  0.3300  0.2538
 9303TIP3    H152104   2.485   2.145   0.662 -3.0077  2.3001 -0.2287
 9303TIP3    H252105   2.546   2.078   0.540 -2.5454 -1.2913  1.8165
 9304TIP3   OH252106   1.191   2.320   8.479 -0.0744 -0.0413  0.0198
 9304TIP3    H152107   1.220   2.288   8.564  1.2354  2.5161  0.6421
 9304TIP3    H252108   1.155   2.407   8.497  2.2668  1.5319 -2.2175
 9305TIP3   OH252109   2.269   0.777   2.288  0.0644  0.2788 -0.0080
 9305TIP3    H152110   2.184   0.811   2.260 -0.6287 -0.7830  0.7689
 9305TIP3    H252111   2.249   0.718   2.360  1.2374 -1.7688 -1.2823
 9306TIP3   OH252112   0.707   2.663   0.670 -0.0428 -0.9438  0.0922
 9306TIP3    H152113   0.752   2.579   0.681 -0.4703 -1.0337  1.2876
 9306TIP3    H252114   0.664   2.679   0.754  1.1630  1.1644  0.3816
 9307TIP3   OH252115   3.262   4.932   1.003 -0.4202 -0.0559 -0.1010
 9307TIP3    H152116   3.341   4.966   0.960  0.0042 -0.6666  0.1777
 9307TIP3    H252117   3.273   4.954   1.095 -1.5174  1.5994 -0.3273
 9308TIP3   OH252118   7.365   1.137   8.629 -0.3153  0.0655  0.6233
 9308TIP3    H152119   7.440   1.191   8.654 -0.2324 -0.0085  0.5381
 9308TIP3    H252120   7.345   1.086   8.707 -0.7848  0.6623  0.8969
 9309TIP3   OH252121   3.415   7.359   2.152 -0.2505  0.4021 -0.3073
 9309TIP3    H152122   3.419   7.424   2.223  0.1240 -0.3834  0.4068
 9309TIP3    H252123   3.352   7.294   2.182  1.5922 -1.1703  0.4051
 9310TIP3   OH252124   0.274   2.014   9.863  0.4137  0.0583 -0.3226
 9310TIP3    H152125   0.204   2.078   9.858 -1.2379 -1.7630 -2.9862
 9310TIP3    H252126   0.341   2.046   9.803  1.2785  1.0100  1.0708
 9311TIP3   OH252127   2.449   1.002   2.144  0.8322  0.3539 -0.2441
 9311TIP3    H152128   2.380   1.068   2.147  0.6721  0.1582  0.8309
 9311TIP3    H252129   2.520   1.039   2.196  0.6312 -0.4260  0.6102
 9312TIP3   OH252130   2.823   4.377   7.730 -0.4727  0.1545 -0.1162
 9312TIP3    H152131   2.889   4.423   7.677  1.0635 -0.7699  0.9141
 9312TIP3    H252132   2.854   4.287   7.733 -0.5468  0.1538  2.2520
 9313TIP3   OH252133   0.905   7.206   1.433 -0.4716  0.7035 -0.2160
 9313TIP3    H152134   0.848   7.266   1.482  1.2154  2.2691 -0.0429
 9313TIP3    H252135   0.962   7.264   1.382  0.9878 -0.7663 -0.3330
 9314TIP3   OH252136   3.548   0.976   9.148 -0.1256 -0.2606  0.3392
 9314TIP3    H152137   3.574   1.020   9.068 -1.6093  1.0933  0.5576
 9314TIP3    H252138   3.555   1.043   9.216  2.1866 -1.6617  1.6297
 9315TIP3   OH252139   2.432   4.462   8.261  0.0297 -0.0065  0.0587
 9315TIP3    H152140   2.416   4.378   8.304  0.3693 -0.7911 -1.2857
 9315TIP3    H252141   2.405   4.528   8.325  4.1028 -0.9349  3.1298
 9316TIP3   OH252142   4.078   5.037   8.288 -0.0401 -0.3324  0.4676
 9316TIP3    H152143   4.047   4.981   8.217  1.0043 -0.6057  0.2109
 9316TIP3    H252144   4.003   5.094   8.308  0.2419  1.1709 -2.2516
 9317TIP3   OH252145   7.430   3.529   0.977  0.0417  0.6118 -0.1234
 9317TIP3    H152146   7.497   3.461   0.975  0.1580  0.7164  0.1901
 9317TIP3    H252147   7.476   3.608   1.005  0.1240  1.0793 -1.5143
 9318TIP3   OH252148   3.100   4.593   2.115  0.1169 -0.3361  1.2167
 9318TIP3    H152149   3.059   4.657   2.173  2.0585  1.1498  1.0612
 9318TIP3    H252150   3.170   4.554   2.168 -0.1615 -1.3397  0.8683
 9319TIP3   OH252151   4.196   2.059   1.356 -0.2836 -0.1851 -0.0340
 9319TIP3    H152152   4.238   2.019   1.432 -0.4050 -0.5122 -0.1344
 9319TIP3    H252153   4.105   2.070   1.382 -0.2993 -0.1863 -0.0883
 9320TIP3   OH252154   1.282   6.763   1.658 -0.4627 -0.3427 -0.6370
 9320TIP3    H152155   1.290   6.704   1.734  2.3839 -0.0575 -0.5827
 9320TIP3    H252156   1.373   6.786   1.637 -1.3277  1.6308 -2.5627
 9321TIP3   OH252157   3.966   4.527   1.961  0.5570 -0.0770 -0.5509
 9321TIP3    H152158   3.919   4.521   2.045 -0.5736 -0.1362 -1.1683
 9321TIP3    H252159   3.998   4.617   1.958  0.6606 -0.0942 -0.0236
 9322TIP3   OH252160   4.449   4.334   0.323  0.2630  0.4325  0.1958
 9322TIP3    H152161   4.498   4.256   0.298  1.4347  1.1122  0.3133
 9322TIP3    H252162   4.374   4.335   0.263  0.2206 -0.7771  0.2086
 9323TIP3   OH252163   4.490   4.805   1.043  0.3707 -0.4918 -0.2793
 9323TIP3    H152164   4.481   4.731   0.983 -0.2932 -0.6501  0.0017
 9323TIP3    H252165   4.429   4.870   1.009 -1.1357 -1.1470  1.0381
 9324TIP3   OH252166   6.799   0.696   8.838 -0.0608 -0.1327 -0.6765
 9324TIP3    H152167   6.880   0.705   8.787 -1.3572 -1.2888 -3.1180
 9324TIP3    H252168   6.795   0.603   8.861 -0.8204 -0.1322 -0.7900
 9325TIP3   OH252169   5.066   1.206   9.380  0.3349 -0.4584  0.6900
 9325TIP3    H152170   5.030   1.143   9.442 -1.5412 -0.5297 -0.3732
 9325TIP3    H252171   5.070   1.158   9.297  0.4207  0.3426  0.2175
 9326TIP3   OH252172   2.285   6.745   2.251  0.1505 -0.3340 -0.5618
 9326TIP3    H152173   2.311   6.660   2.287 -0.3635 -0.3940 -0.3251
 9326TIP3    H252174   2.359   6.771   2.195  0.4220 -0.8130 -0.4314
 9327TIP3   OH252175   4.540   6.049   8.638  0.0311  0.3305 -0.0877
 9327TIP3    H152176   4.583   5.986   8.580  0.1174  0.0591  0.2694
 9327TIP3    H252177   4.558   6.016   8.727  0.7992  1.3088  0.1414
 9328TIP3   OH252178   0.596   3.574   8.844  0.9669 -0.3020 -0.1623
 9328TIP3    H152179   0.530   3.640   8.869  0.5838 -0.5446 -0.5248
 9328TIP3    H252180   0.550   3.516   8.784  1.1265 -1.2455  0.6003
 9329TIP3   OH252181   2.320   3.506   9.250  0.2777 -0.0106  0.3237
 9329TIP3    H152182   2.396   3.536   9.201 -0.0655 -1.1627 -0.9886
 9329TIP3    H252183   2.258   3.579   9.247  1.4302  1.0935  1.7543
 9330TIP3   OH252184   5.433   2.361   1.737 -0.1031  0.7996  0.6529
 9330TIP3    H152185   5.434   2.396   1.648  0.6282  1.4812  0.9193
 9330TIP3    H252186   5.523   2.370   1.767  0.5606 -2.6598  0.2314
 9331TIP3   OH252187   3.395   6.028   2.308 -0.0485  0.0187  0.8103
 9331TIP3    H152188   3.456   6.098   2.285 -0.1674 -0.5095 -1.3401
 9331TIP3    H252189   3.308   6.068   2.304 -0.4171 -0.7189 -3.3733
 9332TIP3   OH252190   1.576   5.531   3.553 -0.6842 -0.1241  0.3629
 9332TIP3    H152191   1.488   5.522   3.516 -0.4969  0.5168 -0.2798
 9332TIP3    H252192   1.618   5.598   3.498 -0.7239  1.6384  2.3330
 9333TIP3   OH252193   6.616   1.217   0.027  0.0459  0.5898  0.1794
 9333TIP3    H152194   6.598   1.232   0.119 -2.2081 -1.8034  0.2574
 9333TIP3    H252195   6.628   1.122   0.020 -0.2404  0.6475 -2.0194
 9334TIP3   OH252196   1.075   5.068   0.374 -0.0473  0.2724  0.0052
 9334TIP3    H152197   1.167   5.075   0.345  0.1615  1.3645  0.8624
 9334TIP3    H252198   1.059   5.150   0.421 -1.2472 -0.2394  0.5123
 9335TIP3   OH252199   2.433   3.300   8.196 -0.1350  0.1904 -0.4559
 9335TIP3    H152200   2.398   3.372   8.144  1.0609  1.7329  0.7564
 9335TIP3    H252201   2.356   3.254   8.229 -0.9344  0.9116 -1.2669
 9336TIP3   OH252202   2.615   0.717   9.048 -0.1387 -0.1515 -0.3710
 9336TIP3    H152203   2.600   0.764   9.130  0.7950  0.0158 -0.2808
 9336TIP3    H252204   2.621   0.625   9.074  0.6519 -0.0492 -0.1752
 9337TIP3   OH252205   0.765   4.027   1.315  0.8221 -0.2788 -0.0149
 9337TIP3    H152206   0.713   3.977   1.378  0.0375 -1.5427 -1.5926
 9337TIP3    H252207   0.717   4.109   1.302  0.6779 -0.2675  0.5696
 9338TIP3   OH252208   7.321   4.195   8.856 -0.0755  0.4171 -0.0008
 9338TIP3    H152209   7.271   4.121   8.890  0.0797 -0.4636 -1.6015
 9338TIP3    H252210   7.263   4.236   8.792  1.1496 -0.6408 -1.9077
 9339TIP3   OH252211   5.125   0.701   0.805 -0.3320  0.2939  0.2958
 9339TIP3    H152212   5.046   0.729   0.851 -0.8371 -0.4856 -0.0731
 9339TIP3    H252213   5.129   0.607   0.819  1.3963  0.5124  1.6066
 9340TIP3   OH252214   6.077   1.197   1.782 -1.2529  0.4586 -0.2406
 9340TIP3    H152215   6.082   1.173   1.689 -1.5634 -1.0008  0.0916
 9340TIP3    H252216   6.126   1.128   1.827 -0.9020  1.2777  0.6834
 9341TIP3   OH252217   7.009   2.656   9.813 -0.2297 -0.4725 -0.6569
 9341TIP3    H152218   6.981   2.641   9.904  0.8190 -0.4054 -0.3129
 9341TIP3    H252219   7.104   2.647   9.815 -0.2128 -0.7428 -1.8135
 9342TIP3   OH252220   1.280   7.104   0.758  0.3692 -0.0207  0.2314
 9342TIP3    H152221   1.256   7.174   0.819 -1.4508  0.4025 -0.9146
 9342TIP3    H252222   1.346   7.143   0.701 -1.7139  1.3931 -1.3948
 9343TIP3   OH252223   0.268   0.692   1.830 -0.4861  0.1942  0.7941
 9343TIP3    H152224   0.211   0.721   1.759 -0.9438 -0.3713  0.9183
 9343TIP3    H252225   0.210   0.682   1.905  0.1473  1.6716  1.5119
 9344TIP3   OH252226   2.890   6.637   2.987  0.2393 -0.7704 -0.0144
 9344TIP3    H152227   2.817   6.699   2.993  1.2183  0.2986  1.7959
 9344TIP3    H252228   2.878   6.578   3.061  1.8266  0.1975  1.0837
 9345TIP3   OH252229   3.891   4.642   9.881  0.3288  0.0561  0.4100
 9345TIP3    H152230   3.839   4.584   9.937  0.2397  0.3114  0.5949
 9345TIP3    H252231   3.860   4.624   9.793  1.7215 -1.6688  0.2113
 9346TIP3   OH252232   0.484   2.523   9.595 -0.4771  0.0012  0.1436
 9346TIP3    H152233   0.534   2.595   9.633 -2.1238  0.6150  1.2102
 9346TIP3    H252234   0.475   2.546   9.503  0.2975  0.3934  0.1564
 9347TIP3   OH252235   2.291   6.607   1.774  0.3703  0.1134  0.3263
 9347TIP3    H152236   2.218   6.652   1.731 -0.8155 -1.3752  0.6821
 9347TIP3    H252237   2.368   6.660   1.752 -0.3798  0.2841 -2.3311
 9348TIP3   OH252238   1.223   0.067   7.621 -0.1217  0.1033  0.1042
 9348TIP3    H152239   1.277   0.142   7.645 -0.7541  0.8107 -0.5998
 9348TIP3    H252240   1.174   0.045   7.701  0.8067 -0.2106  0.5937
 9349TIP3   OH252241   5.050   1.865   8.404  0.4944  0.5531  0.5193
 9349TIP3    H152242   5.042   1.772   8.425 -1.2334  0.5563  0.0273
 9349TIP3    H252243   5.027   1.871   8.312  1.0648  1.4216  0.4189
 9350TIP3   OH252244   7.240   4.940   1.095 -0.1856  0.1655 -0.7225
 9350TIP3    H152245   7.199   5.026   1.088 -0.8907  0.1946  2.4840
 9350TIP3    H252246   7.183   4.883   1.043 -1.2637  1.1660 -0.6929
 9351TIP3   OH252247   1.341   4.862   0.539  0.3534  0.2655 -0.4826
 9351TIP3    H152248   1.346   4.890   0.448 -0.7435 -1.9449 -1.2784
 9351TIP3    H252249   1.339   4.767   0.536 -0.9345  0.1385  1.7802
 9352TIP3   OH252250   4.133   5.052   1.827  0.3518 -0.6268 -0.0525
 9352TIP3    H152251   4.129   5.106   1.906 -0.5499 -0.5767 -0.1226
 9352TIP3    H252252   4.115   5.113   1.756  0.1611 -0.8559 -0.2022
 9353TIP3   OH252253   0.863   6.669   9.646 -0.1608  0.5327  0.2518
 9353TIP3    H152254   0.791   6.730   9.630  0.1214  0.7600 -0.1892
 9353TIP3    H252255   0.929   6.722   9.691  0.5134  0.8459 -1.0531
 9354TIP3   OH252256   3.540   0.266   7.916 -0.7413  0.2014 -0.3034
 9354TIP3    H152257   3.521   0.310   7.998  0.8140  0.2647  0.0428
 9354TIP3    H252258   3.496   0.181   7.924 -0.0820 -0.0486  0.8627
 9355TIP3   OH252259   1.191   3.267   1.472 -0.3651  0.0772 -0.3919
 9355TIP3    H152260   1.195   3.320   1.551  0.2799  0.3615 -0.6115
 9355TIP3    H252261   1.199   3.329   1.400  0.5687 -0.3172 -0.6470
 9356TIP3   OH252262   1.164   6.876   0.868 -0.1506 -0.3408 -0.0022
 9356TIP3    H152263   1.205   6.958   0.841 -1.5662  1.1600  2.0590
 9356TIP3    H252264   1.192   6.812   0.802  1.8717  1.5220 -1.0869
 9357TIP3   OH252265   5.331   2.589   1.177 -0.2672  0.0982 -0.2323
 9357TIP3    H152266   5.334   2.580   1.082 -0.8849  0.4632 -0.2962
 9357TIP3    H252267   5.239   2.572   1.200 -0.0209 -0.4878  0.3572
 9358TIP3   OH252268   0.588   4.387   0.701  0.9553 -0.1189  0.1323
 9358TIP3    H152269   0.569   4.476   0.731 -0.1163 -0.2149 -0.2284
 9358TIP3    H252270   0.675   4.393   0.661  0.9581  0.7336  0.2543
 9359TIP3   OH252271   5.013   3.070   8.276  0.1323 -0.1594 -0.3841
 9359TIP3    H152272   5.104   3.098   8.265  0.4744 -1.2972 -0.6826
 9359TIP3    H252273   5.001   3.065   8.371  0.5187 -0.3841 -0.3429
 9360TIP3   OH252274   7.452   5.805   8.296  0.0627 -0.1075  0.8081
 9360TIP3    H152275   7.483   5.745   8.228  0.1663  0.5126  0.2994
 9360TIP3    H252276   7.531   5.826   8.347  0.2505  0.4761  0.2904
 9361TIP3   OH252277   1.723   1.956   8.580 -0.2365 -0.4486 -0.5633
 9361TIP3    H152278   1.776   1.980   8.504  1.0312 -1.1193  0.0642
 9361TIP3    H252279   1.645   2.011   8.575  0.9136  1.1884 -1.0712
 9362TIP3   OH252280   7.056   6.983   9.373 -0.2435 -0.0906  0.1720
 9362TIP3    H152281   7.064   6.949   9.284 -2.4572 -1.3409  0.3712
 9362TIP3    H252282   7.026   6.908   9.425  1.0902  0.5687  2.0383
 9363TIP3   OH252283   0.099   6.507   8.574  0.1799 -0.1741  0.6009
 9363TIP3    H152284   0.099   6.446   8.500  1.2140 -1.5104  1.6662
 9363TIP3    H252285   0.168   6.570   8.553  0.4715 -0.5507  0.4178
 9364TIP3   OH252286   0.177   4.965   7.942 -0.0881 -0.4412  0.9024
 9364TIP3    H152287   0.087   4.933   7.955 -0.0873 -0.6323  0.4620
 9364TIP3    H252288   0.216   4.901   7.882 -0.4211  0.9421 -0.8604
 9365TIP3   OH252289   1.701   5.972   8.200  0.0184  0.2015 -0.6243
 9365TIP3    H152290   1.791   5.985   8.230  0.2043 -2.5971  0.3134
 9365TIP3    H252291   1.647   6.008   8.270  0.4100  0.1020 -0.2702
 9366TIP3   OH252292   1.043   5.124   9.963  0.0889  0.2106  0.1373
 9366TIP3    H152293   1.015   5.063  10.031 -0.9308  0.1118 -0.3405
 9366TIP3    H252294   1.127   5.090   9.933 -0.2798 -0.7417  0.1555
 9367TIP3   OH252295   4.010   5.163   1.079 -0.1808 -0.1469  0.1962
 9367TIP3    H152296   3.945   5.220   1.037 -1.2451 -0.0381  1.9048
 9367TIP3    H252297   3.999   5.178   1.172  3.5720  1.2544  0.6103
 9368TIP3   OH252298   0.398   0.537   9.085 -0.3882  0.0090  0.0611
 9368TIP3    H152299   0.481   0.502   9.053 -0.8679  0.0038 -1.2411
 9368TIP3    H252300   0.336   0.520   9.015 -1.8508 -1.3156  1.5878
 9369TIP3   OH252301   4.436   2.466   0.582  0.5985  0.3795 -0.5216
 9369TIP3    H152302   4.456   2.385   0.534 -1.4252 -0.0451 -0.7613
 9369TIP3    H252303   4.353   2.496   0.544  0.2331  1.4048  1.0136
 9370TIP3   OH252304   1.075   7.152   1.819 -0.0185  0.1159  0.3555
 9370TIP3    H152305   1.101   7.067   1.782  0.5399  0.7182 -0.6912
 9370TIP3    H252306   1.051   7.132   1.909  1.0415 -1.0080  0.4292
 9371TIP3   OH252307   4.096   0.733   7.313  0.7306  0.1674  0.0735
 9371TIP3    H152308   4.133   0.821   7.303 -0.6050  0.7542  0.1423
 9371TIP3    H252309   4.169   0.681   7.348  2.0583  0.8075 -1.5845
 9372TIP3   OH252310   1.461   3.750   9.275  0.5164 -0.6505 -0.8143
 9372TIP3    H152311   1.490   3.783   9.190 -0.5277  1.2957 -0.4685
 9372TIP3    H252312   1.538   3.755   9.331  0.2153  2.1987 -0.5367
 9373TIP3   OH252313   6.642   4.348   1.761  0.2340 -0.2757 -0.0935
 9373TIP3    H152314   6.575   4.336   1.694  1.0069  1.6613 -1.2870
 9373TIP3    H252315   6.717   4.297   1.730  1.0461  1.6517 -1.4503
 9374TIP3   OH252316   4.778   4.920   0.064 -0.0438 -0.0736  0.2178
 9374TIP3    H152317   4.861   4.872   0.062 -0.1156 -0.2516  1.1059
 9374TIP3    H252318   4.714   4.857   0.099 -0.0881  0.7183  1.6556
 9375TIP3   OH252319   0.738   4.168   6.740 -0.2843  0.0178 -0.6204
 9375TIP3    H152320   0.803   4.128   6.683  1.1496 -0.8170  1.4811
 9375TIP3    H252321   0.711   4.098   6.799  1.0108  1.5688  2.0453
 9376TIP3   OH252322   0.771   6.306   2.467  0.5032 -0.4171 -0.2773
 9376TIP3    H152323   0.712   6.333   2.538  0.8780  0.1707 -0.1764
 9376TIP3    H252324   0.756   6.370   2.398  0.7608 -0.4762 -0.3907
 9377TIP3   OH252325   5.037   1.016   9.169  0.0406 -0.8891 -0.6381
 9377TIP3    H152326   5.041   0.988   9.077  0.0453  0.4586 -1.0683
 9377TIP3    H252327   4.992   0.944   9.214 -2.8351 -0.2716 -2.2468
 9378TIP3   OH252328   1.256   4.147   9.016  0.6780 -0.4669  0.2761
 9378TIP3    H152329   1.234   4.090   9.089 -0.9006 -1.4080 -0.8820
 9378TIP3    H252330   1.188   4.131   8.951  0.8371  1.8858 -0.5752
 9379TIP3   OH252331   3.685   4.685   7.553 -0.2323  0.5600  0.6624
 9379TIP3    H152332   3.667   4.608   7.500  1.3390 -0.7943  2.0046
 9379TIP3    H252333   3.632   4.674   7.631 -0.0948  0.9161  0.8095
 9380TIP3   OH252334   6.270   3.174   8.965  0.0711 -0.3867 -0.0674
 9380TIP3    H152335   6.198   3.235   8.946 -0.6411 -0.8231  1.0880
 9380TIP3    H252336   6.226   3.091   8.984  0.7178 -0.2775  2.2461
 9381TIP3   OH252337   4.523   3.590   9.194  0.0379 -0.5120 -0.2551
 9381TIP3    H152338   4.487   3.636   9.270 -0.6589 -1.3014 -0.0942
 9381TIP3    H252339   4.521   3.656   9.124  0.5162  0.1639  0.3523
 9382TIP3   OH252340   3.896   3.703   1.334  0.1076 -1.0241 -0.0341
 9382TIP3    H152341   3.892   3.608   1.344  0.6225 -0.9864  0.6337
 9382TIP3    H252342   3.806   3.729   1.313 -0.8858 -1.3052  3.2192
 9383TIP3   OH252343   5.434   5.633   8.854 -0.2956 -0.1819  0.2728
 9383TIP3    H152344   5.413   5.710   8.801  1.3770  0.0708 -0.0651
 9383TIP3    H252345   5.475   5.668   8.933 -0.4692 -0.6886  0.5937
 9384TIP3   OH252346   2.503   2.127   7.993  0.0940 -0.6066  0.1735
 9384TIP3    H152347   2.463   2.130   7.906  1.4451 -0.8064 -0.4774
 9384TIP3    H252348   2.459   2.055   8.037 -1.0088 -0.1368 -0.1263
 9385TIP3   OH252349   4.664   3.472   7.992  0.1713 -0.2474  0.7001
 9385TIP3    H152350   4.604   3.533   7.951  1.8471  0.8708 -0.1900
 9385TIP3    H252351   4.688   3.514   8.075  0.2791 -0.3528  0.7228
 9386TIP3   OH252352   4.015   4.563   9.269  0.3924 -0.7082 -0.6949
 9386TIP3    H152353   3.927   4.526   9.281 -0.9035  2.5540  1.7069
 9386TIP3    H252354   4.061   4.543   9.351  0.5638  0.5830 -0.4509
 9387TIP3   OH252355   1.252   2.608   8.528 -0.8118  0.0571  0.6158
 9387TIP3    H152356   1.298   2.683   8.567  0.7355 -0.8421  0.6008
 9387TIP3    H252357   1.160   2.633   8.530 -0.4733  1.3347  1.9837
 9388TIP3   OH252358   4.339   1.185   7.135  0.2688  0.0694  0.3576
 9388TIP3    H152359   4.328   1.124   7.062 -0.4862  2.2301 -1.4753
 9388TIP3    H252360   4.417   1.236   7.112  0.8305 -0.1191  1.7796
 9389TIP3   OH252361   1.162   2.087   2.010 -0.0222  0.0182 -0.0611
 9389TIP3    H152362   1.111   2.167   2.020 -0.1804  0.1452 -1.6347
 9389TIP3    H252363   1.127   2.027   2.077  0.3243  1.3479  1.3525
 9390TIP3   OH252364   1.366   5.275   8.585 -0.0645 -0.2575 -0.0890
 9390TIP3    H152365   1.358   5.181   8.570  2.9035 -0.6874  0.5170
 9390TIP3    H252366   1.433   5.304   8.524  0.2698  1.1451  0.9023
 9391TIP3   OH252367   7.061   6.270   9.921  0.2147  0.3551  0.4189
 9391TIP3    H152368   7.027   6.237   9.838 -2.1200  0.2752  1.3442
 9391TIP3    H252369   7.156   6.275   9.907 -0.0608  0.0316 -2.1149
 9392TIP3   OH252370   4.200   5.703   1.585 -0.3282  0.1654  0.1997
 9392TIP3    H152371   4.136   5.772   1.603 -0.1105  0.1384  1.1315
 9392TIP3    H252372   4.249   5.735   1.508 -1.3944  0.2124 -0.4762
 9393TIP3   OH252373   3.190   1.041   8.235 -0.3170  0.3861  0.2478
 9393TIP3    H152374   3.097   1.028   8.214 -0.2231 -0.7583  0.4616
 9393TIP3    H252375   3.219   1.109   8.174 -1.6442  1.8637  1.1866
 9394TIP3   OH252376   1.700   0.376   7.668  0.1532 -0.0253 -0.0493
 9394TIP3    H152377   1.641   0.309   7.706 -0.6129  0.5857 -0.1336
 9394TIP3    H252378   1.761   0.326   7.614  1.2739 -0.9405  1.9245
 9395TIP3   OH252379   3.033   5.228   7.040  0.2371 -0.0477 -0.5263
 9395TIP3    H152380   2.988   5.257   6.961  0.4306  0.8334 -0.3168
 9395TIP3    H252381   2.981   5.265   7.112  0.7268  0.1392 -0.2656
 9396TIP3   OH252382   3.109   0.826   2.289 -0.8008  0.3901 -0.4845
 9396TIP3    H152383   3.049   0.863   2.353  1.0201 -0.0576  1.5977
 9396TIP3    H252384   3.182   0.889   2.286  0.6967 -1.2207  0.4856
 9397TIP3   OH252385   5.198   3.849   9.883  0.0804 -0.4768 -0.1486
 9397TIP3    H152386   5.154   3.832   9.966  0.7668  0.4003  0.4190
 9397TIP3    H252387   5.242   3.767   9.862  1.7629 -0.0906  1.5446
 9398TIP3   OH252388   7.263   5.981   7.097 -0.2294  0.1019 -0.1252
 9398TIP3    H152389   7.235   6.064   7.137  0.7239  0.3750  0.0057
 9398TIP3    H252390   7.330   6.007   7.034 -1.2986 -0.3804 -1.5132
 9399TIP3   OH252391   3.151   3.116   8.649  0.1070  0.5515 -0.3175
 9399TIP3    H152392   3.175   3.034   8.605 -0.3881  0.0391  0.3448
 9399TIP3    H252393   3.145   3.180   8.578 -0.5031 -0.2118 -0.9832
 9400TIP3   OH252394   3.587   6.752   2.195 -0.4712  0.1061 -0.1647
 9400TIP3    H152395   3.604   6.692   2.123 -0.1515  0.2599 -0.2185
 9400TIP3    H252396   3.648   6.726   2.264 -0.2504  0.4349 -0.2300
 9401TIP3   OH252397   0.912   3.360   1.810  0.7911  0.3594  0.0815
 9401TIP3    H152398   0.857   3.282   1.803 -0.1922  1.0713 -0.3469
 9401TIP3    H252399   1.001   3.326   1.814  0.3518 -0.8039  0.4077
 9402TIP3   OH252400   6.087   4.857   0.370 -0.3993 -0.0603 -0.2029
 9402TIP3    H152401   6.082   4.808   0.288  0.0145  0.5994 -0.6268
 9402TIP3    H252402   6.132   4.938   0.347  0.0182 -0.0136  0.7479
 9403TIP3   OH252403   2.591   0.293   2.524 -0.1716  0.0740 -0.1350
 9403TIP3    H152404   2.558   0.306   2.613  2.2894 -0.6102  0.9749
 9403TIP3    H252405   2.581   0.378   2.482  0.5819  1.0390  1.5336
 9404TIP3   OH252406   0.088   4.912   1.195 -0.6772  0.0959  0.2324
 9404TIP3    H152407   0.048   4.894   1.280 -2.1692  0.7564 -0.2975
 9404TIP3    H252408   0.086   5.008   1.188  0.0619  0.0828 -0.2627
 9405TIP3   OH252409   5.230   6.149   7.810  0.3491  0.0418  0.5117
 9405TIP3    H152410   5.253   6.068   7.764  2.1419  0.3098  0.8658
 9405TIP3    H252411   5.206   6.120   7.898 -1.0038 -0.2679  0.0647
 9406TIP3   OH252412   3.049   2.005   8.184  0.1243  0.1920 -0.2110
 9406TIP3    H152413   3.122   1.964   8.138 -1.6734 -1.9092 -1.4420
 9406TIP3    H252414   3.076   2.007   8.276  1.3675 -1.4687 -0.4910
 9407TIP3   OH252415   3.288   5.350   8.359 -0.1444 -0.2316  0.2216
 9407TIP3    H152416   3.258   5.404   8.432 -1.3521 -1.2078  0.4923
 9407TIP3    H252417   3.308   5.266   8.398 -1.3148 -0.9395 -0.6079
 9408TIP3   OH252418   1.576   0.003   2.570  0.2938  0.2348 -0.0328
 9408TIP3    H152419   1.668   0.030   2.580  0.5484 -0.4181 -0.5936
 9408TIP3    H252420   1.572  -0.082   2.615 -0.6760  1.4598  2.3901
 9409TIP3   OH252421   3.795   6.662   2.334 -0.3519  0.3604  0.1773
 9409TIP3    H152422   3.799   6.575   2.295  0.2561  0.3270  0.3050
 9409TIP3    H252423   3.879   6.673   2.379  0.5677  1.9223 -1.7662
 9410TIP3   OH252424   2.734   3.651   1.929  0.1484  0.2935  0.1289
 9410TIP3    H152425   2.748   3.634   2.022  0.5144  0.2507  0.0689
 9410TIP3    H252426   2.653   3.603   1.908  1.4150 -1.8697 -0.1390
 9411TIP3   OH252427   1.408   2.154   7.166 -0.1240  0.0744 -0.1251
 9411TIP3    H152428   1.471   2.086   7.190 -1.6313 -1.2215  0.3363
 9411TIP3    H252429   1.418   2.163   7.071  0.4600 -0.4410 -0.1177
 9412TIP3   OH252430   4.851   4.008   9.743 -0.1145  0.2597  0.4743
 9412TIP3    H152431   4.794   4.017   9.819  0.0654  0.0276  0.6362
 9412TIP3    H252432   4.839   3.918   9.714  0.2056  0.1977  0.5372
 9413TIP3   OH252433   1.520   2.987   9.959 -0.1295 -0.3654  0.0510
 9413TIP3    H152434   1.568   3.069   9.968 -1.2320  0.1353  1.9678
 9413TIP3    H252435   1.435   3.005  10.000 -0.8163 -2.1258 -0.5091
 9414TIP3   OH252436   2.080   0.700   1.725 -0.1536  0.0922  0.2802
 9414TIP3    H152437   2.161   0.751   1.714  0.0358 -0.4988 -1.2250
 9414TIP3    H252438   2.074   0.646   1.646 -0.6698 -1.7994  1.5404
 9415TIP3   OH252439   6.144   6.277   8.705 -0.5422  0.0622  0.6729
 9415TIP3    H152440   6.151   6.366   8.742  1.1909  0.2955 -0.0881
 9415TIP3    H252441   6.063   6.278   8.656 -0.7601  1.1097  1.0125
 9416TIP3   OH252442   7.195   2.173   0.520  0.1035  0.4107 -0.6287
 9416TIP3    H152443   7.245   2.235   0.467 -0.1964  0.2218 -1.1426
 9416TIP3    H252444   7.104   2.187   0.495 -0.4309  2.4150  2.0087
 9417TIP3   OH252445   1.757   0.353   0.086 -0.2615  0.3412 -0.6446
 9417TIP3    H152446   1.698   0.427   0.081 -0.5799  0.1612  0.2666
 9417TIP3    H252447   1.738   0.301   0.008  0.1130  1.3113 -1.4003
 9418TIP3   OH252448   7.362   3.592   2.673 -0.4758  0.1292  0.1642
 9418TIP3    H152449   7.323   3.612   2.758  1.1610 -1.1940  1.3034
 9418TIP3    H252450   7.315   3.514   2.642  0.3764 -0.7197  0.9459
 9419TIP3   OH252451   2.504   5.340   6.774 -0.3368 -0.2933  0.5944
 9419TIP3    H152452   2.557   5.296   6.840  0.9142  0.0860 -0.1213
 9419TIP3    H252453   2.421   5.359   6.818 -0.0623 -1.3284  1.5958
 9420TIP3   OH252454   2.704   1.056   3.305  0.1762 -0.0281  0.5199
 9420TIP3    H152455   2.725   0.980   3.250  0.1094  0.7330 -0.5800
 9420TIP3    H252456   2.609   1.053   3.314  0.0455  0.5673 -0.5078
 9421TIP3   OH252457   4.783   4.026   0.979 -0.4113 -0.0942  0.0333
 9421TIP3    H152458   4.817   4.045   0.892  2.1119 -0.4539  0.8570
 9421TIP3    H252459   4.701   3.980   0.964 -0.9726  1.4764 -2.1083
 9422TIP3   OH252460   3.060   3.804   8.685 -0.5530 -0.5651 -0.1464
 9422TIP3    H152461   3.131   3.740   8.696  2.2415  2.2325 -0.4575
 9422TIP3    H252462   3.020   3.780   8.601  0.2936 -1.9840 -0.1897
 9423TIP3   OH252463   0.032   2.507   1.611 -0.6294  0.1342  0.6248
 9423TIP3    H152464   0.039   2.423   1.566  0.2018  0.7498 -0.4390
 9423TIP3    H252465   0.096   2.563   1.568  0.3251  0.7259  2.7184
 9424TIP3   OH252466   6.175   1.993   1.172  0.1409 -0.6584  0.1393
 9424TIP3    H152467   6.110   1.933   1.137  0.5614 -1.4573  0.6897
 9424TIP3    H252468   6.124   2.056   1.224 -0.5353  0.7978 -2.1507
 9425TIP3   OH252469   1.936   0.066   9.852  0.1690  0.6350  0.0886
 9425TIP3    H152470   1.913   0.154   9.823  2.1652  0.7664 -1.2832
 9425TIP3    H252471   1.985   0.078   9.933  1.1034  0.8896 -0.4941
 9426TIP3   OH252472   4.863   4.163   1.209  0.4341  0.2101 -0.1244
 9426TIP3    H152473   4.811   4.130   1.282  1.0875  2.5814  1.5251
 9426TIP3    H252474   4.833   4.113   1.133 -2.1074 -0.5615  1.2920
 9427TIP3   OH252475   3.205   6.190   7.135  0.0946  0.2179 -0.3224
 9427TIP3    H152476   3.149   6.142   7.196  2.5736  0.4153  2.3060
 9427TIP3    H252477   3.153   6.266   7.109 -1.1837 -0.0369  1.3188
 9428TIP3   OH252478   0.426   6.585   0.187  0.1808 -0.3115 -0.3198
 9428TIP3    H152479   0.354   6.648   0.180  0.5943  0.1928 -0.1281
 9428TIP3    H252480   0.389   6.512   0.236 -0.5006 -0.5226 -1.1244
 9429TIP3   OH252481   1.006   5.379   7.481 -0.2603  0.1920  0.3384
 9429TIP3    H152482   1.078   5.320   7.457  0.6975  1.4160  0.1085
 9429TIP3    H252483   0.964   5.401   7.398 -0.6967 -0.2456  0.4375
 9430TIP3   OH252484   3.977   3.164   8.836  0.0998 -0.1971  0.1704
 9430TIP3    H152485   4.067   3.181   8.808 -0.4209 -0.6585 -2.0112
 9430TIP3    H252486   3.926   3.172   8.755 -2.1659  2.1898  1.6768
 9431TIP3   OH252487   0.408   5.338   7.155  0.1946  0.5451 -0.0352
 9431TIP3    H152488   0.327   5.333   7.207  0.3859  2.1328  0.4547
 9431TIP3    H252489   0.399   5.267   7.091 -1.4808  0.5508  0.1441
 9432TIP3   OH252490   2.931   2.143   2.884  0.5058  0.1514  0.0683
 9432TIP3    H152491   2.889   2.058   2.895  1.0598 -0.2094 -0.5190
 9432TIP3    H252492   2.870   2.206   2.923 -0.5747 -0.3599 -0.7484
 9433TIP3   OH252493   7.251   2.536   1.696  0.3265 -0.3396  0.2146
 9433TIP3    H152494   7.337   2.522   1.655 -0.4651 -1.2925 -1.2082
 9433TIP3    H252495   7.216   2.613   1.651  0.5923  0.3211  1.1072
 9434TIP3   OH252496   1.065   2.292   9.338  0.4056 -0.0936 -0.2773
 9434TIP3    H152497   1.160   2.308   9.341  0.7353 -1.8587 -0.3450
 9434TIP3    H252498   1.053   2.210   9.387 -1.1867  0.4642  0.3243
 9435TIP3   OH252499   3.642   4.857   7.905 -0.3869 -0.3104  0.4257
 9435TIP3    H152500   3.705   4.800   7.949 -1.9495 -1.4570  1.2918
 9435TIP3    H252501   3.632   4.932   7.963 -0.4927 -0.5587  0.7264
 9436TIP3   OH252502   1.101   3.382   2.111  0.1842 -0.3245  0.2742
 9436TIP3    H152503   1.086   3.338   2.027 -0.1925 -0.1617  0.2557
 9436TIP3    H252504   1.067   3.321   2.177 -1.2842  0.3590  0.1877
 9437TIP3   OH252505   0.788   3.482   2.203 -0.3036  0.1338  0.5718
 9437TIP3    H152506   0.697   3.494   2.178 -0.3731 -1.4389 -0.0493
 9437TIP3    H252507   0.801   3.387   2.203  1.3843  0.3299  0.4244
 9438TIP3   OH252508   7.037   4.924   1.969  0.3586 -0.1962 -0.2159
 9438TIP3    H152509   7.111   4.867   1.948  1.6680  0.7980  1.4439
 9438TIP3    H252510   6.975   4.867   2.013  0.4603 -0.8876 -0.9443
 9439TIP3   OH252511   1.506   4.737   0.999 -0.4236 -0.1250 -0.4714
 9439TIP3    H152512   1.482   4.657   1.046 -1.2912 -0.3045 -1.2041
 9439TIP3    H252513   1.598   4.724   0.976  0.2344  0.2279  1.6739
 9440TIP3   OH252514   0.752   4.477   9.022  0.4964  0.5105 -0.1909
 9440TIP3    H152515   0.714   4.516   8.943 -1.6563  0.3376  0.6926
 9440TIP3    H252516   0.830   4.431   8.991  1.0493  2.4042 -1.8240
 9441TIP3   OH252517   5.959   2.913   9.149  0.3796  0.1289 -0.5447
 9441TIP3    H152518   5.886   2.910   9.210  0.4559  1.2460 -0.3661
 9441TIP3    H252519   5.959   2.828   9.106  0.2486 -0.6449  0.9169
 9442TIP3   OH252520   2.833   3.181   7.295  0.0878  0.3866  0.6885
 9442TIP3    H152521   2.917   3.180   7.341  0.2207 -1.7924  0.5288
 9442TIP3    H252522   2.836   3.104   7.238 -1.6508  0.7927 -0.0293
 9443TIP3   OH252523   2.024   0.136   8.650  0.1276  0.0444 -0.0050
 9443TIP3    H152524   1.947   0.107   8.700 -0.0020  0.2011 -0.1120
 9443TIP3    H252525   1.994   0.214   8.603  0.5121  0.4348  0.3916
 9444TIP3   OH252526   7.276   4.824   8.889  0.1580  0.4410  0.0557
 9444TIP3    H152527   7.182   4.807   8.891  0.0367  0.8130  3.2347
 9444TIP3    H252528   7.315   4.745   8.852 -1.3718  0.2862 -1.3030
 9445TIP3   OH252529   6.120   0.791   9.763 -0.5160  0.3655 -0.0350
 9445TIP3    H152530   6.162   0.863   9.809  2.6127 -1.7272  0.7265
 9445TIP3    H252531   6.106   0.724   9.830 -0.3563 -0.9223 -1.2242
 9446TIP3   OH252532   0.472   5.535   0.059  0.1743 -0.2437 -0.0586
 9446TIP3    H152533   0.556   5.568   0.091 -0.4581  0.4732  0.9271
 9446TIP3    H252534   0.447   5.593  -0.012 -0.2926  0.6135  0.7855
 9447TIP3   OH252535   1.955   4.391   7.475  0.2992 -0.3967 -1.0541
 9447TIP3    H152536   2.018   4.325   7.506  0.8488 -0.0952 -1.5024
 9447TIP3    H252537   1.877   4.376   7.528  0.5370 -1.1783 -0.9057
 9448TIP3   OH252538   1.401   1.955   0.513 -0.2153 -0.6057 -0.7060
 9448TIP3    H152539   1.343   1.981   0.442 -0.5663 -0.9146 -0.5366
 9448TIP3    H252540   1.423   1.863   0.493 -0.5357 -0.7805 -0.2743
 9449TIP3   OH252541   2.119   4.333   7.092 -0.5950  0.0552  1.1887
 9449TIP3    H152542   2.084   4.325   7.003 -1.5501  1.5846  1.3934
 9449TIP3    H252543   2.122   4.427   7.108  0.7612 -0.1564  2.3303
 9450TIP3   OH252544   7.331   7.101   2.076 -0.0090 -0.0074  0.1208
 9450TIP3    H152545   7.270   7.113   2.149  0.0163 -1.0400  0.3292
 9450TIP3    H252546   7.418   7.112   2.115 -0.0264  0.4741  0.0281
 9451TIP3   OH252547   3.199   4.516   1.034  0.9699 -0.0839 -0.7002
 9451TIP3    H152548   3.185   4.423   1.053  0.6308 -0.2261 -1.6059
 9451TIP3    H252549   3.190   4.523   0.939  0.6783  0.9335 -0.6077
 9452TIP3   OH252550   4.648   0.782   1.659 -0.1475  0.0913 -0.2174
 9452TIP3    H152551   4.618   0.696   1.687 -0.7818  1.0445  2.2870
 9452TIP3    H252552   4.581   0.811   1.597  0.7491 -1.6702 -2.1139
 9453TIP3   OH252553   5.157   3.163   7.861 -0.1378  0.0218 -0.4248
 9453TIP3    H152554   5.158   3.254   7.832 -1.2622  0.3044  0.3572
 9453TIP3    H252555   5.078   3.125   7.823  0.8348 -0.9264 -1.5556
 9454TIP3   OH252556   4.980   3.242   1.415 -0.3186 -0.0688 -0.0635
 9454TIP3    H152557   4.898   3.196   1.395 -1.4879  1.6329  0.6257
 9454TIP3    H252558   5.040   3.172   1.440 -1.9815 -1.2711  0.8178
 9455TIP3   OH252559   0.989   3.697   0.016  0.2452  0.2560 -0.2204
 9455TIP3    H152560   0.998   3.747   0.097 -0.3581  0.4149 -0.2407
 9455TIP3    H252561   0.909   3.732  -0.024  1.0220  0.7927 -1.3270
 9456TIP3   OH252562   0.098   0.545   1.033  0.5496 -0.0647 -0.3031
 9456TIP3    H152563   0.183   0.526   0.995  0.1544  0.5810 -1.5887
 9456TIP3    H252564   0.036   0.493   0.982  0.0148  0.7320 -0.4926
 9457TIP3   OH252565   5.192   1.710   7.782  0.6275  0.6434 -0.0622
 9457TIP3    H152566   5.146   1.740   7.703  1.4643 -1.4595 -1.4430
 9457TIP3    H252567   5.135   1.643   7.819  1.8363 -1.0384 -1.0512
 9458TIP3   OH252568   0.315   4.809   8.541 -0.0889 -0.1932 -0.5768
 9458TIP3    H152569   0.283   4.783   8.628  1.2942 -1.0844 -0.2935
 9458TIP3    H252570   0.256   4.765   8.480 -0.8235  0.1003 -0.0988
 9459TIP3   OH252571   3.601   5.940   0.172 -0.1962  0.3431  0.0508
 9459TIP3    H152572   3.614   5.912   0.262 -0.6442 -0.7557 -0.2064
 9459TIP3    H252573   3.674   5.902   0.123  0.4354  1.5066  0.0353
 9460TIP3   OH252574   1.086   1.392   3.038  0.7440 -0.0880 -0.5625
 9460TIP3    H152575   0.997   1.366   3.014  1.3656 -2.6768 -0.3884
 9460TIP3    H252576   1.074   1.463   3.101 -1.1455  0.1844 -1.1513
 9461TIP3   OH252577   2.443   5.361   0.275 -0.0552  0.5662 -0.3126
 9461TIP3    H152578   2.378   5.346   0.344 -1.2737  0.2542 -1.4984
 9461TIP3    H252579   2.526   5.338   0.316 -1.0114 -2.1837  0.2984
 9462TIP3   OH252580   1.330   6.633   1.884  0.6741  0.0974  0.1614
 9462TIP3    H152581   1.269   6.637   1.957 -1.3668 -0.5210 -1.4041
 9462TIP3    H252582   1.416   6.643   1.924 -0.4758  2.6627  2.3253
 9463TIP3   OH252583   0.777   3.929   8.949 -0.5108 -0.6465  0.2192
 9463TIP3    H152584   0.858   3.980   8.948  0.3993 -2.0543 -0.7159
 9463TIP3    H252585   0.778   3.880   8.867 -2.2741 -0.7728  0.2325
 9464TIP3   OH252586   0.053   2.919   1.537  0.2873  0.2181  0.0869
 9464TIP3    H152587   0.110   2.842   1.538 -0.9729 -0.7487  0.0699
 9464TIP3    H252588   0.076   2.965   1.456 -0.4247 -1.3217 -1.0326
 9465TIP3   OH252589   4.034   0.221   0.683 -0.1336 -0.3970  0.7880
 9465TIP3    H152590   3.961   0.282   0.672  0.1448  0.0745  1.4997
 9465TIP3    H252591   4.036   0.202   0.777  1.1406  0.1915  0.8996
 9466TIP3   OH252592   0.313   3.925   1.489 -0.3964 -0.3441  0.2984
 9466TIP3    H152593   0.328   3.981   1.566 -1.2713  0.3209  0.0042
 9466TIP3    H252594   0.218   3.928   1.476 -0.3947 -1.4953 -0.0395
 9467TIP3   OH252595   1.212   2.079   0.344 -0.2970 -0.4088 -0.3913
 9467TIP3    H152596   1.220   2.072   0.249 -0.7323 -0.8664 -0.4033
 9467TIP3    H252597   1.132   2.030   0.364 -1.2567  1.2581  0.0136
 9468TIP3   OH252598   3.600   2.382   1.473  1.1363  0.3377 -0.0415
 9468TIP3    H152599   3.543   2.450   1.508  1.4210  0.5960 -0.0707
 9468TIP3    H252600   3.604   2.400   1.379 -0.5592 -1.0412 -0.4329
 9469TIP3   OH252601   1.613   3.197   6.668 -0.4005  0.2139 -0.2245
 9469TIP3    H152602   1.706   3.203   6.691 -0.8258  0.5751  1.4950
 9469TIP3    H252603   1.581   3.287   6.675 -1.4000 -0.2452  1.6152
 9470TIP3   OH252604   0.584   3.508   7.805  0.1605 -0.2313  0.6585
 9470TIP3    H152605   0.626   3.430   7.840  0.5952  0.3945  1.5848
 9470TIP3    H252606   0.498   3.510   7.847 -0.1049 -0.5602  0.1322
 9471TIP3   OH252607   5.112   4.983   9.272 -0.4006 -0.1270 -0.5134
 9471TIP3    H152608   5.035   4.960   9.220  0.1608  0.9644 -1.9030
 9471TIP3    H252609   5.098   5.075   9.296 -0.2849 -0.3940  0.6380
 9472TIP3   OH252610   1.585   6.981   9.729 -0.0855 -0.1052  0.2378
 9472TIP3    H152611   1.648   7.038   9.685  1.2975 -1.1965  0.7390
 9472TIP3    H252612   1.605   6.990   9.822  0.6860 -1.9560  0.2963
 9473TIP3   OH252613   2.771   2.409   6.844 -0.0193 -0.0030  0.2936
 9473TIP3    H152614   2.679   2.402   6.869 -0.5349 -0.5937 -1.6078
 9473TIP3    H252615   2.776   2.492   6.796  0.4387 -0.0238  0.2991
 9474TIP3   OH252616   4.324   2.306   1.428  0.0654 -0.2971  0.4443
 9474TIP3    H152617   4.282   2.223   1.409 -0.7451 -0.2856  2.0355
 9474TIP3    H252618   4.415   2.284   1.444  0.7759 -0.3435 -2.8746
 9475TIP3   OH252619   2.720   1.170   2.187  0.5173 -0.2524 -0.0459
 9475TIP3    H152620   2.811   1.164   2.215 -0.6208 -0.6941  4.2370
 9475TIP3    H252621   2.701   1.263   2.185  1.1419 -0.1377 -1.4397
 9476TIP3   OH252622   4.883   0.926   2.233  0.2480 -0.2385 -0.8075
 9476TIP3    H152623   4.976   0.941   2.250  0.8629 -1.4944 -2.7882
 9476TIP3    H252624   4.859   0.857   2.294  1.4862 -2.1688 -2.3901
 9477TIP3   OH252625   5.132   0.391   0.484  0.0816  0.3037  0.2294
 9477TIP3    H152626   5.132   0.433   0.570 -1.4242 -0.8387  0.8267
 9477TIP3    H252627   5.213   0.339   0.482 -0.3163 -0.3883  1.3442
 9478TIP3   OH252628   1.391   4.619   9.172  0.3074  0.2717  0.8727
 9478TIP3    H152629   1.321   4.576   9.123 -0.5293 -0.8389  2.8976
 9478TIP3    H252630   1.465   4.622   9.111 -0.2122 -2.3563 -0.0167
 9479TIP3   OH252631   1.628   7.017   2.188 -0.0879 -0.2603 -0.3788
 9479TIP3    H152632   1.603   6.977   2.105 -0.2539 -1.0079  0.0280
 9479TIP3    H252633   1.691   6.956   2.227 -2.4635 -1.6498  1.5758
 9480TIP3   OH252634   5.992   7.109   9.519 -0.0076  0.0483  0.0822
 9480TIP3    H152635   6.076   7.101   9.473  0.7374 -0.9382  1.5425
 9480TIP3    H252636   5.933   7.051   9.471  0.5876 -0.4779 -0.0260
 9481TIP3   OH252637   4.048   3.310   8.557  0.0058 -0.4916 -0.1352
 9481TIP3    H152638   4.069   3.400   8.533 -1.4033 -0.2174 -0.4088
 9481TIP3    H252639   3.954   3.302   8.541 -0.2642 -1.4507  1.6764
 9482TIP3   OH252640   1.569   5.649   1.007 -0.4357 -0.0616 -0.2752
 9482TIP3    H152641   1.514   5.572   1.021  0.9008 -1.0849 -0.4299
 9482TIP3    H252642   1.622   5.626   0.930  0.1433  0.9130 -0.1813
 9483TIP3   OH252643   3.999   1.369   8.925 -0.1825 -0.1392  0.5738
 9483TIP3    H152644   3.976   1.281   8.895 -1.8323  0.6403 -0.5760
 9483TIP3    H252645   3.926   1.424   8.898  0.2926  1.4239  2.2446
 9484TIP3   OH252646   6.154   2.842   1.180 -0.1745  0.1613  0.9978
 9484TIP3    H152647   6.146   2.756   1.221  0.6895 -0.5984 -0.3289
 9484TIP3    H252648   6.146   2.824   1.086  1.0709  1.3624  0.6295
 9485TIP3   OH252649   1.625   3.497   1.986 -0.5153  0.1811 -0.6559
 9485TIP3    H152650   1.713   3.488   2.023 -0.4497  1.7133 -0.3758
 9485TIP3    H252651   1.586   3.410   1.994  0.8104 -0.4100 -0.3733
 9486TIP3   OH252652   4.993   6.842   7.953  0.1987 -0.0772 -0.5808
 9486TIP3    H152653   4.943   6.852   8.034 -2.2583 -1.3158 -1.8289
 9486TIP3    H252654   5.048   6.765   7.967 -1.9769 -1.7687 -0.8219
 9487TIP3   OH252655   3.376   5.268   3.069  0.4466 -0.0750  0.3755
 9487TIP3    H152656   3.407   5.351   3.105 -1.2325  0.3683  0.8849
 9487TIP3    H252657   3.357   5.288   2.977 -0.5036  0.2783  0.6387
 9488TIP3   OH252658   3.344   6.697   9.229 -0.8435 -0.1095 -0.5775
 9488TIP3    H152659   3.262   6.664   9.192  0.6314 -1.3649 -3.0312
 9488TIP3    H252660   3.376   6.759   9.163  0.1991  0.3222  0.3136
 9489TIP3   OH252661   7.191   2.621   1.142 -0.1924 -0.5676  0.5871
 9489TIP3    H152662   7.240   2.668   1.209 -0.9074 -0.3338  0.9619
 9489TIP3    H252663   7.246   2.547   1.119  1.4198  0.9585 -0.7243
 9490TIP3   OH252664   3.187   7.049   9.101  0.5616  0.3013  0.4092
 9490TIP3    H152665   3.198   6.978   9.164 -0.6754  0.2446  0.5889
 9490TIP3    H252666   3.170   7.127   9.154 -2.7491 -0.1547  0.1951
 9491TIP3   OH252667   3.219   5.430   7.689  0.0636  0.2236  0.1396
 9491TIP3    H152668   3.186   5.343   7.665 -1.1553  0.2903  1.3812
 9491TIP3    H252669   3.190   5.487   7.619 -0.2828 -0.1595 -0.0350
 9492TIP3   OH252670   3.392   5.050   2.497  0.3304  0.4102 -0.0484
 9492TIP3    H152671   3.450   5.097   2.436  0.5860  1.4353  0.9452
 9492TIP3    H252672   3.338   4.995   2.440  1.8422 -0.1156 -1.0646
 9493TIP3   OH252673   4.732   3.880   8.567 -0.5486 -0.5318  0.7468
 9493TIP3    H152674   4.794   3.949   8.544  1.4358 -1.9167  1.6815
 9493TIP3    H252675   4.679   3.868   8.488  0.0852  0.9566  0.0521
 9494TIP3   OH252676   6.925   0.832   1.311 -0.1512  0.2093 -0.0252
 9494TIP3    H152677   6.892   0.749   1.275  0.9283 -0.9586  1.5276
 9494TIP3    H252678   6.943   0.812   1.403  2.0752  1.5887 -0.1030
 9495TIP3   OH252679   2.493   0.859   2.431  0.0723  0.1768  0.2929
 9495TIP3    H152680   2.486   0.954   2.432  0.6774  0.2187  0.8775
 9495TIP3    H252681   2.426   0.831   2.368  0.2417  1.0165 -0.2785
 9496TIP3   OH252682   2.234   7.240   9.854  0.3025  0.2027  0.5000
 9496TIP3    H152683   2.306   7.303   9.861  0.4431 -0.0742  2.0140
 9496TIP3    H252684   2.232   7.197   9.940 -0.2165 -1.3981 -0.2860
 9497TIP3   OH252685   7.040   4.441   1.743 -0.3256 -0.3337 -0.5153
 9497TIP3    H152686   7.004   4.354   1.722 -0.6362 -0.9075  1.9764
 9497TIP3    H252687   7.094   4.425   1.821 -0.1814  1.6739 -0.1699
 9498TIP3   OH252688   4.682   7.002   8.447  0.3252  0.0774 -0.0094
 9498TIP3    H152689   4.640   6.974   8.528  0.8073 -1.6110 -0.3087
 9498TIP3    H252690   4.613   6.993   8.380  0.7924 -1.5144 -0.2947
 9499TIP3   OH252691   2.127   5.838   1.079  0.2892 -0.2653 -0.6236
 9499TIP3    H152692   2.210   5.824   1.124  0.5015  1.4940 -0.4188
 9499TIP3    H252693   2.107   5.930   1.094 -1.6357 -0.6237 -0.7904
 9500TIP3   OH252694   7.188   3.174   0.033  0.1792 -0.2685 -0.6039
 9500TIP3    H152695   7.199   3.084   0.064  0.0036 -0.6713 -1.6491
 9500TIP3    H252696   7.255   3.224   0.080 -1.2905 -0.4406  1.8411
 9501TIP3   OH252697   3.177   3.087   1.362  0.0433  0.4205  0.9851
 9501TIP3    H152698   3.137   3.098   1.276  0.4242  0.7319  0.8436
 9501TIP3    H252699   3.104   3.085   1.424 -0.2343  0.1420  0.6485
 9502TIP3   OH252700   2.732   6.740   2.373  0.7574  0.0088 -0.4180
 9502TIP3    H152701   2.659   6.789   2.410 -0.9101 -2.1132 -0.6996
 9502TIP3    H252702   2.787   6.719   2.448  0.6255  0.9066 -0.0653
 9503TIP3   OH252703   3.568   1.637   1.369  0.0022  0.0126  0.2858
 9503TIP3    H152704   3.598   1.580   1.297  0.6635  0.7870 -0.0721
 9503TIP3    H252705   3.527   1.577   1.431  1.5612 -0.9986  0.3954
 9504TIP3   OH252706   7.200   6.449   9.572 -0.1718  0.2795  0.0039
 9504TIP3    H152707   7.231   6.394   9.644  1.5003  0.1486 -0.7662
 9504TIP3    H252708   7.238   6.535   9.588  0.7794  0.0772 -1.0571
 9505TIP3   OH252709   6.567   2.408   0.661  0.0087 -0.0277  0.1862
 9505TIP3    H152710   6.572   2.503   0.656  1.2303 -0.1359 -2.1031
 9505TIP3    H252711   6.653   2.378   0.632 -0.5770 -1.8347  0.1650
 9506TIP3   OH252712   4.061   3.216   1.526 -0.4890 -0.1171 -0.2825
 9506TIP3    H152713   3.986   3.189   1.474 -0.0322 -3.0347  0.3967
 9506TIP3    H252714   4.133   3.221   1.463 -0.9644  1.6894 -0.7546
 9507TIP3   OH252715   2.003   1.144   2.124 -0.2369  0.4580 -0.2000
 9507TIP3    H152716   2.031   1.235   2.136 -0.4294  0.6511 -1.1696
 9507TIP3    H252717   2.010   1.129   2.030 -0.6046 -0.4061 -0.0932
 9508TIP3   OH252718   0.272   3.584   8.439 -0.2317  0.0025 -0.4236
 9508TIP3    H152719   0.228   3.662   8.406 -0.7321  0.3762  1.0401
 9508TIP3    H252720   0.221   3.557   8.515  1.7502  0.1860  1.0761
 9509TIP3   OH252721   4.408   1.888   7.890 -0.2138  0.1335  0.3210
 9509TIP3    H152722   4.391   1.936   7.809 -0.7249 -0.0244  0.3276
 9509TIP3    H252723   4.493   1.920   7.920  1.1278 -1.4918 -1.4901
 9510TIP3   OH252724   0.516   0.113   1.874  0.0887  0.0484  0.1975
 9510TIP3    H152725   0.516   0.205   1.898  0.8074  0.2041 -0.3668
 9510TIP3    H252726   0.595   0.077   1.915 -0.6989 -0.5521  1.2433
 9511TIP3   OH252727   5.755   7.269   7.989 -0.3553 -0.0929  0.0571
 9511TIP3    H152728   5.842   7.297   7.960 -0.2735 -0.5382 -0.1267
 9511TIP3    H252729   5.754   7.174   7.976 -0.0131 -0.4557  2.2995
 9512TIP3   OH252730   2.549   6.131   2.990  0.4841  0.6682  0.0197
 9512TIP3    H152731   2.485   6.072   3.029  1.4548 -1.2067 -1.1007
 9512TIP3    H252732   2.580   6.085   2.912 -0.0403  3.4451 -1.9919
 9513TIP3   OH252733   3.721   6.558   7.687  0.6070 -0.1901  0.4188
 9513TIP3    H152734   3.777   6.541   7.611  0.3263  1.2012 -0.1357
 9513TIP3    H252735   3.751   6.643   7.720 -0.4160  0.0387  0.8023
 9514TIP3   OH252736   0.991   0.832   8.465  0.2200  0.4070 -0.3613
 9514TIP3    H152737   0.992   0.829   8.369  0.8374  0.7842 -0.3707
 9514TIP3    H252738   1.084   0.834   8.490  0.0611  0.4171  0.2389
 9515TIP3   OH252739   6.655   0.929   9.516 -0.5536  0.0496 -0.4221
 9515TIP3    H152740   6.629   0.837   9.517 -2.3827  0.5247  0.7796
 9515TIP3    H252741   6.624   0.962   9.432 -0.3270 -0.3184 -0.6513
 9516TIP3   OH252742   0.737   2.467   1.335  0.1143  0.3114 -0.1562
 9516TIP3    H152743   0.738   2.385   1.286  0.6806  0.7572 -0.9281
 9516TIP3    H252744   0.709   2.443   1.423  2.3657 -1.0938  0.2757
 9517TIP3   OH252745   6.267   3.033   0.273 -0.9304  0.4309 -0.1215
 9517TIP3    H152746   6.329   3.052   0.202  0.2735 -0.4165  0.6447
 9517TIP3    H252747   6.215   3.112   0.282  0.5805  1.4997 -0.3066
 9518TIP3   OH252748   3.174   2.523   9.631 -0.7706 -0.2689  0.2231
 9518TIP3    H152749   3.259   2.484   9.612 -1.0575 -1.2655  0.8746
 9518TIP3    H252750   3.160   2.505   9.724 -1.9073 -0.5642  0.0067
 9519TIP3   OH252751   1.898   5.123   7.854  0.4343  0.5177 -0.5727
 9519TIP3    H152752   1.944   5.125   7.938  0.7660  1.2962 -0.7717
 9519TIP3    H252753   1.928   5.042   7.812 -1.2707 -0.9701  0.9050
 9520TIP3   OH252754   5.812   3.500   2.142  0.4996  0.0195 -0.2945
 9520TIP3    H152755   5.884   3.557   2.168  0.4492 -0.5891  1.2742
 9520TIP3    H252756   5.736   3.558   2.134  0.4742  0.2308  1.1781
 9521TIP3   OH252757   1.850   6.838   2.199  0.3257  0.7575 -0.2785
 9521TIP3    H152758   1.878   6.906   2.138  1.0809  0.1061 -0.6889
 9521TIP3    H252759   1.898   6.760   2.171 -1.6999 -0.3602 -0.8209
 9522TIP3   OH252760   2.960   1.967   6.734 -0.2821  0.6965 -0.1980
 9522TIP3    H152761   2.990   1.961   6.824  0.6875 -1.4345 -0.5963
 9522TIP3    H252762   3.027   2.019   6.689  1.6160 -1.8346 -0.5195
 9523TIP3   OH252763   0.996   0.027   1.944  0.1639 -0.1454  0.2645
 9523TIP3    H152764   1.072   0.030   2.002 -0.0892 -0.4393  0.6188
 9523TIP3    H252765   0.991   0.115   1.906 -0.8904  0.7339  2.2950
 9524TIP3   OH252766   2.384   7.104   8.438  0.6624  0.2306  0.1147
 9524TIP3    H152767   2.297   7.067   8.448  1.6234 -2.0039  1.1643
 9524TIP3    H252768   2.442   7.039   8.478  2.8062  1.6727 -0.4418
 9525TIP3   OH252769   3.570   3.385   0.944 -0.3954 -0.1951  0.5705
 9525TIP3    H152770   3.607   3.299   0.926  0.1850 -0.3045  2.0939
 9525TIP3    H252771   3.478   3.378   0.918  0.4252 -0.0921 -2.7611
 9526TIP3   OH252772   1.439   4.462   0.694 -0.6840 -0.5007 -0.0968
 9526TIP3    H152773   1.368   4.470   0.757  1.6597  2.6176  2.4888
 9526TIP3    H252774   1.442   4.546   0.650  1.5413 -0.3936  0.1331
 9527TIP3   OH252775   2.264   5.041   6.069 -0.3795  0.2643 -0.8133
 9527TIP3    H152776   2.170   5.058   6.080  0.1710  2.2626  1.9928
 9527TIP3    H252777   2.304   5.128   6.074  1.7953 -0.7316  1.2875
 9528TIP3   OH252778   0.544   4.751   8.682 -1.2799  0.3084  0.2233
 9528TIP3    H152779   0.569   4.819   8.744  0.9956  0.2307 -0.5171
 9528TIP3    H252780   0.475   4.792   8.628 -1.4033  1.2846  1.0950
 9529TIP3   OH252781   7.296   0.134   8.005 -0.1763 -0.3201 -0.0949
 9529TIP3    H152782   7.324   0.111   7.916 -1.2470  0.2918 -0.6113
 9529TIP3    H252783   7.201   0.127   8.002 -0.4333  2.2723  0.2627
 9530TIP3   OH252784   2.123   0.048   0.066 -0.0666  0.0284  0.5462
 9530TIP3    H152785   2.114   0.095   0.149  2.0399 -0.8608  1.3477
 9530TIP3    H252786   2.188   0.099   0.017  1.4797 -1.3776  1.0136
 9531TIP3   OH252787   1.299   1.167   8.181 -0.0201  0.4918 -0.3902
 9531TIP3    H152788   1.356   1.129   8.248  1.5677  0.3382 -1.7687
 9531TIP3    H252789   1.234   1.217   8.231  1.2146  0.5583  1.2430
 9532TIP3   OH252790   2.801   6.149   1.968  0.0964  0.0783 -0.6525
 9532TIP3    H152791   2.759   6.177   2.049  0.5785  0.7990 -0.6412
 9532TIP3    H252792   2.728   6.129   1.908 -0.2598  0.2899 -0.2929
 9533TIP3   OH252793   2.148   5.754   1.707 -0.0873  0.3042  0.4990
 9533TIP3    H152794   2.183   5.709   1.784 -0.7492 -0.7755  0.1904
 9533TIP3    H252795   2.123   5.841   1.740  0.1102  0.0359  1.3857
 9534TIP3   OH252796   1.543   0.232   9.237 -0.2518  0.0103 -0.0681
 9534TIP3    H152797   1.477   0.301   9.246 -0.4155 -0.2761  1.0938
 9534TIP3    H252798   1.571   0.213   9.326  0.0168 -1.2097 -0.3880
 9535TIP3   OH252799   1.767   6.418   2.589  0.1587  0.1041  0.5368
 9535TIP3    H152800   1.859   6.391   2.590  0.2617  0.4667  0.9169
 9535TIP3    H252801   1.721   6.342   2.551  0.5938 -0.1271  0.4584
 9536TIP3   OH252802   4.644   3.795   1.861  0.2599 -0.7125 -0.1898
 9536TIP3    H152803   4.597   3.761   1.937 -1.3305  0.6783 -0.4923
 9536TIP3    H252804   4.640   3.724   1.797 -1.4785 -0.6480 -0.2006
 9537TIP3   OH252805   6.774   4.809   0.807  0.3980 -0.4723  0.3472
 9537TIP3    H152806   6.840   4.744   0.787 -0.7479 -1.1690 -1.3608
 9537TIP3    H252807   6.691   4.760   0.810 -0.2212  0.5643  1.2377
 9538TIP3   OH252808   1.915   5.493   2.406  0.8939 -0.8447 -0.2633
 9538TIP3    H152809   1.979   5.422   2.414 -0.7366 -2.5691 -1.5894
 9538TIP3    H252810   1.834   5.449   2.378  0.0480  1.6420 -2.0348
 9539TIP3   OH252811   3.733   5.127   9.296  0.0119 -0.1344 -0.7255
 9539TIP3    H152812   3.751   5.158   9.385  0.1166  0.1412 -0.8413
 9539TIP3    H252813   3.651   5.170   9.273  0.2545  0.2014 -0.9577
 9540TIP3   OH252814   1.761   7.055   7.663 -0.1333  0.1939  0.0465
 9540TIP3    H152815   1.719   7.019   7.585 -0.3956 -0.2430  0.3849
 9540TIP3    H252816   1.854   7.034   7.652 -0.3969 -1.5257  0.7102
 9541TIP3   OH252817   6.913   1.248   2.326 -0.0684 -0.4269  0.2775
 9541TIP3    H152818   6.836   1.257   2.383 -0.0947 -0.3051  0.2236
 9541TIP3    H252819   6.986   1.280   2.379  0.0977 -1.4187  0.6640
 9542TIP3   OH252820   4.733   5.189   0.146 -0.2849 -0.1427  0.1477
 9542TIP3    H152821   4.766   5.099   0.147  0.6195  0.1789  0.1482
 9542TIP3    H252822   4.643   5.182   0.178  0.1765 -0.8901  1.3471
 9543TIP3   OH252823   5.958   4.667   1.087 -0.6396 -0.2596  0.4014
 9543TIP3    H152824   6.014   4.589   1.092 -1.9420 -1.1917  1.1425
 9543TIP3    H252825   5.910   4.657   1.005 -2.0128 -1.1372  1.2694
 9544TIP3   OH252826   5.984   4.341   1.263 -0.0068  0.1245  0.3799
 9544TIP3    H152827   6.008   4.416   1.318  1.2121 -0.3559  0.5301
 9544TIP3    H252828   5.898   4.315   1.297 -0.4379  1.4079  0.3537
 9545TIP3   OH252829   4.470   3.782   9.408  0.4450  0.4028 -0.2563
 9545TIP3    H152830   4.479   3.863   9.358  0.4145  0.1571 -0.6626
 9545TIP3    H252831   4.536   3.790   9.477 -0.0499  1.0924  0.1503
 9546TIP3   OH252832   5.974   3.491   1.719 -0.4971  0.2321 -0.1193
 9546TIP3    H152833   6.018   3.573   1.744 -0.8629  0.9121 -1.5651
 9546TIP3    H252834   5.971   3.440   1.799 -0.4603  1.7362  0.8824
 9547TIP3   OH252835   3.674   0.534   8.161 -0.0150  0.4227  0.0069
 9547TIP3    H152836   3.603   0.509   8.220  0.2044  0.1247  0.1473
 9547TIP3    H252837   3.712   0.451   8.132  1.9728  0.5500  1.9962
 9548TIP3   OH252838   4.396   6.585   2.714 -0.3834 -0.2054  0.7717
 9548TIP3    H152839   4.491   6.578   2.727 -0.4232 -0.2552  1.0295
 9548TIP3    H252840   4.365   6.641   2.785 -0.5013  0.0984  0.4846
 9549TIP3   OH252841   3.887   4.529   7.397 -0.8788 -0.1766  0.3243
 9549TIP3    H152842   3.928   4.588   7.333 -1.0890 -1.1413 -0.7390
 9549TIP3    H252843   3.823   4.583   7.442 -1.1769  0.3778 -0.7393
 9550TIP3   OH252844   1.357   1.608   7.623  0.5759  0.0473 -0.1465
 9550TIP3    H152845   1.358   1.531   7.566 -1.2505 -1.1929  1.3323
 9550TIP3    H252846   1.276   1.598   7.674  0.8485  2.4073  0.8567
 9551TIP3   OH252847   5.371   7.392   2.211  0.2538 -0.4234  0.5229
 9551TIP3    H152848   5.299   7.331   2.227 -1.8744  1.8004 -0.0287
 9551TIP3    H252849   5.386   7.434   2.296  1.2868 -1.2350  0.7574
 9552TIP3   OH252850   2.879   2.714   9.934  0.0309 -0.0903 -0.8336
 9552TIP3    H152851   2.789   2.702   9.967  0.0188  0.0848 -0.8004
 9552TIP3    H252852   2.925   2.755  10.007 -0.5948  2.5671 -1.8134
 9553TIP3   OH252853   4.884   5.663   7.560 -0.2044 -0.2735  0.3931
 9553TIP3    H152854   4.846   5.581   7.528  1.6260 -1.7994  1.9457
 9553TIP3    H252855   4.949   5.686   7.494 -2.0168  1.0767 -1.0489
 9554TIP3   OH252856   5.417   3.310   2.022  0.0130 -0.4246 -0.5553
 9554TIP3    H152857   5.395   3.398   2.052  2.6689  0.1695 -0.0173
 9554TIP3    H252858   5.385   3.252   2.090 -1.4530  0.1352 -0.7431
 9555TIP3   OH252859   0.490   5.239   1.032  0.1037 -0.4887 -0.1092
 9555TIP3    H152860   0.401   5.244   0.996  0.0983  1.1061  0.0653
 9555TIP3    H252861   0.478   5.231   1.126  0.1562 -1.7439 -0.1873
 9556TIP3   OH252862   5.531   5.839   2.023  0.2978  0.1740 -0.1816
 9556TIP3    H152863   5.575   5.867   2.104 -0.5134  0.9133  0.0251
 9556TIP3    H252864   5.596   5.855   1.954  1.5817 -1.9002  0.4439
 9557TIP3   OH252865   1.420   4.098   6.394  0.4680 -0.0000 -0.9738
 9557TIP3    H152866   1.506   4.099   6.437 -0.1317 -0.4522  0.2473
 9557TIP3    H252867   1.410   4.187   6.360  1.2364  0.1728 -0.7758
 9558TIP3   OH252868   5.288   0.894   8.596 -0.0314  0.5364 -0.3433
 9558TIP3    H152869   5.377   0.923   8.575  0.1461 -0.6395 -1.3262
 9558TIP3    H252870   5.299   0.803   8.626 -0.7855  0.7613  0.6632
 9559TIP3   OH252871   6.564   2.700   8.501  0.7583  0.1072 -0.1111
 9559TIP3    H152872   6.521   2.623   8.538 -1.5106  0.8465 -1.0149
 9559TIP3    H252873   6.600   2.747   8.577  0.6753 -0.9619  0.6041
 9560TIP3   OH252874   3.243   6.171   8.338 -0.3351  0.0186 -0.0189
 9560TIP3    H152875   3.206   6.186   8.425  0.2075  0.1493  0.1898
 9560TIP3    H252876   3.289   6.088   8.346  0.6819  0.5863  0.1389
 9561TIP3   OH252877   2.445   6.617   8.068 -0.0907 -0.1035  0.1976
 9561TIP3    H152878   2.499   6.692   8.090  2.2543 -1.5052 -0.3908
 9561TIP3    H252879   2.423   6.629   7.975 -0.9849  0.5382  0.4745
 9562TIP3   OH252880   2.470   3.053   9.491  0.1467 -0.0241  0.1382
 9562TIP3    H152881   2.547   3.110   9.481  0.7631 -0.4533  1.9551
 9562TIP3    H252882   2.463   3.008   9.407  1.3327  0.6794 -0.3757
 9563TIP3   OH252883   6.272   5.798   2.075  0.3693  0.6143  0.3595
 9563TIP3    H152884   6.275   5.704   2.059 -1.2993 -0.0481  3.2302
 9563TIP3    H252885   6.348   5.833   2.029  1.0619 -2.1154 -0.7462
 9564TIP3   OH252886   4.939   1.559   0.557 -0.0673  0.0200  0.1476
 9564TIP3    H152887   4.946   1.513   0.641  0.1178  0.3645  0.3202
 9564TIP3    H252888   4.996   1.636   0.566 -0.8263  0.6014  0.0726
 9565TIP3   OH252889   4.187   4.918   0.242 -0.5609 -0.1017 -0.8059
 9565TIP3    H152890   4.148   4.830   0.244  0.2178 -0.5205 -2.2019
 9565TIP3    H252891   4.195   4.938   0.148  2.4007 -0.0155 -0.6487
 9566TIP3   OH252892   2.308   0.239   9.286  0.1205  0.6590 -0.1934
 9566TIP3    H152893   2.240   0.306   9.291 -1.6023 -0.7976 -2.4747
 9566TIP3    H252894   2.359   0.262   9.208 -0.0554 -0.3042 -0.5953
 9567TIP3   OH252895   1.429   3.959   8.043 -0.1456  0.3204 -0.6311
 9567TIP3    H152896   1.443   3.965   7.948 -0.9766 -0.3970 -0.8163
 9567TIP3    H252897   1.464   3.874   8.067  0.7472  0.8074 -0.1432
 9568TIP3   OH252898   2.883   6.947   7.886  0.7942  0.0067  0.2501
 9568TIP3    H152899   2.939   6.919   7.959 -0.2383 -0.8564  0.7417
 9568TIP3    H252900   2.863   7.039   7.906 -2.2915 -1.0713  3.0471
 9569TIP3   OH252901   3.075   1.659   9.441 -0.5761 -0.1772  0.4736
 9569TIP3    H152902   3.030   1.606   9.375 -0.6288  0.7117 -0.2293
 9569TIP3    H252903   3.144   1.601   9.474 -1.1941 -0.9905  0.3854
 9570TIP3   OH252904   6.120   6.212   1.052  0.5040  0.0254 -0.0290
 9570TIP3    H152905   6.059   6.249   0.988  1.6311  0.0374 -1.1284
 9570TIP3    H252906   6.135   6.123   1.022 -0.2027 -0.5136  1.1608
 9571TIP3   OH252907   0.290   2.040   8.286  0.1719  0.5369  0.8743
 9571TIP3    H152908   0.369   1.990   8.263 -0.9203 -0.3901 -1.1236
 9571TIP3    H252909   0.305   2.127   8.248 -0.9949 -0.5574 -2.4105
 9572TIP3   OH252910   3.557   4.337   1.017 -0.1060  0.1004 -0.3184
 9572TIP3    H152911   3.525   4.427   1.013  3.6954  1.6488 -0.3715
 9572TIP3    H252912   3.599   4.323   0.933  1.4767 -0.7810  0.5803
 9573TIP3   OH252913   7.066   5.624   0.424 -0.3024  0.3164  0.5420
 9573TIP3    H152914   7.078   5.592   0.514  0.8742  2.4931  1.2345
 9573TIP3    H252915   7.139   5.585   0.375 -1.8034 -2.1093  0.0957
 9574TIP3   OH252916   3.813   5.086   8.603 -0.4811 -0.2556 -0.1721
 9574TIP3    H152917   3.898   5.068   8.644  0.6727  0.9144 -1.9116
 9574TIP3    H252918   3.810   5.026   8.528 -0.9525  0.0920 -0.4358
 9575TIP3   OH252919   0.458   1.931   8.040  0.2378  0.2090  0.2094
 9575TIP3    H152920   0.457   1.892   7.952  2.4924  0.8434 -0.1657
 9575TIP3    H252921   0.551   1.936   8.062 -0.1797  2.0167  1.7513
 9576TIP3   OH252922   7.273   7.038   9.009 -0.7818 -0.0855 -0.0077
 9576TIP3    H152923   7.342   6.998   8.955 -1.6503  1.0315 -2.0529
 9576TIP3    H252924   7.239   6.966   9.062  2.6613 -0.4898  1.9885
 9577TIP3   OH252925   4.760   7.438   9.682 -0.5013  0.1666 -0.2849
 9577TIP3    H152926   4.834   7.452   9.623 -1.3854 -0.1036 -1.5168
 9577TIP3    H252927   4.771   7.348   9.714 -0.2599  0.1502 -0.4167
 9578TIP3   OH252928   4.424   2.632   8.857 -0.4307  0.5066  0.1133
 9578TIP3    H152929   4.464   2.668   8.778  0.0377  0.5614  0.3732
 9578TIP3    H252930   4.334   2.611   8.831  0.1129 -0.8117 -0.8512
 9579TIP3   OH252931   7.018   4.672   9.848  0.7365 -0.4018  0.1610
 9579TIP3    H152932   6.944   4.629   9.890  0.7514  0.8247  1.5253
 9579TIP3    H252933   7.017   4.640   9.758 -1.9620  0.1957 -0.1054
 9580TIP3   OH252934   3.131   2.257   9.091  0.3338 -0.4675 -0.3939
 9580TIP3    H152935   3.158   2.343   9.058  1.0202 -0.8038 -0.7449
 9580TIP3    H252936   3.090   2.275   9.175 -1.8040  0.4565 -1.5600
 9581TIP3   OH252937   6.349   4.055   9.472  0.8045 -0.1568 -0.2885
 9581TIP3    H152938   6.331   4.056   9.566 -0.4382  0.7844 -0.5154
 9581TIP3    H252939   6.292   3.987   9.437 -1.5301  1.8863 -0.8075
 9582TIP3   OH252940   3.202   5.905   1.245  0.5048 -0.7349 -0.1212
 9582TIP3    H152941   3.140   5.873   1.179  0.7660 -0.4303 -0.5193
 9582TIP3    H252942   3.272   5.946   1.194 -0.1998  1.2094  0.3628
 9583TIP3   OH252943   2.323   0.868   1.727 -0.2422  0.1733  0.2410
 9583TIP3    H152944   2.408   0.826   1.717 -0.3894  0.1157 -0.9069
 9583TIP3    H252945   2.323   0.902   1.817  0.9725  0.1424  0.2655
 9584TIP3   OH252946   1.874   5.641   8.378  0.2643  0.1677  0.3301
 9584TIP3    H152947   1.788   5.660   8.414 -0.6079 -1.4332 -0.8116
 9584TIP3    H252948   1.857   5.606   8.291  2.1536  1.1481 -0.5145
 9585TIP3   OH252949   4.060   7.312   0.514 -0.1641  0.8301 -0.1801
 9585TIP3    H152950   4.090   7.357   0.435  1.4384  1.1600  0.5759
 9585TIP3    H252951   4.018   7.380   0.566  0.4462  1.0131  0.0724
 9586TIP3   OH252952   6.892   5.228   9.573 -0.4438 -1.0104 -0.2793
 9586TIP3    H152953   6.853   5.195   9.654 -0.6933 -0.0033  0.0270
 9586TIP3    H252954   6.865   5.320   9.569  3.6203  0.4662  1.0811
 9587TIP3   OH252955   6.650   4.931   2.449 -0.0194  0.4750 -0.2077
 9587TIP3    H152956   6.678   4.871   2.380 -0.5408 -0.0485  0.0216
 9587TIP3    H252957   6.574   4.887   2.489 -0.4858  1.3498 -0.1173
 9588TIP3   OH252958   4.161   2.375   9.317  0.5955 -0.2543 -0.0313
 9588TIP3    H152959   4.218   2.382   9.394  1.9801 -1.3186 -0.9023
 9588TIP3    H252960   4.216   2.401   9.244 -0.4267 -0.1288 -0.7769
 9589TIP3   OH252961   1.680   6.992   8.918 -0.4161 -0.2928 -0.6522
 9589TIP3    H152962   1.670   7.046   8.840 -0.9048 -1.9647 -1.7996
 9589TIP3    H252963   1.601   6.938   8.921 -0.3580 -0.3304  0.9527
 9590TIP3   OH252964   1.665   0.655   9.090 -0.3628 -0.4689 -0.2023
 9590TIP3    H152965   1.714   0.617   9.163  1.5383  0.4559 -0.9604
 9590TIP3    H252966   1.690   0.603   9.014 -0.5344  0.0390 -0.6144
 9591TIP3   OH252967   1.941   5.782   2.445 -0.4233 -0.3021  0.1956
 9591TIP3    H152968   1.880   5.714   2.414  0.1503 -0.0938 -1.4818
 9591TIP3    H252969   1.919   5.860   2.393 -0.3110  0.4707  1.2857
 9592TIP3   OH252970   3.539   5.238   7.455  0.1309  0.0162 -0.0950
 9592TIP3    H152971   3.605   5.207   7.517  0.7622  0.7206 -0.3948
 9592TIP3    H252972   3.460   5.187   7.476  0.7212 -0.7339  0.3696
 9593TIP3   OH252973   2.340   7.185   7.458  0.0896 -0.2644 -0.2371
 9593TIP3    H152974   2.305   7.218   7.541 -1.1948 -0.8354 -0.5361
 9593TIP3    H252975   2.264   7.178   7.401  1.0206  0.6108 -1.6553
 9594TIP3   OH252976   2.253   1.175   1.960  0.3412 -0.3346 -0.6055
 9594TIP3    H152977   2.332   1.199   1.910  1.7611 -0.9086  1.2652
 9594TIP3    H252978   2.194   1.250   1.948  1.5743  0.5729 -1.2177
 9595TIP3   OH252979   3.068   3.900   0.197  0.0233  0.3273  0.2269
 9595TIP3    H152980   3.021   3.868   0.274  0.4141 -0.8937 -0.0130
 9595TIP3    H252981   3.012   3.877   0.123  0.9255 -1.0882 -0.0547
 9596TIP3   OH252982   6.876   4.406   9.235 -0.2604 -0.5009  0.5557
 9596TIP3    H152983   6.934   4.341   9.197  0.3807 -0.9851  2.2966
 9596TIP3    H252984   6.806   4.416   9.170  1.1285 -0.7569 -1.0524
 9597TIP3   OH252985   2.804   7.296   0.508 -0.1343 -0.5967  0.1248
 9597TIP3    H152986   2.892   7.335   0.508  0.0293 -0.9351  1.1223
 9597TIP3    H252987   2.746   7.368   0.484  0.3474 -0.1851  0.1759
 9598TIP3   OH252988   2.956   5.593   7.849 -0.4732  0.4106  0.7238
 9598TIP3    H152989   3.025   5.542   7.892  0.6279  2.1968  1.1954
 9598TIP3    H252990   2.976   5.684   7.872 -0.7005  1.3447 -2.3967
 9599TIP3   OH252991   2.083   7.370   9.674  0.4492 -0.2627 -0.0725
 9599TIP3    H152992   2.118   7.310   9.739  0.9240 -0.0869 -0.1584
 9599TIP3    H252993   2.035   7.435   9.725 -1.0334 -1.3338 -0.0564
 9600TIP3   OH252994   4.679   0.360   1.885  0.6453  0.1976  0.0731
 9600TIP3    H152995   4.639   0.322   1.964  0.3424  0.0653 -0.1439
 9600TIP3    H252996   4.726   0.287   1.845 -2.3983 -0.8394 -1.9999
 9601TIP3   OH252997   3.829   0.194   0.058 -1.0448 -0.0331  0.2869
 9601TIP3    H152998   3.896   0.233   0.002  0.1622 -1.6525  0.5419
 9601TIP3    H252999   3.758   0.258   0.059  0.1588  1.3627 -0.6496
 9602TIP3   OH253000   5.582   7.425   1.516  0.2574  0.2577  0.1133
 9602TIP3    H153001   5.541   7.350   1.472 -2.1693  1.5073  0.0424
 9602TIP3    H253002   5.658   7.388   1.561 -1.1971 -2.3934  0.6132
 9603TIP3   OH253003   3.409   5.746   1.873  0.0157 -0.1343  0.2554
 9603TIP3    H153004   3.464   5.668   1.880  0.1750 -0.0470 -0.0107
 9603TIP3    H253005   3.340   5.732   1.938 -0.1604 -0.6652 -0.0312
 9604TIP3   OH253006   5.127   3.042   9.464 -0.1168 -0.3998  0.3043
 9604TIP3    H153007   5.163   3.111   9.520  0.6096 -0.5443  0.0350
 9604TIP3    H253008   5.145   2.961   9.511  0.3049 -0.5045 -0.0248
 9605TIP3   OH253009   4.719   2.635   2.383  0.2645 -0.3364 -0.3066
 9605TIP3    H153010   4.799   2.644   2.434  0.1768  1.9183 -0.4848
 9605TIP3    H253011   4.653   2.685   2.432 -0.3510  0.0757 -1.5210
 9606TIP3   OH253012   2.727   5.111   0.177  0.0823 -0.2148 -0.0570
 9606TIP3    H153013   2.746   5.144   0.264  0.7284  0.0926 -0.3109
 9606TIP3    H253014   2.796   5.048   0.158 -0.9767 -1.5377  0.3043
 9607TIP3   OH253015   7.188   6.698   1.595  0.3829  0.6122  0.0119
 9607TIP3    H153016   7.150   6.708   1.682 -1.0432  0.1010 -0.5378
 9607TIP3    H253017   7.280   6.723   1.607 -0.3198  2.9996  1.1336
 9608TIP3   OH253018   2.177   5.680   9.618  0.2823  0.4102 -0.2503
 9608TIP3    H153019   2.225   5.640   9.690  1.5425  0.6056 -0.9560
 9608TIP3    H253020   2.243   5.696   9.551 -0.9077 -0.1479 -1.6224
 9609TIP3   OH253021   4.178   1.787   0.881  0.2088 -0.2797 -0.5586
 9609TIP3    H153022   4.160   1.881   0.871  3.1099  0.2947 -1.5771
 9609TIP3    H253023   4.106   1.744   0.834 -0.8528  1.4473 -0.6199
 9610TIP3   OH253024   1.653   4.924   2.648  0.0803  0.0797  0.7249
 9610TIP3    H153025   1.572   4.910   2.698 -0.5184 -0.7182 -0.4278
 9610TIP3    H253026   1.720   4.875   2.695  0.5669  2.8194  3.2024
 9611TIP3   OH253027   1.343   3.249   0.380  0.0487  0.5419  0.0584
 9611TIP3    H153028   1.272   3.240   0.316  1.6957 -1.2355 -1.6554
 9611TIP3    H253029   1.403   3.313   0.342 -0.1497  1.3585  1.0683
 9612TIP3   OH253030   3.245   6.517   0.362 -0.3024  0.0601 -1.0175
 9612TIP3    H153031   3.309   6.583   0.385 -0.5136 -0.2488  0.5597
 9612TIP3    H253032   3.160   6.558   0.379 -0.4326 -1.2710  2.2049
 9613TIP3   OH253033   6.866   1.419   2.121  0.3440 -0.3051  0.5953
 9613TIP3    H153034   6.893   1.365   2.195  0.4052  0.4709  1.1535
 9613TIP3    H253035   6.820   1.359   2.063 -0.2992 -0.7919  1.5759
 9614TIP3   OH253036   4.285   7.336   0.004  0.6151 -0.1130  0.4569
 9614TIP3    H153037   4.374   7.303  -0.007  1.4293  2.2983 -0.8293
 9614TIP3    H253038   4.296   7.429   0.021 -1.6982  0.5210 -1.0774
 9615TIP3   OH253039   2.998   5.209   8.351 -0.3191 -0.0597  0.5884
 9615TIP3    H153040   2.966   5.260   8.425 -1.3815 -1.6922  1.3065
 9615TIP3    H253041   2.970   5.259   8.274 -2.5332 -0.1630  1.2459
 9616TIP3   OH253042   0.548   2.368   8.729  0.1474  0.3156 -0.1506
 9616TIP3    H153043   0.581   2.295   8.781 -2.3808 -0.1578  0.9300
 9616TIP3    H253044   0.621   2.430   8.727  0.7374 -0.0516  3.2140
 9617TIP3   OH253045   1.495   6.622   6.568  0.5402 -0.0818 -0.0160
 9617TIP3    H153046   1.418   6.569   6.549  0.2911 -1.3213  3.6301
 9617TIP3    H253047   1.569   6.564   6.550  0.3933 -0.6204  1.0862
 9618TIP3   OH253048   2.647   1.817   7.325  0.4815 -0.3040  0.1439
 9618TIP3    H153049   2.669   1.755   7.394 -0.1679  1.2819  1.8852
 9618TIP3    H253050   2.698   1.789   7.250  0.1367 -2.9609  0.8156
 9619TIP3   OH253051   0.241   0.931   8.532 -0.1533  0.2072 -0.1269
 9619TIP3    H153052   0.155   0.922   8.573 -0.3605 -1.9648 -0.9039
 9619TIP3    H253053   0.291   0.987   8.592 -1.6725  0.3759  1.0261
 9620TIP3   OH253054   7.151   4.003   8.988 -0.4649  0.1927  0.0303
 9620TIP3    H153055   7.133   4.001   9.082 -1.9262 -0.3226 -0.2217
 9620TIP3    H253056   7.135   3.913   8.958  1.6717 -0.0720 -0.4577
 9621TIP3   OH253057   7.330   6.544   7.943 -0.6156  0.0094 -0.7741
 9621TIP3    H153058   7.242   6.528   7.976 -0.9336  1.4139 -0.9124
 9621TIP3    H253059   7.345   6.473   7.880 -0.8671 -1.3886  0.6576
 9622TIP3   OH253060   6.480   6.175   8.916 -0.0386  0.6674 -0.2507
 9622TIP3    H153061   6.511   6.185   9.006 -1.0161  1.0606  0.0601
 9622TIP3    H253062   6.453   6.084   8.910  1.7176  0.1451 -0.7215
 9623TIP3   OH253063   0.774   0.177   7.292 -0.4532  0.2440  0.0785
 9623TIP3    H153064   0.773   0.124   7.212  1.1051  2.2239 -1.3563
 9623TIP3    H253065   0.730   0.258   7.267 -2.7712 -0.2508  2.2191
 9624TIP3   OH253066   7.147   7.117   2.289 -0.2300 -0.7767  0.3355
 9624TIP3    H153067   7.105   7.170   2.357  0.6575  0.3848  0.0287
 9624TIP3    H253068   7.168   7.035   2.333  0.5408  0.0320  1.5796
 9625TIP3   OH253069   1.831   4.911   8.854  0.7354  0.1356 -0.2741
 9625TIP3    H153070   1.775   4.851   8.806  0.8025 -0.0777 -0.0868
 9625TIP3    H253071   1.914   4.865   8.863  0.8899  0.3898 -0.4164
 9626TIP3   OH253072   4.826   5.177   7.934  0.1060 -0.6119  0.0347
 9626TIP3    H153073   4.807   5.085   7.949 -1.1572 -0.4049 -0.0995
 9626TIP3    H253074   4.762   5.204   7.868 -1.0050  0.8582  1.5975
 9627TIP3   OH253075   3.241   5.293   1.022 -0.5880  0.0764  0.0300
 9627TIP3    H153076   3.317   5.269   1.075 -0.5646 -1.3791 -0.5923
 9627TIP3    H253077   3.261   5.380   0.989  0.4898  0.0138  0.4668
 9628TIP3   OH253078   5.089   5.760   0.861 -0.2383  0.0662 -0.6623
 9628TIP3    H153079   5.145   5.697   0.816 -1.4936 -0.4628 -1.5128
 9628TIP3    H253080   5.133   5.844   0.847  1.6339 -0.5889  0.7704
 9629TIP3   OH253081   1.135   5.287   2.009  0.4350  0.2390  0.0637
 9629TIP3    H153082   1.130   5.342   1.930  2.0686 -1.8498 -1.6147
 9629TIP3    H253083   1.221   5.307   2.046  0.4936 -0.2324  0.1834
 9630TIP3   OH253084   1.451   0.582   1.736  0.4117 -0.0104 -0.4544
 9630TIP3    H153085   1.396   0.550   1.808  0.3211 -1.8987 -1.2917
 9630TIP3    H253086   1.446   0.677   1.743 -2.4905 -0.0808 -0.0915
 9631TIP3   OH253087   2.986   6.412   3.472  0.7650  0.7623  0.0338
 9631TIP3    H153088   3.041   6.460   3.411 -0.6409 -0.4105 -2.2858
 9631TIP3    H253089   2.943   6.345   3.419 -2.5167  1.2701  1.7731
 9632TIP3   OH253090   4.395   6.961   7.050 -0.7882  0.2290 -0.4139
 9632TIP3    H153091   4.431   6.995   6.968 -0.0934  0.2859 -0.0939
 9632TIP3    H253092   4.447   6.882   7.068 -1.6332 -0.3755 -0.5661
 9633TIP3   OH253093   5.846   5.607   0.178 -0.2441  0.5983 -0.0608
 9633TIP3    H153094   5.770   5.665   0.176  0.8011  2.0099 -0.8479
 9633TIP3    H253095   5.827   5.540   0.112 -1.1729  0.4158  0.3756
 9634TIP3   OH253096   0.179   3.568   2.648 -0.6861 -0.0493  0.2432
 9634TIP3    H153097   0.088   3.576   2.675 -1.2706 -0.8387 -1.3344
 9634TIP3    H253098   0.213   3.657   2.650 -2.1317  0.5967 -1.1456
 9635TIP3   OH253099   1.199   7.113   2.888  0.4312 -0.4057 -0.3520
 9635TIP3    H153100   1.233   7.024   2.882 -0.3711 -0.8209  0.8324
 9635TIP3    H253101   1.274   7.166   2.914  1.0303 -0.6307 -1.5620
 9636TIP3   OH253102   3.638   5.940   2.097  0.1426  0.2541 -0.2676
 9636TIP3    H153103   3.553   5.981   2.085  1.0398  1.7646 -1.7750
 9636TIP3    H253104   3.683   5.952   2.014  2.1709  0.3065  0.7694
 9637TIP3   OH253105   0.496   6.181   9.752 -0.2677  0.1990  0.4363
 9637TIP3    H153106   0.537   6.231   9.682 -0.4025 -1.2785 -0.7451
 9637TIP3    H253107   0.556   6.190   9.827 -0.2615  2.0200  0.2561
 9638TIP3   OH253108   1.757   4.918   6.364 -0.3244 -0.2503 -0.6779
 9638TIP3    H153109   1.847   4.886   6.365 -0.5305 -0.8850 -1.2683
 9638TIP3    H253110   1.753   4.977   6.288 -0.2342  0.3141 -0.2490
 9639TIP3   OH253111   2.926   5.853   6.395 -0.1196  0.3520 -0.4444
 9639TIP3    H153112   2.998   5.915   6.408 -1.1123  1.4698 -0.0127
 9639TIP3    H253113   2.847   5.908   6.394 -1.0859 -0.9410  0.3719
 9640TIP3   OH253114   4.253   7.192   8.546 -0.4693 -0.5565  0.0119
 9640TIP3    H153115   4.308   7.119   8.575  0.2935 -0.3585 -0.9168
 9640TIP3    H253116   4.218   7.163   8.462 -0.0786  0.1820 -0.4141
 9641TIP3   OH253117   1.379   6.175   8.108 -0.2759 -0.2633 -0.1112
 9641TIP3    H153118   1.284   6.183   8.103 -0.2752 -0.7039 -1.1890
 9641TIP3    H253119   1.396   6.124   8.187 -1.0683 -1.9946 -1.0135
 9642TIP3   OH253120   2.109   3.115   9.238  0.7611  0.7155  0.0734
 9642TIP3    H153121   2.196   3.155   9.238  1.1936 -0.1769  0.2752
 9642TIP3    H253122   2.082   3.117   9.330 -0.1807  2.5077 -0.2146
 9643TIP3   OH253123   5.629   7.057   1.035 -0.4706 -0.5700 -0.3024
 9643TIP3    H153124   5.715   7.065   1.076 -0.9646  0.8236  0.5451
 9643TIP3    H253125   5.627   7.128   0.970 -0.4704 -1.4896 -1.3454
 9644TIP3   OH253126   2.830   2.185   7.022 -0.1123 -0.0293  0.5300
 9644TIP3    H153127   2.811   2.263   6.970  0.0299 -0.0208  0.4916
 9644TIP3    H253128   2.925   2.177   7.020 -0.1698 -0.6661 -0.1433
 9645TIP3   OH253129   3.499   1.687   6.905 -0.2570 -0.1446  0.1197
 9645TIP3    H153130   3.503   1.609   6.961 -1.1782  0.0659  0.4943
 9645TIP3    H253131   3.514   1.654   6.817  3.0053 -0.2708  0.5882
 9646TIP3   OH253132   1.605   1.678   8.191  0.1646  0.0370 -0.6900
 9646TIP3    H153133   1.661   1.635   8.126  0.2011 -0.1705 -0.5228
 9646TIP3    H253134   1.664   1.698   8.264  0.1245  0.2710 -0.7226
 9647TIP3   OH253135   2.075   5.123   1.551 -0.3355 -0.6733  0.2672
 9647TIP3    H153136   2.047   5.215   1.545 -0.8982 -0.6748  2.2850
 9647TIP3    H253137   2.002   5.074   1.513 -0.7446 -0.3627  0.6362
 9648TIP3   OH253138   7.256   2.688   7.341 -0.1774 -0.2434  0.1388
 9648TIP3    H153139   7.336   2.715   7.296 -1.0850  0.1215 -1.3112
 9648TIP3    H253140   7.233   2.764   7.394 -1.0344  0.7517 -1.5656
 9649TIP3   OH253141   2.026   0.300   0.199 -0.6987  0.1570  0.6501
 9649TIP3    H153142   1.940   0.319   0.162 -0.6954  0.9801  1.0506
 9649TIP3    H253143   2.009   0.274   0.289 -0.3943  2.6454  1.5022
 9650TIP3   OH253144   2.429   1.097   1.358  0.4666  0.0346  0.0668
 9650TIP3    H153145   2.505   1.048   1.327  0.0353 -0.6903  0.1474
 9650TIP3    H253146   2.418   1.167   1.294  0.0276 -1.0080 -1.0362
 9651TIP3   OH253147   1.082   6.917   1.714 -0.2013 -0.6153 -0.0562
 9651TIP3    H153148   1.029   6.939   1.637 -0.5765 -1.9472 -0.1969
 9651TIP3    H253149   1.163   6.883   1.678  0.4985  0.7468  0.1635
 9652TIP3   OH253150   4.896   0.732   0.363  0.4870  0.0743 -0.7142
 9652TIP3    H153151   4.983   0.738   0.403  0.6566 -0.4788 -0.9863
 9652TIP3    H253152   4.914   0.734   0.269  0.0629  1.8078 -0.7937
 9653TIP3   OH253153   1.147   4.862   8.673 -0.3349  0.1269 -0.2405
 9653TIP3    H153154   1.101   4.800   8.617 -0.3749 -0.0682  0.0125
 9653TIP3    H253155   1.106   4.852   8.759 -0.8526  1.0271 -0.3650
 9654TIP3   OH253156   2.815   3.302   9.384 -0.3201 -0.3257  0.6381
 9654TIP3    H153157   2.850   3.324   9.297 -0.5131  0.9587  0.8721
 9654TIP3    H253158   2.731   3.260   9.366 -0.1163 -0.5505  0.1870
 9655TIP3   OH253159   5.945   4.391   8.232  0.1025 -0.2040  0.0246
 9655TIP3    H153160   5.889   4.440   8.171 -0.4580  0.8509  1.3262
 9655TIP3    H253161   5.983   4.458   8.289  1.3763 -1.0736  0.2393
 9656TIP3   OH253162   1.000   1.739   2.107 -0.1960 -0.6690 -0.4104
 9656TIP3    H153163   0.991   1.821   2.156 -1.5753 -0.0852 -1.5482
 9656TIP3    H253164   0.927   1.685   2.138  0.5030 -1.3450  0.0808
 9657TIP3   OH253165   4.734   5.463   8.215  0.3882 -0.0262 -0.6888
 9657TIP3    H153166   4.753   5.369   8.205 -0.5622 -0.1642 -1.3387
 9657TIP3    H253167   4.771   5.504   8.137  1.7315  0.3127  0.0899
 9658TIP3   OH253168   0.260   0.697   8.171 -0.0655 -0.3178  0.1992
 9658TIP3    H153169   0.355   0.687   8.177 -0.1074 -0.8303  0.0189
 9658TIP3    H253170   0.225   0.640   8.239 -0.2986 -1.3499 -0.7670
 9659TIP3   OH253171   3.108   2.237   9.731  0.0313 -0.1232  0.8874
 9659TIP3    H153172   3.104   2.328   9.760  1.7985 -0.6074  2.9279
 9659TIP3    H253173   3.130   2.242   9.638  2.1943  1.5828  1.4132
 9660TIP3   OH253174   3.116   5.162   7.614  0.2422 -0.3596 -0.4084
 9660TIP3    H153175   3.091   5.111   7.691 -1.6310  2.3230  0.9286
 9660TIP3    H253176   3.051   5.138   7.547  0.9609 -1.5737 -0.7046
 9661TIP3   OH253177   4.063   0.629   7.666 -0.0392  0.0865 -0.1391
 9661TIP3    H153178   4.150   0.666   7.682  0.1710 -0.7252  0.6541
 9661TIP3    H253179   4.003   0.684   7.718  0.3241 -0.9155  1.4008
 9662TIP3   OH253180   4.790   4.892   1.300 -0.9578 -0.3902 -0.1920
 9662TIP3    H153181   4.703   4.867   1.330 -0.6512  0.0692  1.1652
 9662TIP3    H253182   4.778   4.922   1.210 -2.1657 -0.4798 -0.0674
 9663TIP3   OH253183   6.850   3.126   9.295 -0.1892 -0.9343  0.0979
 9663TIP3    H153184   6.912   3.166   9.357 -1.0121 -0.1411  0.4331
 9663TIP3    H253185   6.786   3.082   9.351 -1.9038  1.1990 -0.0559
 9664TIP3   OH253186   5.830   6.944   9.346 -0.1427  0.2899  0.2520
 9664TIP3    H153187   5.745   6.949   9.390  0.2092 -0.8397  1.1066
 9664TIP3    H253188   5.809   6.931   9.254 -0.9772 -2.6082  0.7551
 9665TIP3   OH253189   5.103   1.893   8.867  0.2440  0.0660 -0.6498
 9665TIP3    H153190   5.052   1.951   8.810  1.5012  1.4906 -0.3988
 9665TIP3    H253191   5.151   1.836   8.807 -0.3911 -0.1817 -0.9285
 9666TIP3   OH253192   1.540   4.689   7.025  0.0188  0.0226 -0.0975
 9666TIP3    H153193   1.514   4.779   7.044 -0.5314  0.0123 -0.7465
 9666TIP3    H253194   1.582   4.694   6.939  1.5601 -0.0764  0.6272
 9667TIP3   OH253195   6.264   6.524   9.292  0.1474  0.1476  0.3157
 9667TIP3    H153196   6.224   6.601   9.251  0.6922 -0.1539 -0.8115
 9667TIP3    H253197   6.347   6.557   9.328  0.1317  0.2017  0.3031
 9668TIP3   OH253198   4.225   6.779   9.212 -0.1593  0.1292  0.3049
 9668TIP3    H153199   4.240   6.729   9.132 -0.1436 -0.1558  0.4854
 9668TIP3    H253200   4.308   6.776   9.259  0.3211  1.6371 -0.4068
 9669TIP3   OH253201   3.258   4.298   9.764 -0.1230 -0.0795 -0.3625
 9669TIP3    H153202   3.254   4.388   9.796  1.2203 -0.1568  0.0769
 9669TIP3    H253203   3.184   4.291   9.704 -0.5460  1.1617 -0.0185
 9670TIP3   OH253204   3.698   7.373   0.599 -0.3442  0.1908 -0.3038
 9670TIP3    H153205   3.658   7.288   0.615  0.0708 -0.4327 -2.2737
 9670TIP3    H253206   3.764   7.382   0.668  0.5656 -1.7448 -0.8513
 9671TIP3   OH253207   4.631   3.491   1.325 -0.4812  0.1648  0.0421
 9671TIP3    H153208   4.722   3.516   1.341 -1.1279  1.9541  1.3251
 9671TIP3    H253209   4.593   3.567   1.280 -1.1471 -0.8914 -1.2260
 9672TIP3   OH253210   2.229   6.084   7.149  0.3724  0.0581  0.0759
 9672TIP3    H153211   2.231   6.042   7.063 -0.5728 -0.2357  0.1876
 9672TIP3    H253212   2.280   6.025   7.205  0.4914 -0.0536 -0.1456
 9673TIP3   OH253213   3.666   7.193   1.591  0.3572  0.2334  0.0682
 9673TIP3    H153214   3.594   7.133   1.610  0.3318  0.5288  0.9612
 9673TIP3    H253215   3.635   7.278   1.623  0.6059  0.6197 -0.6914
 9674TIP3   OH253216   5.551   6.433   1.202  0.0767  0.1558  0.8018
 9674TIP3    H153217   5.611   6.451   1.129  0.7264 -1.5420  0.8711
 9674TIP3    H253218   5.467   6.415   1.161  0.1680  0.2858  0.5569
 9675TIP3   OH253219   0.626   3.016   0.296 -0.2309 -0.5117  0.1085
 9675TIP3    H153220   0.581   3.003   0.213 -1.1594  2.1497  0.0996
 9675TIP3    H253221   0.560   2.995   0.362  0.5103 -2.6377  0.2406
 9676TIP3   OH253222   4.797   6.583   7.328  0.0182 -0.1848 -0.3872
 9676TIP3    H153223   4.890   6.599   7.339  0.0185 -0.2247 -0.3325
 9676TIP3    H253224   4.761   6.668   7.301 -0.1743  0.2378  1.0920
 9677TIP3   OH253225   5.084   2.474   7.336  0.3320 -1.0909  0.1344
 9677TIP3    H153226   5.106   2.559   7.296 -0.8325 -0.0088  1.6576
 9677TIP3    H253227   5.087   2.412   7.263  0.8780  0.3110 -1.1028
 9678TIP3   OH253228   2.348   2.973   7.808  0.1278  0.2935  0.5903
 9678TIP3    H153229   2.414   2.905   7.813  1.1345  1.2199  0.2924
 9678TIP3    H253230   2.285   2.951   7.876  0.8931 -0.4515  1.0678
 9679TIP3   OH253231   1.605   2.762   1.389  0.5275 -0.5188  0.1253
 9679TIP3    H153232   1.562   2.847   1.402 -0.6408 -0.6415 -2.2912
 9679TIP3    H253233   1.536   2.706   1.354  1.7525 -1.9182 -0.1521
 9680TIP3   OH253234   1.130   3.911   9.836 -0.3307 -0.0420  0.1853
 9680TIP3    H153235   1.035   3.923   9.832 -0.5120 -1.4290 -0.4051
 9680TIP3    H253236   1.144   3.822   9.802  1.1168 -0.1136  0.9027
 9681TIP3   OH253237   2.281   2.555   2.310  0.6027  0.3991 -0.8880
 9681TIP3    H153238   2.236   2.519   2.387  0.9193 -0.1295 -0.9471
 9681TIP3    H253239   2.231   2.520   2.236  2.1008 -1.6185 -1.0197
 9682TIP3   OH253240   1.414   0.154   0.124  0.1486 -0.2938  0.1842
 9682TIP3    H153241   1.489   0.138   0.181  0.1577  0.8205  0.5122
 9682TIP3    H253242   1.438   0.232   0.074  0.2472 -1.3803 -1.5472
 9683TIP3   OH253243   0.581   5.453   8.606 -0.8388 -0.1775 -0.1691
 9683TIP3    H153244   0.512   5.471   8.543 -0.6654 -1.1443 -0.6632
 9683TIP3    H253245   0.608   5.539   8.638 -0.9541  0.3271 -1.3828
 9684TIP3   OH253246   6.814   3.706   1.072 -0.3086  0.1106  0.1547
 9684TIP3    H153247   6.879   3.721   1.141  1.0053  0.3788 -1.0792
 9684TIP3    H253248   6.748   3.650   1.112  0.0401  0.8326  1.8282
 9685TIP3   OH253249   6.284   1.853   0.618 -0.0944  0.3407 -0.0997
 9685TIP3    H153250   6.302   1.905   0.696 -0.5256 -0.7181  0.7136
 9685TIP3    H253251   6.328   1.769   0.633 -1.5418 -0.4819 -0.2537
 9686TIP3   OH253252   0.983   5.840   7.470  0.1176 -0.3043  0.1981
 9686TIP3    H153253   0.935   5.917   7.499 -1.1752 -1.1697  0.4582
 9686TIP3    H253254   0.926   5.766   7.493  0.2816 -1.2106 -2.0469
 9687TIP3   OH253255   1.773   0.890   6.467 -0.5815 -0.0884  0.3906
 9687TIP3    H153256   1.865   0.907   6.486 -0.6354 -1.0533  1.6391
 9687TIP3    H253257   1.770   0.875   6.373  0.1110  2.4678 -0.1335
 9688TIP3   OH253258   2.884   4.834   6.571  0.2870  0.1558  0.3538
 9688TIP3    H153259   2.830   4.913   6.568  1.4640  1.0187  0.9647
 9688TIP3    H253260   2.866   4.790   6.489 -0.5547  0.9503  0.0888
 9689TIP3   OH253261   5.635   6.122   2.113 -0.3224 -0.3744 -0.0718
 9689TIP3    H153262   5.630   6.062   2.188 -0.5974 -0.1731  0.0729
 9689TIP3    H253263   5.726   6.119   2.086  0.0704  0.5085  1.0669
 9690TIP3   OH253264   0.369   1.119   9.448  0.2628  0.3820 -0.2806
 9690TIP3    H153265   0.383   1.208   9.481  1.7611 -0.1746  0.7144
 9690TIP3    H253266   0.452   1.074   9.466 -0.9923 -1.6601  0.6627
 9691TIP3   OH253267   6.021   0.379   0.590  0.2406  0.0037  0.0946
 9691TIP3    H153268   6.055   0.299   0.630 -1.1626  0.2382  1.8905
 9691TIP3    H253269   5.991   0.352   0.503 -0.8068 -1.5965  0.9097
 9692TIP3   OH253270   0.072   3.964   7.933  0.6337  0.2725 -0.6160
 9692TIP3    H153271   0.073   3.986   7.840 -0.7096 -1.1197 -0.9986
 9692TIP3    H253272   0.044   4.046   7.976  1.0267  0.8541 -1.4451
 9693TIP3   OH253273   1.531   6.615   8.873  0.1767 -0.6053 -0.5088
 9693TIP3    H153274   1.593   6.545   8.893  1.2298  0.0814 -1.2967
 9693TIP3    H253275   1.569   6.662   8.799 -1.0811  0.0984 -0.7493
 9694TIP3   OH253276   5.458   6.169   1.398  0.3134 -0.3329  0.0870
 9694TIP3    H153277   5.421   6.081   1.388  0.9574 -0.5465 -0.5225
 9694TIP3    H253278   5.428   6.216   1.321  2.4607 -0.9476 -1.2053
 9695TIP3   OH253279   6.681   0.294   9.099  0.2289  0.1275 -0.0627
 9695TIP3    H153280   6.737   0.217   9.109  0.5195  0.5664  2.0203
 9695TIP3    H253281   6.646   0.310   9.186  0.2307  2.4005 -0.4191
 9696TIP3   OH253282   7.364   0.411   9.599  0.1994 -0.2768  0.5403
 9696TIP3    H153283   7.305   0.480   9.569  2.4043  2.0270  1.2399
 9696TIP3    H253284   7.451   0.450   9.596  1.6111 -3.1553  0.6789
 9697TIP3   OH253285   1.339   1.417   0.260 -0.1268 -0.1019  0.4842
 9697TIP3    H153286   1.249   1.383   0.257 -0.8139  1.6405 -1.7755
 9697TIP3    H253287   1.372   1.404   0.171  1.2668  0.7931  0.8402
 9698TIP3   OH253288   0.311   3.670   8.150 -0.2203 -0.4042  0.0495
 9698TIP3    H153289   0.398   3.707   8.166  0.0641 -1.9236  2.4107
 9698TIP3    H253290   0.253   3.719   8.208 -0.7362 -0.3046 -0.5359
 9699TIP3   OH253291   6.382   0.190   8.823 -0.3705  0.4603  0.0328
 9699TIP3    H153292   6.459   0.137   8.804 -0.2781  0.0870  1.3285
 9699TIP3    H253293   6.314   0.155   8.765  0.3389  0.5813 -0.8909
 9700TIP3   OH253294   2.920   3.841   0.441 -0.3058 -0.6280  0.8385
 9700TIP3    H153295   2.831   3.872   0.422  0.1835  3.0132  3.4078
 9700TIP3    H253296   2.912   3.794   0.523  0.0533 -0.8920  0.7229
 9701TIP3   OH253297   0.995   5.940   8.020 -0.1193 -0.1864  0.4063
 9701TIP3    H153298   1.013   6.033   8.006 -0.0699 -0.2637 -0.0419
 9701TIP3    H253299   1.020   5.898   7.938 -0.3234 -0.5724  0.5415
 9702TIP3   OH253300   3.624   4.555   1.352  0.2637 -0.3716 -0.4740
 9702TIP3    H153301   3.549   4.607   1.324  0.8708  0.8789  0.1472
 9702TIP3    H253302   3.596   4.464   1.338 -1.8089 -0.0009  0.8459
 9703TIP3   OH253303   1.078   3.687   1.598 -0.3759 -0.2730  0.0356
 9703TIP3    H153304   1.071   3.676   1.503  1.3120 -0.2773 -0.1306
 9703TIP3    H253305   1.015   3.755   1.620  2.2332  3.0646 -1.8383
 9704TIP3   OH253306   3.136   6.166   2.057 -0.0407 -0.2825 -0.5728
 9704TIP3    H153307   3.101   6.152   1.969 -1.5597 -1.8510  0.2068
 9704TIP3    H253308   3.142   6.261   2.065 -0.5252 -0.0861 -2.1298
 9705TIP3   OH253309   7.157   4.580   8.519 -0.3302 -0.4948  0.0508
 9705TIP3    H153310   7.149   4.670   8.552 -1.2899 -1.1660  1.8008
 9705TIP3    H253311   7.067   4.551   8.507 -0.0139 -0.9610 -1.3401
 9706TIP3   OH253312   1.585   5.270   6.767  0.5519  0.0680 -0.0321
 9706TIP3    H153313   1.542   5.324   6.701  0.5275 -2.0893 -1.8901
 9706TIP3    H253314   1.579   5.321   6.848  0.2139  2.6254 -1.5834
 9707TIP3   OH253315   5.315   3.228   9.203  0.2776 -0.2852 -0.1535
 9707TIP3    H153316   5.341   3.146   9.245 -1.6480 -1.1783 -0.6343
 9707TIP3    H253317   5.231   3.250   9.244  0.7832  1.4907 -0.0057
 9708TIP3   OH253318   3.645   5.611   7.036 -1.0076 -0.0558 -0.5351
 9708TIP3    H153319   3.616   5.527   7.000  0.9835 -0.1455 -2.0638
 9708TIP3    H253320   3.599   5.676   6.983 -1.4925 -0.1550 -0.2510
 9709TIP3   OH253321   0.193   4.312   0.390 -0.0182 -0.1492 -0.2608
 9709TIP3    H153322   0.132   4.251   0.348  1.4682 -1.1272 -1.1040
 9709TIP3    H253323   0.210   4.272   0.476 -1.7247  0.9498  0.6391
 9710TIP3   OH253324   4.153   0.296   9.993  0.0241 -0.4622 -0.2948
 9710TIP3    H153325   4.127   0.247   9.915  2.0853 -1.4235 -0.4391
 9710TIP3    H253326   4.211   0.236  10.040  0.5330  0.9045  0.8675
 9711TIP3   OH253327   0.857   4.266   8.642  0.3727  0.0551 -0.5782
 9711TIP3    H153328   0.800   4.234   8.711  1.2006 -0.0229  0.0796
 9711TIP3    H253329   0.860   4.195   8.578 -0.2160  0.0410 -0.5914
 9712TIP3   OH253330   5.080   6.604   8.038 -0.5459 -0.2721  0.7580
 9712TIP3    H153331   5.089   6.649   8.122  0.6237 -0.3740  0.7041
 9712TIP3    H253332   5.126   6.521   8.051  2.6341  1.0427 -0.9442
 9713TIP3   OH253333   5.617   2.631   9.368 -0.1026  0.0008  0.1221
 9713TIP3    H153334   5.681   2.649   9.437  0.4785 -1.2719 -0.0588
 9713TIP3    H253335   5.656   2.668   9.289  0.5403 -0.9716 -0.0315
 9714TIP3   OH253336   2.518   7.303   9.189  0.3618  0.4100 -0.1608
 9714TIP3    H153337   2.474   7.307   9.105 -0.0335 -0.2548  0.0104
 9714TIP3    H253338   2.604   7.265   9.169  1.2096  2.4182 -0.6147
 9715TIP3   OH253339   5.961   2.180   1.651 -0.0798  0.1200  0.2472
 9715TIP3    H153340   5.958   2.205   1.743  0.8598  0.2816  0.2461
 9715TIP3    H253341   5.977   2.262   1.604  0.5433 -0.1188  0.0340
 9716TIP3   OH253342   6.820   0.927   9.763  0.3666  0.4357  0.0389
 9716TIP3    H153343   6.772   0.895   9.687  0.7425 -0.6120  0.2259
 9716TIP3    H253344   6.861   1.008   9.733 -0.4601  0.6587 -0.5089
 9717TIP3   OH253345   2.913   7.413   2.366  0.7353  0.7875  0.4199
 9717TIP3    H153346   2.908   7.498   2.321 -2.2653  1.0126  0.9839
 9717TIP3    H253347   2.886   7.432   2.456 -0.1410 -0.7646  0.5167
 9718TIP3   OH253348   5.605   6.600   1.541  0.1893 -0.8251  0.2770
 9718TIP3    H153349   5.526   6.553   1.567 -0.4704  0.8720  1.5771
 9718TIP3    H253350   5.625   6.657   1.616  2.0553 -0.4484 -0.4351
 9719TIP3   OH253351   1.634   4.695   6.504  0.2829 -0.1590  0.5082
 9719TIP3    H153352   1.656   4.604   6.482 -1.2064 -0.1782 -1.0747
 9719TIP3    H253353   1.709   4.746   6.475 -0.3769 -0.5214 -2.0796
 9720TIP3   OH253354   0.144   0.321   7.176 -0.1193 -0.1136 -0.1642
 9720TIP3    H153355   0.226   0.281   7.144 -0.5824 -1.1586 -0.1017
 9720TIP3    H253356   0.164   0.414   7.183  1.0290 -0.3328 -0.2720
 9721TIP3   OH253357   6.651   5.176   2.569 -0.2644 -0.8305  0.4459
 9721TIP3    H153358   6.649   5.085   2.539  0.0931 -0.6779 -0.0539
 9721TIP3    H253359   6.720   5.179   2.634  1.8635 -0.2969 -1.6793
 9722TIP3   OH253360   0.345   4.535   1.401 -0.0468  0.3512  0.3575
 9722TIP3    H153361   0.308   4.480   1.332 -1.4003  1.4507  0.1642
 9722TIP3    H253362   0.270   4.582   1.437  1.0497  1.9985  0.5965
 9723TIP3   OH253363   0.189   3.852   9.346  0.1036  0.5331 -0.6107
 9723TIP3    H153364   0.150   3.883   9.264 -3.4778 -0.4990  0.5365
 9723TIP3    H253365   0.115   3.837   9.404  2.4122  0.0403  2.4696
 9724TIP3   OH253366   2.482   2.423   8.030  0.7579 -0.6126  0.3040
 9724TIP3    H153367   2.501   2.504   7.983  0.3347 -0.2258  0.7784
 9724TIP3    H253368   2.537   2.357   7.989  1.2950 -0.0279  0.0781
 9725TIP3   OH253369   1.671   0.632   0.924  0.7170  0.2113  0.2990
 9725TIP3    H153370   1.638   0.567   0.862  0.1511  0.7549  0.0172
 9725TIP3    H253371   1.732   0.584   0.979  0.6570 -0.4513 -0.2036
 9726TIP3   OH253372   3.485   7.008   0.863  0.2956 -0.5142 -0.3136
 9726TIP3    H153373   3.522   7.069   0.799 -0.2025  0.7080  0.5240
 9726TIP3    H253374   3.550   6.938   0.870  0.8576 -0.1195 -1.3455
 9727TIP3   OH253375   2.882   1.668   2.265  0.0790  0.3571 -0.4185
 9727TIP3    H153376   2.851   1.672   2.356  1.1449 -0.0185 -0.0261
 9727TIP3    H253377   2.879   1.575   2.242  1.5157  0.2215 -0.1400
 9728TIP3   OH253378   7.220   0.757   9.803  0.0346 -0.1932  0.2672
 9728TIP3    H153379   7.209   0.803   9.720 -2.0723 -1.1345 -0.0464
 9728TIP3    H253380   7.311   0.728   9.803  0.5886  1.4395 -0.8360
 9729TIP3   OH253381   2.779   5.745   8.620 -0.8212  0.2053 -0.0900
 9729TIP3    H153382   2.720   5.703   8.557  0.9886 -0.6615 -1.3094
 9729TIP3    H253383   2.724   5.809   8.665 -2.6434 -0.4453 -1.2432
 9730TIP3   OH253384   3.343   0.591   7.734  0.0658 -0.2379  0.1632
 9730TIP3    H153385   3.275   0.657   7.743 -2.0966 -2.1765 -1.0449
 9730TIP3    H253386   3.425   0.641   7.740 -1.3938  2.2512  1.1412
 9731TIP3   OH253387   0.223   5.935   1.695 -0.8360  0.0445  1.2285
 9731TIP3    H153388   0.302   5.964   1.739  0.6433 -0.8625 -0.6841
 9731TIP3    H253389   0.196   5.856   1.743  0.0864 -0.2878  1.2165
 9732TIP3   OH253390   2.038   6.804   2.438 -0.3995 -0.1240 -0.0624
 9732TIP3    H153391   2.116   6.791   2.384 -0.8135 -1.0690 -0.4549
 9732TIP3    H253392   1.969   6.829   2.375 -0.4536  0.5895  0.2652
 9733TIP3   OH253393   2.781   6.684   9.043 -0.0527 -0.2408 -0.1598
 9733TIP3    H153394   2.751   6.731   9.120  2.1806  0.8079  0.1628
 9733TIP3    H253395   2.728   6.605   9.040 -0.0912 -0.3985  2.5732
 9734TIP3   OH253396   3.447   6.196   8.768  0.0647  0.0035 -0.4345
 9734TIP3    H153397   3.391   6.154   8.833 -1.3836 -0.0894 -1.7041
 9734TIP3    H253398   3.441   6.140   8.691  0.4863  0.9589 -1.1823
 9735TIP3   OH253399   6.664   2.760   0.174  0.4786 -0.6747  0.0695
 9735TIP3    H153400   6.611   2.721   0.244 -0.8107  0.5361 -0.1843
 9735TIP3    H253401   6.602   2.772   0.102  1.1757  0.5340 -0.3441
 9736TIP3   OH253402   0.676   4.215   2.591  0.0813  0.0674  0.0193
 9736TIP3    H153403   0.588   4.254   2.588 -0.0883 -0.3149  0.0360
 9736TIP3    H253404   0.663   4.123   2.568  0.4068 -0.1144  0.5522
 9737TIP3   OH253405   0.226   6.755   8.180  0.2728  0.1780 -0.7078
 9737TIP3    H153406   0.172   6.736   8.103 -1.2013  2.4246 -0.3399
 9737TIP3    H253407   0.304   6.798   8.145  0.5579 -0.6256 -1.0684
 9738TIP3   OH253408   4.721   2.688   1.036  0.3806  0.5374  0.2401
 9738TIP3    H153409   4.690   2.651   0.954 -0.3906  0.3267  0.6171
 9738TIP3    H253410   4.774   2.619   1.076  0.1606  0.3745  0.2519
 9739TIP3   OH253411   4.845   2.459   8.698  0.0302  0.1138 -0.2181
 9739TIP3    H153412   4.936   2.440   8.720  0.0811 -0.3134 -0.7724
 9739TIP3    H253413   4.820   2.530   8.758  0.4893 -0.2765  0.4448
 9740TIP3   OH253414   5.887   0.546   1.439  0.5757  0.2602  0.2733
 9740TIP3    H153415   5.816   0.569   1.500  0.9297 -1.1048  1.2436
 9740TIP3    H253416   5.856   0.467   1.395  1.8285 -0.8727  1.3465
 9741TIP3   OH253417   3.458   6.669   7.201  0.4171  0.6056 -0.1064
 9741TIP3    H153418   3.435   6.694   7.291  1.3687 -0.7480  0.5504
 9741TIP3    H253419   3.375   6.641   7.162 -0.2065  2.2785 -0.0506
 9742TIP3   OH253420   3.639   5.549   9.921  0.7320  0.4432  0.0096
 9742TIP3    H153421   3.715   5.520   9.871  2.4265  3.5896  0.4639
 9742TIP3    H253422   3.608   5.627   9.874 -1.4069  0.0074  0.6030
 9743TIP3   OH253423   6.384   7.221   8.845  0.1208  0.1869  0.0505
 9743TIP3    H153424   6.416   7.132   8.829  0.7934  0.2179  1.1138
 9743TIP3    H253425   6.450   7.278   8.804  1.4193  0.2468  2.1037
 9744TIP3   OH253426   7.117   3.716   9.088 -0.2082  0.4020  0.3963
 9744TIP3    H153427   7.143   3.690   8.999  1.0074  1.2723  0.4727
 9744TIP3    H253428   7.121   3.635   9.139 -2.2085 -0.3799 -0.5824
 9745TIP3   OH253429   1.013   4.124   1.617 -0.1816 -0.2971 -0.1339
 9745TIP3    H153430   1.101   4.103   1.647 -0.6518 -3.3053 -0.5412
 9745TIP3    H253431   0.989   4.050   1.561 -3.2890 -0.0427  0.6850
 9746TIP3   OH253432   4.880   1.796   1.463  0.0296  0.5446  0.2423
 9746TIP3    H153433   4.916   1.785   1.551 -0.0434  0.1221  0.2255
 9746TIP3    H253434   4.785   1.806   1.478 -0.1265 -0.6171  0.1574
 9747TIP3   OH253435   0.788   2.880   2.002 -0.6744  0.2611 -0.7103
 9747TIP3    H153436   0.714   2.865   2.061  0.8602 -1.5722  0.9342
 9747TIP3    H253437   0.811   2.792   1.971  1.8312  0.5006  0.2328
 9748TIP3   OH253438   4.186   6.601   1.323 -0.2759  0.0224 -0.2389
 9748TIP3    H153439   4.271   6.626   1.287 -0.3711  3.0550  1.2721
 9748TIP3    H253440   4.124   6.661   1.280 -1.0040  0.6204  1.5612
 9749TIP3   OH253441   4.951   7.132   8.163  0.2437  0.6054  0.4898
 9749TIP3    H153442   4.966   7.171   8.077 -0.9225  0.2445  0.0982
 9749TIP3    H253443   4.863   7.095   8.157  1.3779 -2.4206  0.7006
 9750TIP3   OH253444   2.794   5.066   2.290  0.2995 -0.0389  0.2499
 9750TIP3    H153445   2.795   5.001   2.360 -2.3810 -0.1740  0.2744
 9750TIP3    H253446   2.758   5.145   2.332  1.4460  0.8014 -0.3052
 9751TIP3   OH253447   1.620   5.790   2.628  0.1754  0.1758  0.0317
 9751TIP3    H153448   1.703   5.746   2.646 -0.5306 -0.4048  2.1669
 9751TIP3    H253449   1.620   5.867   2.685 -0.7983  0.1115  0.1365
 9752TIP3   OH253450   4.533   4.832   7.748  0.1050  0.1881 -0.2071
 9752TIP3    H153451   4.521   4.744   7.713  1.6199 -0.2102  0.2099
 9752TIP3    H253452   4.535   4.889   7.670  1.5051 -0.4518 -0.6724
 9753TIP3   OH253453   6.918   7.392   1.152  0.0887 -0.0559 -0.1045
 9753TIP3    H153454   6.930   7.462   1.089  1.3163 -0.3048 -0.1784
 9753TIP3    H253455   7.000   7.342   1.148 -0.8731 -1.6956 -0.2999
 9754TIP3   OH253456   2.043   4.731   0.228 -0.0033 -0.4580  0.6975
 9754TIP3    H153457   2.025   4.652   0.280 -0.8135 -0.7927 -0.0798
 9754TIP3    H253458   2.028   4.704   0.137  1.6686  0.0437  0.2438
 9755TIP3   OH253459   1.676   5.127   2.067 -0.5652 -0.2599 -0.3625
 9755TIP3    H153460   1.692   5.181   2.144 -1.4279 -0.4183 -0.0587
 9755TIP3    H253461   1.702   5.181   1.993 -1.2823  0.5172 -0.0548
 9756TIP3   OH253462   0.245   0.139   2.743  0.3334  0.0230 -0.4160
 9756TIP3    H153463   0.244   0.065   2.804 -0.9465  1.7795  1.8459
 9756TIP3    H253464   0.328   0.183   2.761 -0.1890  0.7266  0.3654
 9757TIP3   OH253465   3.058   1.391   0.713 -0.4289  0.2559 -0.0326
 9757TIP3    H153466   3.009   1.464   0.750  1.0513  1.1456  0.2853
 9757TIP3    H253467   3.056   1.323   0.781 -0.6213  0.5527  0.2581
 9758TIP3   OH253468   3.219   3.847   0.978  1.1137 -0.3688  0.3734
 9758TIP3    H153469   3.282   3.781   0.948  0.3815 -0.1869 -1.7686
 9758TIP3    H253470   3.269   3.929   0.979  0.7801 -0.0594 -2.1992
 9759TIP3   OH253471   2.761   1.040   8.326 -0.2378  0.0487 -0.3326
 9759TIP3    H153472   2.834   1.072   8.274  1.7007 -0.6851  1.7929
 9759TIP3    H253473   2.748   0.950   8.297  1.4024 -0.6437  0.9042
 9760TIP3   OH253474   1.602   1.854   2.382  0.2383 -0.6624  0.3326
 9760TIP3    H153475   1.524   1.808   2.351  0.7981 -1.4448  0.0482
 9760TIP3    H253476   1.569   1.918   2.445 -0.6260 -1.0092  0.2453
 9761TIP3   OH253477   1.304   3.274   9.512 -0.5024 -0.0202 -0.2212
 9761TIP3    H153478   1.365   3.264   9.585  1.3897  1.1388 -1.5513
 9761TIP3    H253479   1.308   3.367   9.490 -0.4209 -0.4604 -2.2649
 9762TIP3   OH253480   0.086   3.397   2.385  0.2068  0.1330  0.3832
 9762TIP3    H153481   0.170   3.406   2.430 -0.5176  0.2095  1.7739
 9762TIP3    H253482   0.035   3.473   2.415 -1.0188 -0.9281  1.1094
 9763TIP3   OH253483   1.936   6.738   1.422 -0.1800  0.6124 -0.4474
 9763TIP3    H153484   1.845   6.769   1.418 -0.0140  1.0170 -1.3762
 9763TIP3    H253485   1.932   6.647   1.392 -0.3451  0.4474  0.0543
 9764TIP3   OH253486   1.905   0.906   8.802  0.1090  0.2774  0.2961
 9764TIP3    H153487   1.866   0.953   8.729 -0.8539  0.6763  1.0577
 9764TIP3    H253488   1.997   0.934   8.803 -0.0497  0.8207 -0.3025
 9765TIP3   OH253489   5.559   5.160   0.165  0.2654 -0.1524 -0.3034
 9765TIP3    H153490   5.478   5.207   0.145  1.4138  2.1185  0.0570
 9765TIP3    H253491   5.592   5.204   0.244  2.0940 -0.6925 -0.7399
 9766TIP3   OH253492   2.641   0.025   0.700  0.2910 -0.7757  0.4899
 9766TIP3    H153493   2.672   0.056   0.615 -0.2758  0.4338  0.7013
 9766TIP3    H253494   2.689   0.078   0.764 -1.1224  0.1650  0.8461
 9767TIP3   OH253495   5.317   6.789   7.823 -0.5991  0.3218  0.0373
 9767TIP3    H153496   5.387   6.854   7.819  0.2544 -0.6026 -0.6599
 9767TIP3    H253497   5.332   6.742   7.905 -0.3018  0.0233 -0.1859
 9768TIP3   OH253498   2.694   5.501   3.242  0.4429 -0.0912  0.0467
 9768TIP3    H153499   2.613   5.534   3.202 -0.1217 -1.3046  0.1312
 9768TIP3    H253500   2.713   5.421   3.195  1.9134  0.4484 -0.3106
 9769TIP3   OH253501   0.614   1.286   0.510  0.0548 -0.0385  0.3381
 9769TIP3    H153502   0.652   1.329   0.587  2.3325 -1.5520  0.1555
 9769TIP3    H253503   0.519   1.298   0.520  0.3509  0.8312  2.7436
 9770TIP3   OH253504   5.163   1.385   8.902  0.4751  0.1008  0.8740
 9770TIP3    H153505   5.160   1.400   8.808  0.4929 -0.8843  0.7069
 9770TIP3    H253506   5.256   1.378   8.922  0.4380 -0.8316  0.7630
 9771TIP3   OH253507   5.980   0.854   1.598  0.1464 -0.1389 -0.1428
 9771TIP3    H153508   5.954   0.803   1.521  0.3259  0.0065 -0.2994
 9771TIP3    H253509   5.897   0.878   1.638  0.0508 -1.8477  0.8028
 9772TIP3   OH253510   7.261   3.775   9.370 -0.2823  0.0380 -0.3805
 9772TIP3    H153511   7.251   3.787   9.276 -1.7491  1.7522 -0.0705
 9772TIP3    H253512   7.355   3.770   9.384 -0.0602 -0.8299 -1.9718
 9773TIP3   OH253513   5.085   3.609   7.506 -0.5155 -0.3640 -0.0156
 9773TIP3    H153514   4.997   3.642   7.522 -0.9843 -1.9749  0.8925
 9773TIP3    H253515   5.140   3.658   7.567 -0.7246  0.6957 -0.6334
 9774TIP3   OH253516   3.840   6.577   0.673 -0.4242 -0.6281  0.2683
 9774TIP3    H153517   3.913   6.520   0.698 -0.2325 -1.3354 -1.7503
 9774TIP3    H253518   3.880   6.662   0.659  0.0003 -0.9439 -0.5401
 9775TIP3   OH253519   5.331   6.696   9.394  0.0621 -0.2657  0.0906
 9775TIP3    H153520   5.330   6.644   9.474  1.5931 -0.0969  0.2540
 9775TIP3    H253521   5.270   6.768   9.412 -1.1497 -1.3189  0.3155
 9776TIP3   OH253522   3.529   6.155   1.708  0.0326  0.1124  0.6598
 9776TIP3    H153523   3.444   6.125   1.673  2.3833 -3.2363 -3.1177
 9776TIP3    H253524   3.554   6.227   1.651 -0.4194  1.4641  2.1205
 9777TIP3   OH253525   3.073   5.901   2.500 -0.1767  0.1992 -0.1903
 9777TIP3    H153526   3.082   5.927   2.591  2.2707 -0.1547 -0.2657
 9777TIP3    H253527   3.090   5.981   2.450  2.2588 -0.3363 -0.3369
 9778TIP3   OH253528   2.229   5.930   6.610 -0.1656  0.5284 -0.0334
 9778TIP3    H153529   2.312   5.975   6.625 -0.1382  1.0351 -1.5030
 9778TIP3    H253530   2.210   5.947   6.518 -2.8540  2.0513  0.6885
 9779TIP3   OH253531   7.152   5.015   9.573 -0.1054  0.0544  0.3708
 9779TIP3    H153532   7.133   4.974   9.489 -1.0739  0.3157  0.4608
 9779TIP3    H253533   7.091   4.975   9.634 -0.5722  1.1054  0.6068
 9780TIP3   OH253534   3.877   6.768   7.798 -1.3829  0.1378  0.0065
 9780TIP3    H153535   3.935   6.743   7.726 -3.6096 -1.0646 -1.4872
 9780TIP3    H253536   3.855   6.859   7.781 -0.2451  0.4885  0.3746
 9781TIP3   OH253537   2.278   0.277   9.978 -0.6623 -0.0653  0.0997
 9781TIP3    H153538   2.335   0.292   9.904 -1.5504 -1.4612 -0.9269
 9781TIP3    H253539   2.337   0.261  10.052  0.3924 -2.8796 -1.2036
 9782TIP3   OH253540   1.066   2.143   1.466 -0.3796 -0.2143 -0.0939
 9782TIP3    H153541   1.068   2.236   1.490 -0.9629 -0.2025 -0.0822
 9782TIP3    H253542   1.075   2.096   1.549  0.6703 -0.1731 -0.1744
 9783TIP3   OH253543   3.650   6.282   8.017  0.1742 -0.8478  0.5681
 9783TIP3    H153544   3.568   6.244   8.048 -0.6969  1.2706  1.0723
 9783TIP3    H253545   3.705   6.287   8.096 -0.2945  0.2571  0.8536
 9784TIP3   OH253546   6.314   6.961   0.692  0.5911 -0.6313 -0.5158
 9784TIP3    H153547   6.380   6.938   0.626  0.8304  1.9743 -1.2866
 9784TIP3    H253548   6.262   7.030   0.652  0.4877  0.7941  1.8635
 9785TIP3   OH253549   5.365   3.775   1.266  0.3942 -0.0122 -0.2693
 9785TIP3    H153550   5.315   3.699   1.296  0.6462 -0.2807 -0.5222
 9785TIP3    H253551   5.309   3.850   1.286  0.8046 -0.1209  1.4171
 9786TIP3   OH253552   0.479   1.254   7.614 -0.0250 -0.1963  0.1991
 9786TIP3    H153553   0.559   1.305   7.630  0.6019 -0.8808 -0.6268
 9786TIP3    H253554   0.488   1.225   7.523 -0.9921 -0.6927  0.2588
 9787TIP3   OH253555   0.131   3.432   9.652  0.2809  0.6622 -0.5744
 9787TIP3    H153556   0.183   3.423   9.572  2.1021 -0.2850  0.6283
 9787TIP3    H253557   0.158   3.358   9.707 -2.3067  0.1925  0.1970
 9788TIP3   OH253558   3.880   0.382   7.765  0.3811  0.8080  0.3105
 9788TIP3    H153559   3.829   0.417   7.692 -2.2517  1.3550  2.2398
 9788TIP3    H253560   3.938   0.454   7.790 -0.5624  1.5805  0.3425
 9789TIP3   OH253561   2.293   2.617   9.486 -0.7075 -0.4854  0.4891
 9789TIP3    H153562   2.370   2.668   9.462 -0.9235 -0.8522 -1.0921
 9789TIP3    H253563   2.321   2.564   9.560 -0.3603  1.6135  1.9281
 9790TIP3   OH253564   5.254   2.182   1.102  0.1172  0.1174 -0.0808
 9790TIP3    H153565   5.172   2.136   1.084  1.3840 -1.8487 -1.2891
 9790TIP3    H253566   5.253   2.258   1.044 -0.6688 -0.1104 -0.3709
 9791TIP3   OH253567   1.115   6.156   9.242  0.2442  0.1760  0.2372
 9791TIP3    H153568   1.085   6.092   9.306 -0.5524  0.6427  0.3396
 9791TIP3    H253569   1.192   6.116   9.202 -0.3677 -0.9390  0.1519
 9792TIP3   OH253570   1.868   6.229   9.492 -0.0155 -0.3273  0.1479
 9792TIP3    H153571   1.794   6.170   9.504 -0.4694  0.0977 -0.5267
 9792TIP3    H253572   1.854   6.268   9.406  0.2502  0.8003  0.5991
 9793TIP3   OH253573   0.803   5.959   7.171  0.1488  0.3405 -0.0517
 9793TIP3    H153574   0.826   6.026   7.236 -0.5905  0.8583 -0.3097
 9793TIP3    H253575   0.786   5.880   7.222  2.4891 -0.1160  0.1725
 9794TIP3   OH253576   3.357   3.144   1.656 -0.1650 -0.4671 -0.0463
 9794TIP3    H153577   3.439   3.097   1.638 -0.0214 -0.4804  0.6161
 9794TIP3    H253578   3.330   3.180   1.572 -0.0669 -1.4128 -0.4933
 9795TIP3   OH253579   6.724   3.887   2.045 -0.6139 -0.2894 -0.1528
 9795TIP3    H153580   6.752   3.874   2.136 -1.0240 -1.1040 -0.1333
 9795TIP3    H253581   6.650   3.828   2.034 -0.5972 -0.1661 -1.0107
 9796TIP3   OH253582   6.267   4.254   9.113 -0.5162  0.2539  0.0449
 9796TIP3    H153583   6.229   4.261   9.200 -1.0816  0.9511 -0.2448
 9796TIP3    H253584   6.191   4.255   9.054 -0.1035  0.5372 -0.4877
 9797TIP3   OH253585   4.733   4.040   7.781 -0.2142  0.2389 -0.9869
 9797TIP3    H153586   4.704   3.960   7.736 -0.6629  0.1347 -0.5288
 9797TIP3    H253587   4.785   4.009   7.854 -0.0044  0.3836 -1.0752
 9798TIP3   OH253588   6.157   7.354   8.894 -0.0479 -0.3661 -0.1354
 9798TIP3    H153589   6.194   7.421   8.952 -0.6232  1.2649 -1.5770
 9798TIP3    H253590   6.230   7.296   8.874  0.8114  0.6194  0.0732
 9799TIP3   OH253591   2.821   3.221   8.310 -0.1741 -0.2168  0.5090
 9799TIP3    H153592   2.799   3.210   8.218 -1.9389  1.7394  0.6106
 9799TIP3    H253593   2.802   3.313   8.328  1.2937 -0.2492  2.5432
 9800TIP3   OH253594   1.214   0.681   1.943 -0.3503  0.2645 -0.3481
 9800TIP3    H153595   1.251   0.675   2.031 -1.2017  1.6349  0.1305
 9800TIP3    H253596   1.231   0.595   1.904  0.1786 -0.3120  1.0906
 9801TIP3   OH253597   3.088   6.950   0.712 -0.1140 -0.7163 -0.2408
 9801TIP3    H153598   3.032   6.991   0.646  2.8389  0.6410 -2.1343
 9801TIP3    H253599   3.125   6.874   0.668 -1.3915 -2.3973  1.4382
 9802TIP3   OH253600   4.739   4.471   0.873  0.2748  0.1439  0.3718
 9802TIP3    H153601   4.800   4.420   0.926 -0.9680 -0.6037  1.1345
 9802TIP3    H253602   4.795   4.524   0.817  1.6546 -2.0850 -0.5052
 9803TIP3   OH253603   4.548   4.823   8.534  0.5429 -0.4715  0.3041
 9803TIP3    H153604   4.566   4.917   8.541 -1.4962 -0.1640  2.7220
 9803TIP3    H253605   4.470   4.810   8.587 -0.4090 -3.2494 -1.6045
 9804TIP3   OH253606   1.096   1.919   9.734  0.3098  0.5872  0.4404
 9804TIP3    H153607   1.175   1.887   9.775 -0.6267  0.9813  2.6779
 9804TIP3    H253608   1.035   1.845   9.738  0.6597  0.0884 -1.7888
 9805TIP3   OH253609   2.741   7.450   8.467 -0.1237 -0.4883 -0.0657
 9805TIP3    H153610   2.774   7.456   8.556  0.1460 -0.6882 -0.1509
 9805TIP3    H253611   2.794   7.383   8.426 -0.0076 -0.1452 -0.4847
 9806TIP3   OH253612   5.955   0.833   2.042 -0.5499 -0.5119  0.1686
 9806TIP3    H153613   5.991   0.891   2.109 -1.1828 -0.3469  0.3686
 9806TIP3    H253614   5.866   0.864   2.028  0.1126  0.5996 -2.0653
 9807TIP3   OH253615   2.455   5.738   2.210 -0.2205  0.0193  0.8199
 9807TIP3    H153616   2.496   5.766   2.128 -1.4583 -2.6984 -0.8724
 9807TIP3    H253617   2.469   5.811   2.270  4.0586  0.6501 -0.6003
 9808TIP3   OH253618   7.108   3.034   0.391  0.5219 -0.5351  0.0407
 9808TIP3    H153619   7.058   3.100   0.344 -0.6622 -0.1948  1.6646
 9808TIP3    H253620   7.045   2.963   0.406  1.1952 -1.1296  0.1077
 9809TIP3   OH253621   3.176   6.973   8.847  0.7993  0.5066 -0.2316
 9809TIP3    H153622   3.197   7.003   8.935  1.0043 -0.1217 -0.0655
 9809TIP3    H253623   3.093   6.926   8.857  0.9479  0.2207 -0.3265
 9810TIP3   OH253624   3.428   2.406   9.640 -0.1356  0.2893 -0.1195
 9810TIP3    H153625   3.465   2.318   9.635 -1.8919 -0.4475 -0.9830
 9810TIP3    H253626   3.464   2.443   9.721 -0.2908 -1.6756  0.9056
 9811TIP3   OH253627   2.410   6.916   3.281 -0.2741 -0.1312  0.0894
 9811TIP3    H153628   2.319   6.939   3.264  0.0125 -0.8202 -2.7497
 9811TIP3    H253629   2.412   6.820   3.280  0.5475 -0.1187 -0.3590
 9812TIP3   OH253630   7.403   3.177   0.778 -0.2566 -0.0535 -0.0305
 9812TIP3    H153631   7.441   3.260   0.808 -0.4767 -0.7430  2.3473
 9812TIP3    H253632   7.468   3.111   0.802 -1.2846 -0.8477  0.6363
 9813TIP3   OH253633   3.827   0.938   8.289 -0.5543  0.2729 -0.0036
 9813TIP3    H153634   3.854   0.910   8.376 -2.9428  2.9701  1.7548
 9813TIP3    H253635   3.746   0.890   8.272 -0.2685 -0.0023 -0.6415
 9814TIP3   OH253636   4.962   7.251   2.457 -0.0668  0.5331  0.1212
 9814TIP3    H153637   4.904   7.258   2.381 -1.7972 -1.3277  1.1835
 9814TIP3    H253638   4.941   7.329   2.509 -1.4744  0.0163  0.3655
 9815TIP3   OH253639   6.218   7.006   9.366 -0.3365  0.1341  0.1207
 9815TIP3    H153640   6.268   7.050   9.298  1.2287 -0.2482  0.9841
 9815TIP3    H253641   6.206   6.917   9.333  1.8106 -0.5260  0.9720
 9816TIP3   OH253642   5.143   5.059   7.803  0.1014 -0.1549  0.2943
 9816TIP3    H153643   5.085   5.135   7.813  2.7998  1.8585  2.9520
 9816TIP3    H253644   5.152   5.048   7.708 -0.9927  2.4445 -0.2166
 9817TIP3   OH253645   2.789   3.837   1.237 -0.1117  0.0800  0.0303
 9817TIP3    H153646   2.852   3.884   1.183 -1.2952  0.0648 -1.4630
 9817TIP3    H253647   2.813   3.857   1.327  1.3602  0.9036 -0.5238
 9818TIP3   OH253648   3.313   6.425   0.721  0.3058 -0.1536 -0.8220
 9818TIP3    H153649   3.280   6.369   0.651 -1.5241  0.2665 -0.3504
 9818TIP3    H253650   3.318   6.367   0.797 -0.6707  0.0896 -0.5656
 9819TIP3   OH253651   2.847   5.514   0.792 -0.0141 -0.2012 -0.0627
 9819TIP3    H153652   2.914   5.448   0.779 -0.3940 -0.4052 -1.1447
 9819TIP3    H253653   2.895   5.597   0.795  0.1814 -0.0396 -3.5701
 9820TIP3   OH253654   3.886   4.221   1.376 -0.3826 -0.0809 -0.3378
 9820TIP3    H153655   3.966   4.203   1.327 -0.5386 -2.3872  0.1254
 9820TIP3    H253656   3.816   4.180   1.325 -1.1838  1.2632 -0.3672
 9821TIP3   OH253657   3.372   3.105   1.974  0.6703  0.4049 -0.4382
 9821TIP3    H153658   3.387   3.037   2.039  2.1424  0.2527 -0.9054
 9821TIP3    H253659   3.417   3.074   1.895 -1.5354  0.3232 -1.7466
 9822TIP3   OH253660   1.117   6.806   9.713  0.1722  0.0489  0.4026
 9822TIP3    H153661   1.147   6.768   9.630 -0.4512  0.0276  0.1843
 9822TIP3    H253662   1.196   6.845   9.751  0.2509  1.0377 -0.7394
 9823TIP3   OH253663   1.002   3.692   2.176  0.0563  0.4152 -0.0261
 9823TIP3    H153664   1.006   3.606   2.218  0.5885 -0.1629 -1.2180
 9823TIP3    H253665   0.981   3.673   2.085  0.2461  1.5448 -0.3177
 9824TIP3   OH253666   0.652   1.456   7.499  0.0748  0.4074 -0.2416
 9824TIP3    H153667   0.646   1.549   7.478 -0.0499  0.0671 -1.8172
 9824TIP3    H253668   0.582   1.415   7.447 -2.7969 -0.1336  3.5521
 9825TIP3   OH253669   5.054   1.213   1.252 -0.3650 -0.0705 -0.4542
 9825TIP3    H153670   4.960   1.193   1.249 -0.2788 -1.0753  1.4274
 9825TIP3    H253671   5.087   1.158   1.324  1.5310  0.7981 -0.6105
 9826TIP3   OH253672   3.191   1.272   1.495 -0.0604 -0.3335 -0.1629
 9826TIP3    H153673   3.168   1.350   1.545 -1.5282 -0.5646 -0.4490
 9826TIP3    H253674   3.271   1.239   1.537  1.2102  1.8786 -0.6914
 9827TIP3   OH253675   0.414   2.164   7.421  0.3539 -0.0592 -0.0545
 9827TIP3    H153676   0.385   2.076   7.445  0.7982 -0.1642  0.1230
 9827TIP3    H253677   0.492   2.149   7.367 -0.2097  0.1948 -0.9673
 9828TIP3   OH253678   4.607   5.504   2.131  0.5300 -0.3658  0.1203
 9828TIP3    H153679   4.592   5.581   2.186  0.4525 -1.9999  2.5146
 9828TIP3    H253680   4.652   5.442   2.188 -0.3469 -2.5065 -1.3977
 9829TIP3   OH253681   6.739   5.746   8.280  0.7188 -0.2467  0.4671
 9829TIP3    H153682   6.806   5.747   8.349  1.0896 -1.6121  0.1665
 9829TIP3    H253683   6.788   5.723   8.200 -0.1822 -1.9092  0.3592
 9830TIP3   OH253684   7.000   2.978   0.782  0.6140  0.0351  0.7198
 9830TIP3    H153685   6.929   2.976   0.846  0.8890 -1.3139  1.0137
 9830TIP3    H253686   7.044   3.062   0.798  0.6756 -0.2779  2.3167
 9831TIP3   OH253687   1.152   4.083   9.281  0.6987  0.1682  0.2662
 9831TIP3    H153688   1.122   4.114   9.367  1.6174 -1.1752  1.1064
 9831TIP3    H253689   1.088   4.017   9.256 -0.0299  1.1210 -0.5117
 9832TIP3   OH253690   4.722   0.068   1.113 -0.3692 -0.2048  0.2866
 9832TIP3    H153691   4.817   0.079   1.116 -0.4065  0.0089  0.7698
 9832TIP3    H253692   4.699   0.079   1.021  0.1156 -0.6190  0.1152
 9833TIP3   OH253693   1.674   2.066   0.843 -0.5760 -0.3396  0.1173
 9833TIP3    H153694   1.701   1.974   0.841 -1.6347 -0.6525 -0.1677
 9833TIP3    H253695   1.635   2.081   0.757 -0.5167  0.3477  0.2049
 9834TIP3   OH253696   0.368   4.980   2.594 -0.0191 -0.1599 -0.1348
 9834TIP3    H153697   0.354   5.052   2.655 -0.6778 -0.4168  0.0177
 9834TIP3    H253698   0.281   4.957   2.562  0.2845 -0.2473 -0.9249
 9835TIP3   OH253699   7.436   3.850   2.871  0.2313 -0.1347 -0.1825
 9835TIP3    H153700   7.406   3.933   2.909  0.2588  0.8414 -2.1710
 9835TIP3    H253701   7.532   3.857   2.873  0.2357 -0.1889 -0.2134
 9836TIP3   OH253702   2.503   3.915   7.439 -0.1267  0.0273 -0.3218
 9836TIP3    H153703   2.421   3.880   7.406 -0.3842 -1.2865  1.5691
 9836TIP3    H253704   2.479   3.965   7.517  0.5886  1.9937 -1.3004
 9837TIP3   OH253705   1.839   5.557   6.518  0.0108  0.5426  0.0333
 9837TIP3    H153706   1.892   5.479   6.503 -1.1208 -0.5885  1.6704
 9837TIP3    H253707   1.766   5.549   6.457 -0.1664  0.2839  0.2838
 9838TIP3   OH253708   3.669   2.111   1.564  0.4795  0.3672  0.5351
 9838TIP3    H153709   3.618   2.058   1.625  1.1858 -1.5242 -0.4470
 9838TIP3    H253710   3.604   2.148   1.504 -0.0614  1.0219  1.4915
 9839TIP3   OH253711   5.368   6.693   8.094 -0.2305 -0.3779  0.6265
 9839TIP3    H153712   5.318   6.614   8.070 -1.9903  1.0627 -0.7190
 9839TIP3    H253713   5.458   6.672   8.069 -1.2800 -0.4922 -4.0138
 9840TIP3   OH253714   1.230   3.569   0.930 -0.4239 -0.3262  0.2229
 9840TIP3    H153715   1.139   3.539   0.928 -0.3546 -0.6844  1.3920
 9840TIP3    H253716   1.278   3.502   0.883 -0.6036 -0.7891  0.6879
 9841TIP3   OH253717   0.948   4.165   8.947 -0.0685 -0.1523  0.2189
 9841TIP3    H153718   0.982   4.193   9.031  1.2148  1.2198 -0.7103
 9841TIP3    H253719   0.986   4.225   8.884 -2.1800 -0.1726 -1.2028
 9842TIP3   OH253720   0.387   3.290   0.793 -0.6072 -0.1846  0.1993
 9842TIP3    H153721   0.475   3.259   0.814 -1.1120 -1.6225  0.2524
 9842TIP3    H253722   0.353   3.226   0.730 -1.3425  0.7740 -0.4117
 9843TIP3   OH253723   3.611   6.077   9.688  0.0257  0.3120 -0.1942
 9843TIP3    H153724   3.553   6.150   9.707 -0.1371 -0.1222  1.0780
 9843TIP3    H253725   3.622   6.079   9.593  0.3206  2.2061 -0.1666
 9844TIP3   OH253726   1.743   5.515   8.655  0.1397 -0.1817 -0.2051
 9844TIP3    H153727   1.679   5.558   8.598  3.0638  2.3399 -1.9202
 9844TIP3    H253728   1.751   5.573   8.730  1.1854  0.2050 -0.5884
 9845TIP3   OH253729   5.128   4.087   8.662  0.8636  0.8472  0.7602
 9845TIP3    H153730   5.167   4.174   8.656  1.1014  0.7669  1.0766
 9845TIP3    H253731   5.046   4.101   8.709  0.2185  1.1008 -0.4040
 9846TIP3   OH253732   2.331   5.309   6.013 -0.1717 -0.4007 -0.0794
 9846TIP3    H153733   2.381   5.389   6.025 -1.1282  0.2529 -0.3449
 9846TIP3    H253734   2.241   5.334   6.032 -0.3869 -1.6005  0.6091
 9847TIP3   OH253735   1.803   4.428   6.949  0.1944 -0.8560  0.4130
 9847TIP3    H153736   1.884   4.384   6.923  1.2791  0.7098  0.9664
 9847TIP3    H253737   1.788   4.494   6.881 -0.7080 -1.2335  0.2377
 9848TIP3   OH253738   0.914   2.729   6.840  0.3946  0.0621  0.2030
 9848TIP3    H153739   0.843   2.790   6.859  0.3091  0.2431 -0.6523
 9848TIP3    H253740   0.993   2.781   6.848  0.2469  0.7729 -2.1691
 9849TIP3   OH253741   0.947   4.901   0.155  0.3523  0.4863 -0.4233
 9849TIP3    H153742   0.983   4.947   0.230 -2.0862 -1.4686  2.1638
 9849TIP3    H253743   0.990   4.816   0.155 -2.3023 -1.0172  1.3485
 9850TIP3   OH253744   3.345   3.669   8.613  0.0124  0.6459  0.2005
 9850TIP3    H153745   3.362   3.577   8.636 -0.5514  0.5651  0.2975
 9850TIP3    H253746   3.386   3.718   8.684  1.5485  0.5373 -0.5578
 9851TIP3   OH253747   1.738   1.925   0.012  0.3357 -0.2551 -0.1572
 9851TIP3    H153748   1.757   1.842   0.055 -0.8454 -0.7978 -0.6481
 9851TIP3    H253749   1.809   1.936  -0.051  1.1052 -0.3281  0.6840
 9852TIP3   OH253750   1.372   4.683   6.603  0.2448 -0.4838 -0.1355
 9852TIP3    H153751   1.343   4.639   6.523  0.3972  1.1367 -1.1204
 9852TIP3    H253752   1.465   4.703   6.587  0.6942 -1.4444  1.0681
 9853TIP3   OH253753   6.177   5.027   0.830 -0.6567 -0.1562  0.0350
 9853TIP3    H153754   6.135   5.022   0.744 -3.1044  2.9945  0.8123
 9853TIP3    H253755   6.106   5.012   0.892  0.8066 -1.1672  1.5509
 9854TIP3   OH253756   3.686   4.466   6.993 -0.1499  0.0274  0.0303
 9854TIP3    H153757   3.686   4.389   7.050 -1.1240 -0.7667 -0.9947
 9854TIP3    H253758   3.684   4.541   7.053 -0.8318 -0.7812  1.0445
 9855TIP3   OH253759   0.279   3.671   2.326 -0.5260  0.6428 -0.3593
 9855TIP3    H153760   0.335   3.650   2.401  0.7319  1.0046 -1.1496
 9855TIP3    H253761   0.190   3.672   2.361 -0.0974 -0.4838  0.8450
 9856TIP3   OH253762   1.307   4.218   1.112 -0.2889  0.3153 -0.3290
 9856TIP3    H153763   1.304   4.137   1.060  1.1027 -0.0426  0.1119
 9856TIP3    H253764   1.245   4.202   1.183 -0.4248 -0.1379 -0.5386
 9857TIP3   OH253765   1.789   1.584   9.421 -0.5037  0.1305  0.0034
 9857TIP3    H153766   1.806   1.539   9.338  0.2729 -0.0091  0.2376
 9857TIP3    H253767   1.776   1.676   9.396 -0.5877  0.0386 -0.3016
 9858TIP3   OH253768   4.015   5.913   1.579  0.5091  0.1733  0.4989
 9858TIP3    H153769   4.055   5.951   1.502 -0.8518  0.3518 -0.1356
 9858TIP3    H253770   4.001   5.987   1.639  0.3425  0.2417  0.3743
 9859TIP3   OH253771   0.342   0.960   9.767  0.4446 -0.9345 -0.3829
 9859TIP3    H153772   0.351   0.867   9.744 -0.7283 -1.1473 -0.0657
 9859TIP3    H253773   0.414   1.003   9.721  2.9733 -2.3709  1.9182
 9860TIP3   OH253774   4.100   5.841   9.408  0.5669 -0.0486  0.5481
 9860TIP3    H153775   4.030   5.776   9.406 -0.7785  1.3691  0.3753
 9860TIP3    H253776   4.138   5.839   9.320  1.4310 -1.4974  0.9158
 9861TIP3   OH253777   4.064   6.463   1.508  0.0940  0.2656 -0.0360
 9861TIP3    H153778   4.059   6.474   1.413  0.0906  0.0166 -0.0628
 9861TIP3    H253779   4.091   6.550   1.540  1.3945  0.0042 -0.3753
 9862TIP3   OH253780   6.873   3.847   0.668 -0.5787  0.6222  0.5123
 9862TIP3    H153781   6.901   3.798   0.745  1.5245  1.6799  0.4987
 9862TIP3    H253782   6.823   3.784   0.616  0.7456 -1.0693  1.1926
 9863TIP3   OH253783   3.422   4.254   2.633  0.1415 -0.3026 -0.4399
 9863TIP3    H153784   3.395   4.214   2.716  0.4292 -0.2689 -0.3311
 9863TIP3    H253785   3.369   4.209   2.567 -0.0503 -0.3666 -0.2450
 9864TIP3   OH253786   3.894   3.380   0.058  0.1958  0.3257 -0.2965
 9864TIP3    H153787   3.945   3.419   0.130 -0.1051  1.0708 -0.4746
 9864TIP3    H253788   3.852   3.455   0.016  0.1210 -0.1402 -1.0591
 9865TIP3   OH253789   1.397   6.276   7.268  0.4110 -0.1582  0.8023
 9865TIP3    H153790   1.476   6.283   7.321  1.7772  1.3763 -1.2844
 9865TIP3    H253791   1.368   6.366   7.255 -1.3507 -0.6589  0.9929
 9866TIP3   OH253792   3.117   2.809   0.915  0.1408 -0.1460 -0.0280
 9866TIP3    H153793   3.033   2.803   0.960  0.3360  2.4578  0.8449
 9866TIP3    H253794   3.111   2.746   0.844 -2.9893  0.7046 -0.6534
 9867TIP3   OH253795   7.358   2.459   8.641  0.9853 -0.0221  0.1252
 9867TIP3    H153796   7.431   2.448   8.580  2.0393  0.9492  1.1677
 9867TIP3    H253797   7.348   2.554   8.649 -0.1649 -0.1486  0.2784
 9868TIP3   OH253798   2.738   6.076   6.434  0.3467  0.0011  0.6653
 9868TIP3    H153799   2.679   6.141   6.397 -0.0709  0.3070  1.8293
 9868TIP3    H253800   2.820   6.124   6.448  1.1970 -0.6348 -1.7415
 9869TIP3   OH253801   0.968   2.404   8.718  0.0594 -0.6031  0.0924
 9869TIP3    H153802   0.959   2.383   8.811  0.4953 -1.4849 -0.0472
 9869TIP3    H253803   0.887   2.448   8.695 -0.5860 -1.4888  0.6080
 9870TIP3   OH253804   1.571   7.327   0.312  0.2809 -0.2158 -0.4070
 9870TIP3    H153805   1.535   7.284   0.235 -1.1181 -0.1292  0.1773
 9870TIP3    H253806   1.608   7.409   0.278 -1.4418  0.4187 -0.8380
 9871TIP3   OH253807   6.035   1.225   9.169  0.0857  0.0925 -0.1592
 9871TIP3    H153808   5.965   1.244   9.231 -0.0348  1.3119 -0.6536
 9871TIP3    H253809   6.018   1.136   9.140 -2.6247  1.1229 -2.0189
 9872TIP3   OH253810   0.540   0.707   1.845 -0.5190  0.0316 -0.0475
 9872TIP3    H153811   0.445   0.703   1.832 -0.6712 -1.2606  1.2138
 9872TIP3    H253812   0.572   0.759   1.771 -2.3120  1.5254  0.1553
 9873TIP3   OH253813   5.627   2.086   8.177 -0.1880 -0.0075 -0.4514
 9873TIP3    H153814   5.632   2.146   8.102 -0.4456  0.9577  0.2947
 9873TIP3    H253815   5.690   2.119   8.240  1.7358 -2.1527 -1.1220
 9874TIP3   OH253816   0.409   4.025   9.318  0.3657 -0.1162 -0.1808
 9874TIP3    H153817   0.443   4.013   9.230 -1.8452  1.0858 -1.2710
 9874TIP3    H253818   0.352   3.949   9.332  0.6759 -0.2797  0.2281
 9875TIP3   OH253819   4.852   1.742   1.758  0.2954 -0.3873  0.0601
 9875TIP3    H153820   4.792   1.810   1.789 -0.3085 -0.5563 -0.7144
 9875TIP3    H253821   4.916   1.732   1.829  0.0073  0.5206  0.4549
 9876TIP3   OH253822   0.337   1.996   8.895 -0.0241  0.3168 -0.5608
 9876TIP3    H153823   0.250   2.033   8.911  0.0163 -0.3573  1.5631
 9876TIP3    H253824   0.323   1.924   8.833 -1.0555 -0.0421  0.0779
 9877TIP3   OH253825   3.753   2.372   9.666 -0.4837 -0.0126  0.2468
 9877TIP3    H153826   3.792   2.378   9.579  1.4397 -0.2657  1.0443
 9877TIP3    H253827   3.685   2.305   9.658  0.7206 -1.1617 -0.7126
 9878TIP3   OH253828   3.052   0.052   9.364  0.2187  0.6025  0.3112
 9878TIP3    H153829   3.020  -0.021   9.312  0.6752  1.3845 -1.1439
 9878TIP3    H253830   2.977   0.080   9.416 -0.2454 -0.2364  0.1045
 9879TIP3   OH253831   1.820   6.137   3.581  0.1395  0.2857  0.1526
 9879TIP3    H153832   1.863   6.056   3.609 -0.0419 -0.3335 -1.2476
 9879TIP3    H253833   1.892   6.195   3.554  0.1997 -0.9413 -2.6963
 9880TIP3   OH253834   2.052   5.974   9.667 -0.0109  0.1988  0.2566
 9880TIP3    H153835   2.122   6.017   9.619  1.5585 -0.1879  2.0458
 9880TIP3    H253836   2.095   5.901   9.712 -1.7369 -0.5746  0.7488
 9881TIP3   OH253837   3.995   7.028   1.471 -0.0242  0.5620  0.4350
 9881TIP3    H153838   3.977   6.962   1.404  0.9925 -1.4988  2.0573
 9881TIP3    H253839   4.089   7.020   1.487 -0.0471  1.7902  1.3203
 9882TIP3   OH253840   2.797   1.227   8.535  0.1056  0.0768 -0.3300
 9882TIP3    H153841   2.762   1.196   8.452  0.2860  1.8957 -1.1322
 9882TIP3    H253842   2.763   1.316   8.543  2.7054  1.1070 -0.0477
 9883TIP3   OH253843   5.707   7.331   9.214  0.3357 -0.6535  0.8837
 9883TIP3    H153844   5.661   7.301   9.292  0.5035 -1.5432  0.6457
 9883TIP3    H253845   5.673   7.277   9.143 -0.5083  0.7772  0.1425
 9884TIP3   OH253846   3.063   0.930   1.145 -0.7901  0.1756 -0.3146
 9884TIP3    H153847   3.142   0.970   1.184  0.1028 -0.4277 -1.4523
 9884TIP3    H253848   3.059   0.966   1.057  0.8702 -3.1391 -1.9436
 9885TIP3   OH253849   0.079   2.487   2.562  0.4959  0.0028  0.1396
 9885TIP3    H153850   0.154   2.440   2.598  0.7122  0.0737 -0.2202
 9885TIP3    H253851   0.072   2.566   2.616  0.3199 -0.2847  0.5483
 9886TIP3   OH253852   7.109   6.819   7.121  0.3054  0.5139  0.7187
 9886TIP3    H153853   7.192   6.844   7.162  1.8293 -1.8578 -0.6967
 9886TIP3    H253854   7.133   6.754   7.055 -2.4443  1.3465 -1.3141
 9887TIP3   OH253855   4.498   1.985   0.253 -0.0995  0.7015 -0.5761
 9887TIP3    H153856   4.451   1.913   0.296  0.8876  0.0180 -0.6142
 9887TIP3    H253857   4.428   2.045   0.226 -1.2501 -1.5083 -2.9611
 9888TIP3   OH253858   1.410   5.095   6.839 -0.6474  0.0888 -0.1917
 9888TIP3    H153859   1.382   5.067   6.752 -0.5964  2.4840 -1.0608
 9888TIP3    H253860   1.486   5.151   6.823  0.2315 -0.5532  1.5407
 9889TIP3   OH253861   3.909   1.822   0.447  0.2958 -0.6082 -0.5290
 9889TIP3    H153862   3.963   1.841   0.369  2.2903 -0.8074  0.7294
 9889TIP3    H253863   3.858   1.745   0.423 -0.7672  0.5847 -2.3635
 9890TIP3   OH253864   6.871   7.135   9.838 -0.2906  0.4694 -0.6574
 9890TIP3    H153865   6.864   7.195   9.912 -1.5811 -1.4506  0.8650
 9890TIP3    H253866   6.965   7.131   9.820  0.4772 -1.2914  2.9251
 9891TIP3   OH253867   3.098   2.573   9.304  0.3560  0.1766 -0.1883
 9891TIP3    H153868   3.171   2.606   9.251 -1.1373  0.9867 -1.8433
 9891TIP3    H253869   3.087   2.639   9.373  1.5448 -0.2635  0.4427
 9892TIP3   OH253870   2.707   4.000   7.252 -0.5733  0.1234 -0.1568
 9892TIP3    H153871   2.700   3.925   7.192  2.6077 -1.4857  1.2064
 9892TIP3    H253872   2.660   3.972   7.331  2.2071 -1.4754  1.0893
 9893TIP3   OH253873   4.630   4.816   9.416  0.4806  0.3222 -0.0254
 9893TIP3    H153874   4.646   4.843   9.325  3.0486  1.8772  0.7969
 9893TIP3    H253875   4.658   4.891   9.469 -0.4808 -0.7335  2.1040
 9894TIP3   OH253876   2.688   2.721   7.133  0.4587  0.4012  0.0884
 9894TIP3    H153877   2.648   2.802   7.163 -1.0158 -0.6122  0.9301
 9894TIP3    H253878   2.740   2.748   7.056 -1.5679  1.8265 -0.8787
 9895TIP3   OH253879   1.766   4.726   0.887  0.4265 -0.2699 -0.1773
 9895TIP3    H153880   1.829   4.671   0.934  0.9043  0.6297  0.2563
 9895TIP3    H253881   1.820   4.793   0.845 -0.1619 -0.0579 -0.6008
 9896TIP3   OH253882   5.140   2.201   0.087 -0.3986 -0.1616 -0.3305
 9896TIP3    H153883   5.124   2.177  -0.004 -0.2221 -3.5032  0.3874
 9896TIP3    H253884   5.053   2.205   0.126 -0.4201  0.3635 -0.4214
 9897TIP3   OH253885   2.034   5.400   0.232  0.0454 -0.4933  0.6208
 9897TIP3    H153886   2.061   5.463   0.164 -2.0933  0.1997  0.3499
 9897TIP3    H253887   1.953   5.361   0.198 -1.6228  0.5629  3.1310
 9898TIP3   OH253888   1.535   3.615   2.257 -0.0466  0.1370 -0.1648
 9898TIP3    H153889   1.613   3.560   2.264 -0.8919 -0.9458  1.6407
 9898TIP3    H253890   1.541   3.673   2.332 -1.4606 -0.6664  0.6015
 9899TIP3   OH253891   1.032   4.221   0.280 -0.3764  0.1303  0.8406
 9899TIP3    H153892   1.086   4.185   0.350 -1.0432  0.2816  1.4457
 9899TIP3    H253893   1.076   4.194   0.199  1.1440  1.1023  1.3134
 9900TIP3   OH253894   4.385   5.739   0.829 -0.0493 -0.2226  0.2201
 9900TIP3    H153895   4.439   5.818   0.824  2.9670 -1.8850  2.6413
 9900TIP3    H253896   4.439   5.671   0.788 -2.0823 -1.2924 -0.8228
 9901TIP3   OH253897   7.007   3.753   1.297 -0.0499  0.5872 -0.5292
 9901TIP3    H153898   7.080   3.696   1.275  0.5364  0.3294  1.8103
 9901TIP3    H253899   7.035   3.840   1.266  1.8846  0.7413  1.3345
 9902TIP3   OH253900   7.162   4.082   9.269 -0.0586  0.3469  0.0188
 9902TIP3    H153901   7.116   4.111   9.348  0.9454  1.7041  0.1443
 9902TIP3    H253902   7.252   4.114   9.281  1.1106 -2.6739  0.0244
 9903TIP3   OH253903   5.569   3.382   0.990 -0.0604 -0.0431 -0.4635
 9903TIP3    H153904   5.612   3.468   0.987 -1.8412  0.8857 -0.7286
 9903TIP3    H253905   5.570   3.358   1.082 -0.6890  0.8775 -0.2097
 9904TIP3   OH253906   6.617   6.898   9.343  0.0439 -0.1916 -0.4284
 9904TIP3    H153907   6.594   6.872   9.254 -0.6907  0.3734 -0.4141
 9904TIP3    H253908   6.653   6.819   9.383  1.3119 -0.2112 -1.5205
 9905TIP3   OH253909   4.471   4.959   8.064 -0.1564 -0.2532  0.1394
 9905TIP3    H153910   4.444   4.991   7.977 -0.1556  1.2421  0.6544
 9905TIP3    H253911   4.562   4.932   8.052 -0.4300 -0.9188 -0.5276
 9906TIP3   OH253912   3.587   0.897   9.859  0.0048  0.3550  0.5681
 9906TIP3    H153913   3.547   0.906   9.772  2.1299  0.3766 -0.4517
 9906TIP3    H253914   3.680   0.910   9.845  0.3577  0.9355  2.9793
 9907TIP3   OH253915   1.849   5.546   7.522  0.4696  0.1013  0.3029
 9907TIP3    H153916   1.840   5.620   7.582  0.6704  0.3124  0.0702
 9907TIP3    H253917   1.907   5.485   7.567 -0.6918 -0.4865  1.0524
 9908TIP3   OH253918   2.475   5.264   8.012  0.1872 -0.2662 -0.3775
 9908TIP3    H153919   2.455   5.291   8.101 -1.8322  1.3948 -1.2427
 9908TIP3    H253920   2.552   5.315   7.988 -0.2836  0.5896 -0.1263
 9909TIP3   OH253921   4.818   4.158   0.429  0.1465 -0.0354 -0.1150
 9909TIP3    H153922   4.775   4.160   0.514 -0.8349  0.8968 -0.6044
 9909TIP3    H253923   4.911   4.169   0.448 -0.1925  1.5590  0.7759
 9910TIP3   OH253924   2.306   6.439   1.984  0.1527  0.2761  0.1996
 9910TIP3    H153925   2.401   6.429   1.983  0.0766 -0.4674 -0.2434
 9910TIP3    H253926   2.288   6.508   1.920  0.4239  0.7818  0.6561
 9911TIP3   OH253927   1.670   5.808   3.044  0.2356 -0.0599  0.1934
 9911TIP3    H153928   1.588   5.809   3.093  0.1854 -0.9081  0.1402
 9911TIP3    H253929   1.690   5.715   3.033  2.4338  0.0617  2.2683
 9912TIP3   OH253930   6.344   3.926   7.419  0.1878  0.1895 -0.4433
 9912TIP3    H153931   6.335   4.015   7.384 -1.1556 -0.0044 -0.6523
 9912TIP3    H253932   6.283   3.924   7.494  1.2199 -0.1478  0.4058
 9913TIP3   OH253933   1.740   1.629   0.637  0.6321  0.7460 -0.3689
 9913TIP3    H153934   1.668   1.579   0.599  1.8372 -1.6826  0.3395
 9913TIP3    H253935   1.753   1.589   0.724  1.0282  2.9956  0.6725
 9914TIP3   OH253936   2.005   2.196   8.869  0.3569 -0.2401 -0.3714
 9914TIP3    H153937   1.949   2.138   8.921 -0.5442 -1.3680 -2.4811
 9914TIP3    H253938   1.968   2.283   8.882 -1.6531 -0.8968 -1.3368
 9915TIP3   OH253939   0.206   1.222   9.768 -0.5205 -0.0710 -0.2082
 9915TIP3    H153940   0.208   1.149   9.830  0.9785 -0.2527 -0.4323
 9915TIP3    H253941   0.251   1.189   9.690  0.9387  1.3144 -0.0216
 9916TIP3   OH253942   6.422   2.993   1.077 -0.1285  0.1575 -0.0105
 9916TIP3    H153943   6.364   2.917   1.077  1.3132 -0.9998 -0.2348
 9916TIP3    H253944   6.451   3.000   0.986  1.8248 -0.7435  0.4832
 9917TIP3   OH253945   2.346   2.309   9.024 -0.0941  0.1232 -0.3324
 9917TIP3    H153946   2.378   2.393   9.057 -1.6677  0.7764 -0.4170
 9917TIP3    H253947   2.266   2.330   8.976  0.6279 -1.1539 -2.2334
 9918TIP3   OH253948   2.430   1.803   1.428 -0.1300 -0.0427 -0.1310
 9918TIP3    H153949   2.338   1.818   1.452 -0.0787  3.4209 -1.5516
 9918TIP3    H253950   2.475   1.800   1.512 -1.3102  0.1714  0.5459
 9919TIP3   OH253951   7.230   5.011   9.969  0.4799 -0.0623 -0.1493
 9919TIP3    H153952   7.263   5.089   9.925 -0.0606  0.4123  0.2779
 9919TIP3    H253953   7.157   5.042  10.022  2.2962 -0.2597  2.6364
 9920TIP3   OH253954   5.642   6.124   7.292  0.1451  0.5011 -0.1935
 9920TIP3    H153955   5.624   6.214   7.321  2.0919  1.2830 -1.2800
 9920TIP3    H253956   5.564   6.075   7.319 -1.4631  2.7067 -0.5183
 9921TIP3   OH253957   1.594   4.262   9.924 -0.0906  0.2608  0.2351
 9921TIP3    H153958   1.611   4.186   9.869 -1.5124  0.3410 -0.3731
 9921TIP3    H253959   1.514   4.239   9.971  0.4781  0.6596  1.4320
 9922TIP3   OH253960   3.187   6.308   9.152 -0.1456  0.8189  0.0866
 9922TIP3    H153961   3.261   6.359   9.118  0.3167  0.7918  1.0297
 9922TIP3    H253962   3.178   6.336   9.243  0.7505 -1.4347  0.9638
 9923TIP3   OH253963   5.561   6.776   9.989 -0.1927 -0.3001 -0.4438
 9923TIP3    H153964   5.623   6.787   9.917  0.1807  0.0371 -0.0818
 9923TIP3    H253965   5.478   6.810   9.956 -0.5686 -2.0575 -1.4375
 9924TIP3   OH253966   7.415   2.197   8.635  0.2120  0.5804  0.5187
 9924TIP3    H153967   7.382   2.283   8.660 -1.0346 -0.0520  1.1598
 9924TIP3    H253968   7.338   2.149   8.605  0.8918 -0.3024  0.1058
 9925TIP3   OH253969   3.082   4.874   0.586  0.1017 -0.1491 -0.4298
 9925TIP3    H153970   3.158   4.849   0.639  1.5643  0.9903 -1.8783
 9925TIP3    H253971   3.049   4.954   0.628  0.5855  0.1381 -0.5841
 9926TIP3   OH253972   4.871   4.140   8.042  0.5093 -0.6456 -0.2778
 9926TIP3    H153973   4.824   4.089   8.108  0.8452  0.6191  0.9851
 9926TIP3    H253974   4.848   4.231   8.061  0.4368 -0.2643 -2.0649
 9927TIP3   OH253975   4.092   4.162   2.606  0.1930  0.1116 -0.1260
 9927TIP3    H153976   4.072   4.190   2.517  0.6796 -1.6809 -0.8354
 9927TIP3    H253977   4.147   4.232   2.642  1.3546  0.1026 -1.8068
 9928TIP3   OH253978   6.309   3.054   9.855 -0.2436 -0.1729  0.6840
 9928TIP3    H153979   6.233   3.074   9.909 -0.1147  0.3401  0.6844
 9928TIP3    H253980   6.384   3.065   9.914 -0.0210  1.4923  0.1439
 9929TIP3   OH253981   3.057   0.047   6.861  0.3272 -0.2413 -0.9935
 9929TIP3    H153982   3.146   0.022   6.837  0.1217 -1.2648 -0.7154
 9929TIP3    H253983   3.003   0.019   6.787 -0.0315 -1.5416 -0.2739
 9930TIP3   OH253984   3.273   0.654   9.865  0.5746 -0.4541  0.2496
 9930TIP3    H153985   3.319   0.607   9.796 -0.4099  0.5960 -1.1803
 9930TIP3    H253986   3.250   0.586   9.928  0.1504 -1.7347 -1.2077
 9931TIP3   OH253987   5.658   0.594   9.741  1.1086 -0.1044  0.7268
 9931TIP3    H153988   5.703   0.677   9.727  3.8941 -1.6924 -0.6036
 9931TIP3    H253989   5.587   0.593   9.676  0.6783  1.4075  1.1442
 9932TIP3   OH253990   5.403   4.974   8.247  0.1946  0.4629 -0.2005
 9932TIP3    H153991   5.340   5.014   8.187 -0.8626  1.1933  1.3270
 9932TIP3    H253992   5.389   5.020   8.330  2.2364  0.1272  0.3921
 9933TIP3   OH253993   3.081   2.398   8.766  0.0501  0.1627 -0.5856
 9933TIP3    H153994   3.067   2.307   8.792  1.3426  0.1479  0.1521
 9933TIP3    H253995   3.146   2.431   8.828 -0.2828  1.5553 -0.9341
 9934TIP3   OH253996   2.478   1.268   7.741  0.0294 -0.8458  0.0644
 9934TIP3    H153997   2.557   1.308   7.703 -1.0997  1.4637 -0.0099
 9934TIP3    H253998   2.414   1.270   7.671 -0.2958 -2.1521  0.3083
 9935TIP3   OH253999   1.866   3.847   2.155  0.2102  0.2425 -0.3584
 9935TIP3    H154000   1.774   3.830   2.135  0.0263  0.3336  0.3712
 9935TIP3    H254001   1.915   3.794   2.092 -0.3437 -0.8702  0.1209
 9936TIP3   OH254002   1.508   5.979   0.704 -0.1302 -0.1183  0.1916
 9936TIP3    H154003   1.487   5.978   0.610 -0.1321  2.2532  0.1290
 9936TIP3    H254004   1.463   5.901   0.739 -0.7046 -0.6563 -1.6376
 9937TIP3   OH254005   1.884   3.898   7.455  0.2571  0.0502  0.2648
 9937TIP3    H154006   1.911   3.848   7.532 -0.3057 -2.4505 -1.0768
 9937TIP3    H254007   1.796   3.868   7.436 -0.1152  1.6027 -0.6166
 9938TIP3   OH254008   0.884   5.057   9.050  0.2082 -0.0016  0.0904
 9938TIP3    H154009   0.882   4.964   9.072  2.1925 -0.5582 -1.7543
 9938TIP3    H254010   0.803   5.072   9.001  0.2288 -0.9408 -0.2508
 9939TIP3   OH254011   5.136   0.377   8.042  0.0608 -0.1493 -0.0729
 9939TIP3    H154012   5.224   0.392   8.007 -0.3228  0.8629 -0.6381
 9939TIP3    H254013   5.139   0.288   8.076  1.2377 -0.2126 -0.2898
 9940TIP3   OH254014   0.831   4.017   0.172 -0.1040  0.3509 -0.2612
 9940TIP3    H154015   0.840   4.066   0.090 -0.8925 -0.8169 -1.0857
 9940TIP3    H254016   0.904   3.955   0.170 -0.8242 -0.5169 -0.7222
 9941TIP3   OH254017   2.284   1.712   8.598  0.2065 -0.0111 -0.3006
 9941TIP3    H154018   2.329   1.794   8.615  0.5762 -0.5663  1.6175
 9941TIP3    H254019   2.351   1.654   8.562 -0.1468  0.5981 -2.0478
 9942TIP3   OH254020   0.391   5.118   9.207 -0.2604 -0.3751 -0.8450
 9942TIP3    H154021   0.432   5.120   9.121  0.8338  0.0281 -0.3315
 9942TIP3    H254022   0.464   5.115   9.269 -0.9921  0.4171  0.0961
 9943TIP3   OH254023   0.632   5.834   1.121 -0.0298 -0.2442  0.5115
 9943TIP3    H154024   0.575   5.911   1.113 -0.2789 -0.5048 -0.2686
 9943TIP3    H254025   0.700   5.847   1.056  0.6955 -0.0472  1.2845
 9944TIP3   OH254026   4.096   0.416   1.092 -0.2720 -0.6150  0.7345
 9944TIP3    H154027   4.010   0.459   1.096  0.3406  0.8121 -0.4492
 9944TIP3    H254028   4.148   0.461   1.158  0.1232 -0.1178  0.0926
 9945TIP3   OH254029   4.198   2.337   1.155  0.1983 -0.0933 -0.2645
 9945TIP3    H154030   4.182   2.346   1.249  1.5986  2.3567 -0.1894
 9945TIP3    H254031   4.129   2.388   1.113  0.6314  0.3250 -0.4777
 9946TIP3   OH254032   1.455   4.253   7.458 -0.2642 -0.2666  0.0481
 9946TIP3    H154033   1.402   4.280   7.384  0.7692  1.0113 -0.2773
 9946TIP3    H254034   1.519   4.191   7.421 -0.8758 -1.0307  0.2448
 9947TIP3   OH254035   4.607   4.942   9.178  0.0506 -0.2014 -0.1208
 9947TIP3    H154036   4.688   4.993   9.175 -0.7507  1.0504 -1.9896
 9947TIP3    H254037   4.581   4.931   9.087 -1.0525 -1.9929  0.3536
 9948TIP3   OH254038   1.339   2.546   1.576 -0.1771 -0.3107 -0.2482
 9948TIP3    H154039   1.250   2.512   1.568  0.1117 -0.9188 -1.0596
 9948TIP3    H254040   1.330   2.641   1.564 -0.5825 -0.4954 -1.6327
 9949TIP3   OH254041   3.172   3.732   0.426  0.4295  0.0082  0.3833
 9949TIP3    H154042   3.181   3.717   0.521  1.7058  0.7059  0.3987
 9949TIP3    H254043   3.081   3.759   0.414  0.6952  1.6600  1.6774
 9950TIP3   OH254044   0.269   2.264   2.153  0.2684 -0.0686 -0.9434
 9950TIP3    H154045   0.271   2.234   2.244 -1.9044  0.6698 -0.6064
 9950TIP3    H254046   0.180   2.246   2.123  0.3191  1.5884 -2.2571
 9951TIP3   OH254047   6.205   3.910   1.476 -0.3621 -0.1444  0.4969
 9951TIP3    H154048   6.125   3.911   1.529 -2.1605 -1.4291 -1.9652
 9951TIP3    H254049   6.203   3.992   1.428 -1.7689 -1.2803 -1.5483
 9952TIP3   OH254050   3.709   6.038   0.479 -0.7436 -0.5910 -0.6038
 9952TIP3    H154051   3.774   6.100   0.447 -1.0563 -1.1557 -2.4761
 9952TIP3    H254052   3.642   6.092   0.522  0.4495  0.0637  0.4988
 9953TIP3   OH254053   2.534   1.209   1.959 -0.9601 -0.2682  0.3998
 9953TIP3    H154054   2.589   1.186   1.885 -2.6037  1.3903 -1.4486
 9953TIP3    H254055   2.568   1.157   2.032  2.7367  0.3509 -0.6823
 9954TIP3   OH254056   4.142   4.142   9.500  0.0730 -0.3392  0.5359
 9954TIP3    H154057   4.102   4.152   9.586 -1.8482 -0.0061 -0.3576
 9954TIP3    H254058   4.132   4.048   9.480 -0.4049 -0.2342  0.2620
 9955TIP3   OH254059   6.965   0.744   9.404  0.4080 -0.0989 -0.4330
 9955TIP3    H154060   6.904   0.814   9.380 -0.5479 -1.0388 -0.8640
 9955TIP3    H254061   6.914   0.687   9.462  1.4751  0.0606  0.6973
 9956TIP3   OH254062   1.140   6.691   7.431 -0.0466 -0.1494 -0.5205
 9956TIP3    H154063   1.082   6.621   7.459  1.9267 -1.6200  0.1096
 9956TIP3    H254064   1.145   6.750   7.506 -0.3396 -0.2632 -0.4119
 9957TIP3   OH254065   6.090   4.834   9.751 -0.2144  0.3871 -0.1015
 9957TIP3    H154066   6.055   4.921   9.769  1.4300  1.1660 -0.4389
 9957TIP3    H254067   6.025   4.773   9.786 -1.4515  1.7497  0.0160
 9958TIP3   OH254068   4.558   7.238   0.035  0.0228  0.2768 -0.0400
 9958TIP3    H154069   4.540   7.190   0.116 -1.6649  0.8786 -0.0288
 9958TIP3    H254070   4.613   7.179  -0.016  2.4598  0.4624  2.1308
 9959TIP3   OH254071   0.755   2.591   7.873  0.6789  0.2135 -0.3079
 9959TIP3    H154072   0.810   2.516   7.896  2.2555  1.3606 -0.2011
 9959TIP3    H254073   0.724   2.571   7.784 -1.1005 -1.7420  0.6410
 9960TIP3   OH254074   7.000   6.652   7.736  0.0993 -0.2227 -0.5655
 9960TIP3    H154075   7.007   6.561   7.764 -0.4094 -0.3021 -0.6737
 9960TIP3    H254076   7.074   6.665   7.678 -0.3456 -0.8555 -1.3001
 9961TIP3   OH254077   5.129   3.098   2.000 -0.5149 -0.3017 -0.3210
 9961TIP3    H154078   5.048   3.052   1.978 -3.0018  1.7977  3.4009
 9961TIP3    H254079   5.164   3.050   2.075 -1.2683  1.7172  1.4111
 9962TIP3   OH254080   0.998   0.562   6.810 -0.3429 -0.3127 -1.1306
 9962TIP3    H154081   1.054   0.639   6.811 -1.3025  0.4395  1.1464
 9962TIP3    H254082   0.920   0.590   6.762 -0.4878 -0.0243 -0.7275
 9963TIP3   OH254083   2.284   4.904   1.040 -0.2626 -0.3928  0.3927
 9963TIP3    H154084   2.318   4.824   0.999 -1.4688 -1.8132  2.0230
 9963TIP3    H254085   2.219   4.937   0.978 -0.7009 -1.4328  0.2853
 9964TIP3   OH254086   6.398   6.804   1.648  0.2154  0.2916  0.3797
 9964TIP3    H154087   6.460   6.839   1.584  0.3962 -1.2093 -0.2950
 9964TIP3    H254088   6.313   6.812   1.605  0.0997  0.9823  0.7155
 9965TIP3   OH254089   4.872   4.070   8.801  0.3149 -0.0274  0.4431
 9965TIP3    H154090   4.791   4.027   8.773  0.3391 -0.0416  0.3944
 9965TIP3    H254091   4.902   4.018   8.877  0.5115 -0.2886  0.1900
 9966TIP3   OH254092   4.994   0.348   1.688  0.1200 -0.5000  0.6069
 9966TIP3    H154093   4.999   0.442   1.702 -0.7591 -0.2029 -0.8825
 9966TIP3    H254094   5.086   0.319   1.688  0.4922  0.6110 -0.4553
 9967TIP3   OH254095   3.495   3.387   1.333 -0.4695 -0.1260  0.1586
 9967TIP3    H154096   3.508   3.292   1.332  0.9043  0.0415 -0.6255
 9967TIP3    H254097   3.568   3.422   1.281 -1.1824  1.3356  0.0823
 9968TIP3   OH254098   1.559   3.858   6.347  0.5289 -0.2298 -0.3381
 9968TIP3    H154099   1.583   3.913   6.422  0.3100 -2.0645  1.1617
 9968TIP3    H254100   1.500   3.913   6.295  0.1772  0.8917  1.1687
 9969TIP3   OH254101   6.197   3.526   9.739 -0.1234 -0.3754  0.0063
 9969TIP3    H154102   6.193   3.541   9.833 -0.2126 -1.8365  0.2588
 9969TIP3    H254103   6.107   3.538   9.709  0.2556  2.4648 -0.3520
 9970TIP3   OH254104   6.537   2.100   1.495 -0.3132  0.2954 -0.2900
 9970TIP3    H154105   6.446   2.078   1.513 -1.2946  3.4551 -0.7949
 9970TIP3    H254106   6.548   2.084   1.402 -0.3510  0.0058 -0.2469
 9971TIP3   OH254107   1.366   5.129   1.941  0.1715 -0.3876 -0.3670
 9971TIP3    H154108   1.325   5.091   2.019 -0.7983 -0.1335 -0.7469
 9971TIP3    H254109   1.395   5.216   1.968 -4.3417  1.7037 -1.4315
 9972TIP3   OH254110   4.869   4.648   1.808  0.1914 -0.0225  0.5268
 9972TIP3    H154111   4.815   4.572   1.830  0.6957 -0.1976  1.1906
 9972TIP3    H254112   4.857   4.660   1.713  0.1136 -0.9312  0.4164
 9973TIP3   OH254113   2.505   5.664   7.393 -0.3161 -0.0785  0.1970
 9973TIP3    H154114   2.436   5.631   7.450 -0.6905  0.0546 -0.1812
 9973TIP3    H254115   2.544   5.736   7.443 -2.7676  2.2308 -0.9742
 9974TIP3   OH254116   4.662   2.957   8.239 -0.2436 -0.3456  0.1823
 9974TIP3    H154117   4.607   2.929   8.166 -0.7243 -0.6225  0.6387
 9974TIP3    H254118   4.707   2.878   8.267 -0.6861 -0.4170  0.7049
 9975TIP3   OH254119   3.460   1.826   1.538  0.1291  0.7366 -0.6356
 9975TIP3    H154120   3.382   1.772   1.529  0.7305 -0.4578  0.7554
 9975TIP3    H254121   3.525   1.783   1.482  0.4660  0.2453  0.1000
 9976TIP3   OH254122   6.603   0.116   8.402  0.5445  0.4067  0.1223
 9976TIP3    H154123   6.658   0.183   8.443  0.2267  1.1941 -0.6978
 9976TIP3    H254124   6.516   0.132   8.439  0.6282 -0.0766  0.5310
 9977TIP3   OH254125   7.375   3.859   1.509 -0.2604  0.7115 -0.3439
 9977TIP3    H154126   7.424   3.923   1.457  0.6229  0.2507 -0.0908
 9977TIP3    H254127   7.420   3.858   1.594 -0.6225  0.1786 -0.1549
 9978TIP3   OH254128   0.884   1.329   1.273  0.7251 -0.1354 -0.1337
 9978TIP3    H154129   0.900   1.338   1.179 -1.0158  1.7564 -0.3118
 9978TIP3    H254130   0.972   1.325   1.311  1.4779 -0.0729 -1.7623
 9979TIP3   OH254131   3.556   7.007   2.025 -0.1129  0.0072  0.1229
 9979TIP3    H154132   3.563   6.912   2.012 -1.0955 -0.4134  2.2914
 9979TIP3    H254133   3.498   7.017   2.100 -0.2788  2.3634 -0.2521
 9980TIP3   OH254134   2.964   3.584   6.556 -0.5593 -0.7962  0.2993
 9980TIP3    H154135   3.032   3.650   6.545 -2.1966  0.8518 -0.4315
 9980TIP3    H254136   2.923   3.606   6.640 -1.8988 -0.0735 -0.5122
 9981TIP3   OH254137   2.013   4.737   8.790  0.1304 -0.1198 -0.7160
 9981TIP3    H154138   1.955   4.717   8.717  0.9221 -1.2536 -1.0669
 9981TIP3    H254139   2.087   4.782   8.750  0.9174 -1.4008 -0.7496
 9982TIP3   OH254140   1.891   2.717   1.846 -0.1344  0.0534  0.5584
 9982TIP3    H154141   1.984   2.697   1.842  0.0379  0.8194  0.6064
 9982TIP3    H254142   1.848   2.632   1.849  0.5420 -0.3097  0.1025
 9983TIP3   OH254143   0.377   2.079   9.377  0.4535  0.3622 -0.0178
 9983TIP3    H154144   0.372   1.989   9.344  0.4586  0.2994  0.1504
 9983TIP3    H254145   0.289   2.099   9.407  0.3506  0.5703 -0.4593
 9984TIP3   OH254146   6.578   4.640   0.822  0.0193 -0.2344  0.2622
 9984TIP3    H154147   6.532   4.597   0.894 -2.0723 -0.6129 -1.2126
 9984TIP3    H254148   6.532   4.610   0.744  0.4842  2.2542 -1.0499
 9985TIP3   OH254149   3.699   1.505   2.671 -0.0033 -0.2729  0.1984
 9985TIP3    H154150   3.668   1.594   2.652 -0.1776 -0.1670  0.9291
 9985TIP3    H254151   3.684   1.456   2.591 -1.3657 -0.0362  0.2823
 9986TIP3   OH254152   2.731   3.458   9.150 -0.1355  0.1438  0.3674
 9986TIP3    H154153   2.705   3.464   9.242 -0.8936  1.5589  0.0971
 9986TIP3    H254154   2.670   3.516   9.104  1.4414  1.0103 -0.7491
 9987TIP3   OH254155   0.955   0.792   9.038 -0.0579  0.5636  0.5166
 9987TIP3    H154156   0.986   0.749   9.118 -0.1218 -0.2759  0.1008
 9987TIP3    H254157   0.859   0.794   9.048 -0.0158  1.3275  0.8813
 9988TIP3   OH254158   3.285   0.625   9.361  0.0459  0.0411  0.0224
 9988TIP3    H154159   3.193   0.628   9.334  0.0683  0.1854 -0.0402
 9988TIP3    H254160   3.332   0.600   9.281  0.0765  0.1131  0.0180
 9989TIP3   OH254161   3.667   6.902   7.539 -0.1532 -0.3269  0.1227
 9989TIP3    H154162   3.718   6.886   7.459  1.9180  1.0824  1.0581
 9989TIP3    H254163   3.730   6.942   7.599 -2.0329  0.0651  1.9325
 9990TIP3   OH254164   1.139   1.418   1.028 -0.3672  0.8967  0.2918
 9990TIP3    H154165   1.220   1.468   1.030 -0.7069  1.4761  2.3947
 9990TIP3    H254166   1.164   1.332   0.993  0.1110  2.5650 -4.0392
 9991TIP3   OH254167   0.981   4.267   9.832 -0.2641 -0.4065 -0.4752
 9991TIP3    H154168   0.894   4.235   9.856 -0.5649  1.4053  1.0884
 9991TIP3    H254169   0.964   4.341   9.773  0.1795  0.1042  0.0190
 9992TIP3   OH254170   6.289   5.656   0.464 -1.0408  0.0961 -0.0293
 9992TIP3    H154171   6.269   5.749   0.468 -2.5367 -0.2098  0.0396
 9992TIP3    H254172   6.377   5.649   0.502 -0.6190  1.5369 -0.6446
 9993TIP3   OH254173   2.725   1.524   9.098  0.2037  0.2589 -0.4994
 9993TIP3    H154174   2.698   1.481   9.017 -0.5651 -0.6060  0.1804
 9993TIP3    H254175   2.647   1.518   9.155  1.7370 -2.3776  1.5723
 9994TIP3   OH254176   6.873   3.598   9.424 -0.7012 -0.0691  0.0047
 9994TIP3    H154177   6.965   3.577   9.444  0.1377  0.2148 -3.0521
 9994TIP3    H254178   6.830   3.513   9.421 -0.0049 -0.4032 -0.8028
 9995TIP3   OH254179   6.164   6.780   7.791  0.6198 -0.5474  0.2353
 9995TIP3    H154180   6.125   6.770   7.704  0.9738 -1.3778  0.1632
 9995TIP3    H254181   6.092   6.763   7.852 -0.2293  2.2969  0.1625
 9996TIP3   OH254182   1.712   2.098   2.231 -0.4800  0.4160 -0.0102
 9996TIP3    H154183   1.637   2.043   2.252 -0.9689  1.4266  1.0747
 9996TIP3    H254184   1.679   2.161   2.167 -0.4262  0.5355  0.0772
 9997TIP3   OH254185   7.347   0.508   1.237  0.2869  0.6629  0.1866
 9997TIP3    H154186   7.419   0.533   1.180  1.7865  1.1166  2.1608
 9997TIP3    H254187   7.323   0.588   1.283 -0.3912  0.1771  0.7053
 9998TIP3   OH254188   6.616   6.404   8.332  0.0075  0.4927  0.2597
 9998TIP3    H154189   6.637   6.452   8.412  3.1368  0.0746 -0.2123
 9998TIP3    H254190   6.547   6.343   8.358  0.5200  0.7890  2.4632
 9999TIP3   OH254191   1.967   7.210   1.636 -0.4012 -0.1712  0.5133
 9999TIP3    H154192   1.926   7.291   1.665 -0.2696  0.2520 -0.4442
 9999TIP3    H254193   2.035   7.193   1.702  0.7280  1.4381 -0.1702
10000TIP3   OH254194   6.321   6.934   0.026 -0.4776  0.0628  0.2481
10000TIP3    H154195   6.296   6.990   0.099 -0.3830  1.0630 -0.4687
10000TIP3    H254196   6.274   6.852   0.042 -1.8322  0.8592  0.5333
10001TIP3   OH254197   2.408   3.101   0.374 -0.0939 -0.0428 -0.2869
10001TIP3    H154198   2.396   3.014   0.336  0.2258 -0.4061  0.4320
10001TIP3    H254199   2.470   3.088   0.446  0.1052  0.8122 -0.2933
10002TIP3   OH254200   7.366   4.070   0.830  0.4167 -0.3532  0.4404
10002TIP3    H154201   7.344   4.136   0.896  0.6446 -1.4315  1.6103
10002TIP3    H254202   7.455   4.092   0.802 -0.1767  0.9486 -0.5877
10003TIP3   OH254203   1.382   4.895   8.839  0.1177 -0.8387 -0.0608
10003TIP3    H154204   1.288   4.894   8.851 -0.4875  4.1669 -2.0978
10003TIP3    H254205   1.418   4.910   8.926 -1.2363  0.2659  0.3298
10004TIP3   OH254206   0.397   6.547   1.009  0.1274  0.0489  0.5429
10004TIP3    H154207   0.318   6.514   0.968 -0.5343  0.6954  1.2757
10004TIP3    H254208   0.429   6.615   0.950 -0.5102  0.5881  0.8050
10005TIP3   OH254209   1.862   2.343   0.124  0.2692  0.0579 -0.1123
10005TIP3    H154210   1.767   2.355   0.111  0.4098  1.3281 -0.1176
10005TIP3    H254211   1.869   2.292   0.204 -0.4263  0.0231 -0.0650
10006TIP3   OH254212   5.633   0.360   9.109  0.2439 -0.0248 -0.2951
10006TIP3    H154213   5.706   0.374   9.170 -0.8773  1.5584  0.7516
10006TIP3    H254214   5.634   0.265   9.092  2.9380  0.0307 -0.8815
10007TIP3   OH254215   1.431   5.635   6.289 -0.3860 -0.0727  0.2799
10007TIP3    H154216   1.372   5.664   6.359 -1.1748  0.3062 -0.5185
10007TIP3    H254217   1.376   5.579   6.234  0.2723 -0.5132  0.0665
10008TIP3   OH254218   0.783   4.397   0.518 -0.7231 -0.6210 -0.2347
10008TIP3    H154219   0.857   4.350   0.480  0.0464  0.3836 -0.0263
10008TIP3    H254220   0.724   4.414   0.445 -0.4565 -0.9074 -0.5155
10009TIP3   OH254221   0.013   0.231   8.433 -0.1854 -0.1791 -0.1025
10009TIP3    H154222   0.012   0.138   8.455  2.5786 -0.2704 -0.0191
10009TIP3    H254223   0.053   0.273   8.509  0.3857  0.8070 -0.9290
10010TIP3   OH254224   4.813   2.503   1.941 -0.6310 -0.0546  0.4818
10010TIP3    H154225   4.805   2.408   1.949  1.4484 -0.4525 -1.2003
10010TIP3    H254226   4.833   2.533   2.029 -1.2874 -1.1873  1.0306
10011TIP3   OH254227   6.689   2.557   9.794 -0.1306 -0.2988  0.0612
10011TIP3    H154228   6.650   2.641   9.770 -0.3872 -0.3307  0.3573
10011TIP3    H254229   6.739   2.575   9.873 -0.6243 -0.5290  0.4378
10012TIP3   OH254230   4.707   1.041   9.583 -0.4391  0.8108  0.3185
10012TIP3    H154231   4.691   1.049   9.489 -0.3044 -0.2663  0.1981
10012TIP3    H254232   4.795   1.004   9.590 -2.1782 -3.8744  0.6892
10013TIP3   OH254233   0.844   0.296   6.730 -0.1466  0.0711  0.1360
10013TIP3    H154234   0.825   0.388   6.710 -1.0175  0.4730  2.5284
10013TIP3    H254235   0.779   0.272   6.795  0.6793 -1.9724  0.2582
10014TIP3   OH254236   1.426   0.618   0.446  0.2872  0.1758 -0.0542
10014TIP3    H154237   1.516   0.618   0.414 -0.2155  0.6663 -1.5119
10014TIP3    H254238   1.395   0.708   0.434 -0.6126 -0.1365 -0.2009
10015TIP3   OH254239   0.754   3.381   1.540  0.4615 -0.2799 -0.4306
10015TIP3    H154240   0.718   3.469   1.548  1.3276 -0.0679  2.2703
10015TIP3    H254241   0.830   3.380   1.599  0.0995 -3.0069  0.1450
10016TIP3   OH254242   7.438   7.115   9.502  0.1070 -1.0296  0.7661
10016TIP3    H154243   7.367   7.053   9.521  0.9403 -2.3247 -0.2005
10016TIP3    H254244   7.504   7.096   9.568  1.2334 -2.6425 -0.7535
10017TIP3   OH254245   6.896   5.926   9.862  0.4496  0.4627 -0.6707
10017TIP3    H154246   6.904   5.949   9.954 -0.3052  3.2900 -1.2162
10017TIP3    H254247   6.806   5.892   9.854  0.6253 -0.0998 -0.3346
10018TIP3   OH254248   4.954   6.059   1.788  0.7323  0.4308  0.1033
10018TIP3    H154249   4.921   6.136   1.834  0.9532  0.5883  0.0025
10018TIP3    H254250   4.975   5.996   1.857 -0.3561  0.0905  0.1427
10019TIP3   OH254251   3.215   6.100   7.863  0.3122 -0.1117 -0.8245
10019TIP3    H154252   3.184   6.048   7.788 -0.2232 -0.1798 -0.5551
10019TIP3    H254253   3.281   6.045   7.904 -1.4150 -1.3115  0.4394
10020TIP3   OH254254   4.983   2.292   0.366  0.5165  0.1600  0.0386
10020TIP3    H154255   4.897   2.293   0.407  1.1756  2.5183  1.5591
10020TIP3    H254256   5.008   2.200   0.365 -1.1064 -0.3488  1.5265
10021TIP3   OH254257   2.463   2.849   6.956  0.1692  0.5199  0.2966
10021TIP3    H154258   2.461   2.807   6.870 -0.6024  0.5975  0.2702
10021TIP3    H254259   2.419   2.786   7.014 -2.7635  2.0465 -0.1007
10022TIP3   OH254260   2.930   5.231   0.383 -0.0411  0.2352  0.2275
10022TIP3    H154261   2.958   5.322   0.397  0.3505  0.1736 -0.1204
10022TIP3    H254262   2.981   5.202   0.307 -0.7840 -0.0096 -0.1885
10023TIP3   OH254263   4.100   4.061   0.258  0.2360  0.4385 -0.3370
10023TIP3    H154264   4.065   3.974   0.272 -0.9795  0.6957 -1.5278
10023TIP3    H254265   4.146   4.083   0.340  1.5217 -1.7072 -0.4074
10024TIP3   OH254266   5.305   2.334   9.484 -0.0132  0.0203 -0.1925
10024TIP3    H154267   5.243   2.326   9.556  0.3105 -0.3178  0.0479
10024TIP3    H254268   5.317   2.245   9.452 -0.8476  0.2586 -1.2593
10025TIP3   OH254269   0.601   5.070   7.343 -0.5596  0.3562  0.1935
10025TIP3    H154270   0.506   5.082   7.335 -0.5086  0.7972  0.2309
10025TIP3    H254271   0.636   5.108   7.263 -0.2566  2.1533  1.1383
10026TIP3   OH254272   6.816   4.533   1.887 -0.0608  0.5334  0.1350
10026TIP3    H154273   6.735   4.504   1.845  0.5883  0.4457 -1.0990
10026TIP3    H254274   6.885   4.508   1.826  0.6703  3.5035 -0.4112
10027TIP3   OH254275   0.228   4.381   8.328  0.4561  0.0071 -0.2603
10027TIP3    H154276   0.306   4.425   8.363 -0.0149  0.2744  0.4671
10027TIP3    H254277   0.257   4.344   8.245  0.7728  1.9944 -1.0888
10028TIP3   OH254278   1.390   4.053   1.604  0.2881  0.8511 -0.0382
10028TIP3    H154279   1.385   4.032   1.511  3.2654  0.4581 -0.2080
10028TIP3    H254280   1.355   3.976   1.648 -3.6507  2.0198 -0.6989
10029TIP3   OH254281   6.321   3.846   0.254  0.9644  0.5600  0.9868
10029TIP3    H154282   6.323   3.814   0.164  3.5437  0.2512  1.0780
10029TIP3    H254283   6.246   3.801   0.294 -1.3712  2.0387 -1.3778
10030TIP3   OH254284   3.312   4.088   8.724 -0.0667  0.4648  0.2869
10030TIP3    H154285   3.274   4.062   8.808 -1.2445  1.1425 -0.0090
10030TIP3    H254286   3.370   4.016   8.700 -0.9097 -0.4513  0.9373
10031TIP3   OH254287   2.718   4.357   8.899 -0.4354  0.5797  0.0583
10031TIP3    H154288   2.631   4.370   8.937  0.6801 -0.1945  3.2043
10031TIP3    H254289   2.765   4.439   8.919  0.4570 -0.2014  1.3425
10032TIP3   OH254290   1.453   4.521   6.243 -0.2258 -0.4237  0.4748
10032TIP3    H154291   1.366   4.517   6.281 -0.8652  2.7595 -0.3865
10032TIP3    H254292   1.457   4.444   6.185 -1.9055 -1.3604  1.5140
10033TIP3   OH254293   0.567   7.231   8.312  0.4759  0.0355  0.8858
10033TIP3    H154294   0.540   7.312   8.354 -0.3308  0.3345 -0.1687
10033TIP3    H254295   0.515   7.226   8.232  2.9175  0.2436 -0.8655
10034TIP3   OH254296   1.462   5.350   2.831  0.0595  0.3702  0.3965
10034TIP3    H154297   1.539   5.354   2.889 -0.4939 -2.0749  1.4282
10034TIP3    H254298   1.443   5.442   2.811  2.3629  1.1273  1.2737
10035TIP3   OH254299   1.437   5.606   2.757  0.1535  0.0790  0.3891
10035TIP3    H154300   1.353   5.653   2.759 -0.4183 -0.9309  0.6295
10035TIP3    H254301   1.494   5.663   2.705 -0.6833  0.7667  0.1811
10036TIP3   OH254302   3.212   7.138   8.268 -0.0377  0.0877 -0.0497
10036TIP3    H154303   3.293   7.168   8.227  1.1404 -2.2420  0.3700
10036TIP3    H254304   3.194   7.053   8.227 -1.3639 -0.1959  1.0388
10037TIP3   OH254305   0.822   2.669   9.427 -0.4746 -0.4326 -0.0979
10037TIP3    H154306   0.801   2.576   9.431 -1.2050 -0.3391 -1.2905
10037TIP3    H254307   0.860   2.689   9.513  1.4732 -2.2359 -0.4640
10038TIP3   OH254308   6.763   6.377   0.419  0.0358 -0.1929 -0.1384
10038TIP3    H154309   6.828   6.366   0.350 -3.9052 -0.5041 -4.2691
10038TIP3    H254310   6.763   6.472   0.436  2.6656 -0.3752  1.3959
10039TIP3   OH254311   7.459   5.508   9.755  1.4299 -0.5133  0.7012
10039TIP3    H154312   7.461   5.412   9.759 -0.1403 -0.5516  1.0663
10039TIP3    H254313   7.375   5.532   9.793 -0.4750  0.7434 -3.6396
10040TIP3   OH254314   7.215   5.504   9.585 -0.4461 -0.6060  1.0718
10040TIP3    H154315   7.221   5.551   9.668 -1.1883  1.3606  0.0736
10040TIP3    H254316   7.206   5.412   9.610  0.9096 -0.2516  3.1206
10041TIP3   OH254317   3.317   2.144   0.256  0.4813 -0.7326  0.1911
10041TIP3    H154318   3.371   2.154   0.177 -0.4748 -1.7284 -0.6112
10041TIP3    H254319   3.375   2.171   0.327  1.7494 -0.8993 -0.7359
10042TIP3   OH254320   2.336   0.266   0.419 -0.7810  0.1873 -0.5472
10042TIP3    H154321   2.377   0.259   0.333 -0.4223 -1.3343 -0.2897
10042TIP3    H254322   2.306   0.177   0.438  0.0859  0.2428  1.3434
10043TIP3   OH254323   6.721   5.806   1.117 -0.4354 -0.1219 -0.5650
10043TIP3    H154324   6.728   5.862   1.039 -0.7354  0.6674 -0.0424
10043TIP3    H254325   6.779   5.847   1.181 -0.8500 -0.2672 -0.0898
10044TIP3   OH254326   4.182   0.192   1.616  0.3354 -0.1115  0.6147
10044TIP3    H154327   4.089   0.212   1.606  0.5224  0.2540 -0.5555
10044TIP3    H254328   4.218   0.267   1.664  0.3881  0.7751 -0.7399
10045TIP3   OH254329   0.434   1.651   1.044 -0.1909  0.0703  0.1003
10045TIP3    H154330   0.382   1.570   1.040  1.5135 -1.2751  2.4672
10045TIP3    H254331   0.525   1.621   1.041  0.7573  1.1124  6.0230
10046TIP3   OH254332   2.530   4.143   7.098 -0.5517  0.3072 -0.3479
10046TIP3    H154333   2.592   4.093   7.151  0.6257  0.6045 -1.3891
10046TIP3    H254334   2.542   4.234   7.127 -1.9506  0.1641  0.8195
10047TIP3   OH254335   0.930   4.098   8.447  0.5295  0.3508 -0.3364
10047TIP3    H154336   0.950   4.089   8.354 -1.0009 -0.2925 -0.6417
10047TIP3    H254337   0.967   4.019   8.488  1.6202  0.8628 -0.2959
10048TIP3   OH254338   1.267   6.715   8.874  0.1790 -0.5993  0.1115
10048TIP3    H154339   1.353   6.674   8.862  1.1524  1.3239  0.0699
10048TIP3    H254340   1.227   6.713   8.788  1.0787  0.3520 -0.3447
10049TIP3   OH254341   1.722   0.786   8.423 -0.1286 -0.4846 -0.0104
10049TIP3    H154342   1.811   0.751   8.410 -0.2999 -1.2490  0.7636
10049TIP3    H254343   1.676   0.764   8.342  0.6436  0.7866 -0.8247
10050TIP3   OH254344   3.118   3.892   1.827 -0.0876  0.1440 -0.2975
10050TIP3    H154345   3.176   3.833   1.778  1.0117  0.4257  0.6245
10050TIP3    H254346   3.174   3.963   1.856 -0.7289  0.0854  1.2043
10051TIP3   OH254347   2.913   0.956   2.451  0.3105 -0.2295 -0.0796
10051TIP3    H154348   2.868   0.877   2.481  0.7911 -1.1204 -1.5836
10051TIP3    H254349   2.863   1.028   2.489 -2.1269 -1.1850 -1.2887
10052TIP3   OH254350   2.705   4.110   9.546  0.1532 -0.0965  0.4393
10052TIP3    H154351   2.665   4.191   9.578  0.7408  0.8704 -1.1597
10052TIP3    H254352   2.696   4.115   9.451 -0.4911 -2.3032  0.3255
10053TIP3   OH254353   4.507   5.057   9.554 -0.1831 -0.5570  0.2315
10053TIP3    H154354   4.506   5.083   9.646 -0.2373  1.6601 -0.3592
10053TIP3    H254355   4.418   5.026   9.538  0.1526 -2.1617  1.1983
10054TIP3   OH254356   4.490   3.601   8.353 -0.1038 -0.6079 -0.0567
10054TIP3    H154357   4.494   3.517   8.307 -0.9731 -0.5970 -0.1831
10054TIP3    H254358   4.399   3.607   8.382 -0.0213  0.2375  0.0561
10055TIP3   OH254359   2.042   7.341   8.812  0.0701  0.4397  0.2328
10055TIP3    H154360   2.040   7.292   8.730 -0.1567 -0.8883  1.0091
10055TIP3    H254361   2.028   7.275   8.880 -0.2457  1.5876  1.3145
10056TIP3   OH254362   1.835   3.654   8.025  0.4885  0.3293  0.7782
10056TIP3    H154363   1.898   3.723   8.041 -0.4755  2.0170 -2.0500
10056TIP3    H254364   1.887   3.574   8.023  2.5225  1.5898 -0.9648
10057TIP3   OH254365   1.936   1.339   8.495 -0.0903  0.1002 -0.3306
10057TIP3    H154366   1.982   1.272   8.445 -0.6994 -0.8265  0.3191
10057TIP3    H254367   1.919   1.409   8.432 -1.7582 -1.4710 -1.7229
10058TIP3   OH254368   4.281   1.133   1.516  0.1009  0.2485  0.3000
10058TIP3    H154369   4.270   1.106   1.425 -0.2490  1.0945  0.0804
10058TIP3    H254370   4.369   1.104   1.539 -0.2798 -1.1383  0.1205
10059TIP3   OH254371   4.337   6.166   0.833 -0.1630 -0.1894  0.4767
10059TIP3    H154372   4.429   6.141   0.839 -0.3157 -0.5866  1.2354
10059TIP3    H254373   4.299   6.101   0.774  0.1482  0.3046 -0.2860
10060TIP3   OH254374   1.308   5.845   9.576 -0.6286  0.4090 -0.3523
10060TIP3    H154375   1.378   5.909   9.565 -1.1278  1.1186  0.5266
10060TIP3    H254376   1.320   5.784   9.503  0.8003  0.6079 -0.3114
10061TIP3   OH254377   3.908   6.071   1.800 -0.3998  0.4673 -0.3208
10061TIP3    H154378   3.919   6.109   1.888  0.6282 -0.0695 -0.2093
10061TIP3    H254379   3.825   6.025   1.805  1.5901 -3.3809  1.8492
10062TIP3   OH254380   6.686   6.522   0.089  1.0569  0.0530  0.4457
10062TIP3    H154381   6.640   6.573   0.155  1.2763 -0.8075  1.2984
10062TIP3    H254382   6.618   6.490   0.030  0.8398  0.6869  0.3474
10063TIP3   OH254383   0.184   5.074   8.889 -0.4308 -0.4225  0.2140
10063TIP3    H154384   0.118   5.107   8.828 -0.2515 -1.4230 -0.5490
10063TIP3    H254385   0.133   5.044   8.965 -1.1060 -2.8815 -1.1088
10064TIP3   OH254386   7.095   3.623   7.593 -0.0322  0.1020  0.4659
10064TIP3    H154387   7.124   3.635   7.503 -0.7487  0.5178  0.2798
10064TIP3    H254388   7.000   3.629   7.588 -0.0364  3.1539  1.6189
10065TIP3   OH254389   6.621   3.031   9.437 -0.5114  0.0088  0.0145
10065TIP3    H154390   6.564   2.970   9.390  0.6746 -0.1336 -1.3131
10065TIP3    H254391   6.572   3.053   9.516 -0.6303 -3.3043  1.0008
10066TIP3   OH254392   6.269   4.678   0.454 -0.2679  0.2989 -0.4140
10066TIP3    H154393   6.328   4.746   0.424  0.6631 -0.5605 -0.5933
10066TIP3    H254394   6.185   4.699   0.414  0.6531 -0.1957 -2.7714
10067TIP3   OH254395   5.064   6.809   8.508  0.0438  0.1887 -0.4228
10067TIP3    H154396   5.105   6.770   8.431 -1.9661 -1.5372 -0.7138
10067TIP3    H254397   5.094   6.757   8.581 -0.0329  0.2090 -0.3761
10068TIP3   OH254398   3.612   7.111   0.621 -0.0654  0.3203  0.0710
10068TIP3    H154399   3.517   7.117   0.629  0.0657  0.6380  1.9080
10068TIP3    H254400   3.628   7.024   0.583 -1.0263 -1.6478  3.6585
10069TIP3   OH254401   5.376   6.300   0.776 -0.2233  0.3173 -1.2836
10069TIP3    H154402   5.302   6.265   0.726 -0.2871 -0.6470 -0.5408
10069TIP3    H254403   5.421   6.223   0.810  1.4707  0.8562 -2.1762
10070TIP3   OH254404   5.664   5.311   0.358  0.2906  0.8973  0.0506
10070TIP3    H154405   5.724   5.339   0.427  0.0875  0.8960  0.2289
10070TIP3    H254406   5.577   5.338   0.389  0.3163  1.9971 -0.7580
10071TIP3   OH254407   0.116   2.253   0.156 -0.0460  0.2324  0.7146
10071TIP3    H154408   0.179   2.263   0.085 -0.2836 -0.7154  0.3545
10071TIP3    H254409   0.147   2.177   0.205 -0.2912  0.4348  1.1852
10072TIP3   OH254410   5.798   4.155   8.225 -0.3550 -0.5048 -0.0036
10072TIP3    H154411   5.847   4.207   8.161  0.3559 -1.5743 -0.3588
10072TIP3    H254412   5.756   4.220   8.282  1.2388  0.4612  0.1380
10073TIP3   OH254413   3.131   1.822   0.857 -0.3109  1.1344 -0.6212
10073TIP3    H154414   3.166   1.793   0.773 -1.5975 -1.2480 -0.4087
10073TIP3    H254415   3.209   1.844   0.909  0.7540 -0.9975 -1.1968
10074TIP3   OH254416   1.695   3.386   8.321 -0.2304  0.0120 -0.0922
10074TIP3    H154417   1.645   3.351   8.246 -0.4962 -0.7735  0.4375
10074TIP3    H254418   1.629   3.404   8.387  0.1199 -0.4324  0.3839
10075TIP3   OH254419   4.788   3.664   8.760 -0.1344 -0.0212  0.0732
10075TIP3    H154420   4.839   3.593   8.722 -0.0621  0.8320 -1.5279
10075TIP3    H254421   4.792   3.734   8.695  0.4959  1.7795  1.9353
10076TIP3   OH254422   5.977   1.369   1.172 -0.7128 -0.4576 -0.6374
10076TIP3    H154423   6.028   1.309   1.117 -0.7474 -0.1791 -0.9790
10076TIP3    H254424   5.958   1.443   1.114  0.2496  0.3786  0.0877
10077TIP3   OH254425   1.190   3.050   0.758  0.1713  0.3573  0.0017
10077TIP3    H154426   1.253   3.050   0.686 -0.4137 -1.5996 -0.5742
10077TIP3    H254427   1.239   3.016   0.833  0.3834  0.9744  0.1465
10078TIP3   OH254428   0.586   6.265   9.144  0.5391 -0.1647 -0.7493
10078TIP3    H154429   0.560   6.207   9.073  1.2238  1.5447 -2.4652
10078TIP3    H254430   0.565   6.353   9.114  0.9055  0.6397  1.1507
10079TIP3   OH254431   7.281   3.827   0.046  0.2459 -0.1544 -0.0859
10079TIP3    H154432   7.269   3.902  -0.012 -1.4290  0.2749  0.7372
10079TIP3    H254433   7.360   3.847   0.096  1.5557 -0.4013 -1.9618
10080TIP3   OH254434   5.821   1.342   9.309 -0.6077  0.0330 -0.1202
10080TIP3    H154435   5.766   1.413   9.342 -0.6498 -1.1417  2.5960
10080TIP3    H254436   5.765   1.294   9.249 -1.3142  0.9566 -0.2273
10081TIP3   OH254437   6.547   4.970   0.083 -0.3941 -0.7912 -0.2902
10081TIP3    H154438   6.488   4.933   0.017 -1.7103 -1.6336  1.2861
10081TIP3    H254439   6.550   4.904   0.152  1.9716 -0.4893 -0.0374
10082TIP3   OH254440   6.979   6.041   8.189  0.1295  0.3284  0.2772
10082TIP3    H154441   6.930   6.055   8.108 -1.4713 -1.3023  0.9083
10082TIP3    H254442   6.952   6.114   8.246 -0.2397  0.3968  0.0189
10083TIP3   OH254443   1.311   2.147   0.062 -0.0276  0.3384 -0.2138
10083TIP3    H154444   1.310   2.243   0.062  1.1565  0.3643  0.6418
10083TIP3    H254445   1.256   2.123  -0.013 -1.2281  1.6604  0.1932
10084TIP3   OH254446   3.463   5.976   6.868  0.1494 -0.2867 -0.1309
10084TIP3    H154447   3.555   5.959   6.887 -0.0632 -0.0888  1.1936
10084TIP3    H254448   3.422   5.890   6.865  0.0187 -0.3056  1.3866
10085TIP3   OH254449   6.407   0.345   0.064  0.1010 -0.6182 -0.1108
10085TIP3    H154450   6.372   0.265   0.024 -4.0456  0.4988  0.8700
10085TIP3    H254451   6.373   0.344   0.153  0.6489  1.8328  0.1784
10086TIP3   OH254452   3.156   4.599   7.922  0.3807  0.5193 -0.0082
10086TIP3    H154453   3.073   4.554   7.940  1.1787 -0.5354  1.1674
10086TIP3    H254454   3.163   4.666   7.989  0.4540  0.6555 -0.1508
10087TIP3   OH254455   1.500   6.951   1.847 -0.2874 -0.3853  0.0149
10087TIP3    H154456   1.552   6.904   1.912 -0.2858 -1.7652 -0.9401
10087TIP3    H254457   1.550   6.942   1.765 -0.2650  1.3546 -0.2151
10088TIP3   OH254458   4.660   0.189   9.854 -0.3087  0.1378  0.0883
10088TIP3    H154459   4.704   0.138   9.787 -0.6486 -0.6498  0.4462
10088TIP3    H254460   4.624   0.264   9.808 -0.5581 -0.4051 -0.6132
10089TIP3   OH254461   6.755   0.091   7.870  0.1060  0.3529  0.1872
10089TIP3    H154462   6.739   0.185   7.871 -1.9927  0.1194 -1.9957
10089TIP3    H254463   6.761   0.069   7.777 -0.3812 -1.7971  0.6147
10090TIP3   OH254464   4.028   0.193   0.954  0.3106  0.4834  0.2309
10090TIP3    H154465   3.947   0.158   0.991  1.2907 -1.2661  0.8736
10090TIP3    H254466   4.055   0.261   1.015  0.4430 -0.4615  1.2663
10091TIP3   OH254467   5.528   6.075   8.515 -0.1057 -0.1284  0.1422
10091TIP3    H154468   5.435   6.093   8.500  0.0592  1.3858  0.7136
10091TIP3    H254469   5.566   6.070   8.428 -0.5383  0.4028 -0.0864
10092TIP3   OH254470   0.491   6.351   8.469  0.5171 -0.5984 -0.6656
10092TIP3    H154471   0.417   6.300   8.436 -0.1454 -0.0694 -0.0229
10092TIP3    H254472   0.474   6.440   8.440 -0.1591 -0.0855  1.1481
10093TIP3   OH254473   4.520   7.137   8.948  0.1136  0.1760 -0.4743
10093TIP3    H154474   4.582   7.079   8.905 -0.6363 -0.9297 -0.1169
10093TIP3    H254475   4.499   7.092   9.030 -0.8094  0.7552 -0.3817
10094TIP3   OH254476   5.427   1.526   9.888  0.3811 -0.0243 -0.4369
10094TIP3    H154477   5.383   1.479   9.818  0.1680 -1.4015  0.5924
10094TIP3    H254478   5.508   1.478   9.903  0.7093  0.6026 -0.1308
10095TIP3   OH254479   4.791   6.788   1.247 -0.3608  0.1701  0.2474
10095TIP3    H154480   4.844   6.717   1.281  0.8738  0.1945 -1.5149
10095TIP3    H254481   4.703   6.771   1.282 -0.0994 -2.1798 -0.0813
10096TIP3   OH254482   5.902   3.011   9.424 -0.2212 -0.5882 -0.1420
10096TIP3    H154483   5.926   3.076   9.359  0.2323 -2.4890 -1.9922
10096TIP3    H254484   5.882   3.062   9.503  0.1044  1.7400 -1.4681
10097TIP3   OH254485   2.867   6.331   9.295  0.1876 -0.6504  0.2665
10097TIP3    H154486   2.881   6.243   9.261  0.7872 -1.4712  2.4589
10097TIP3    H254487   2.955   6.365   9.310 -0.0527 -0.0152  0.2633
10098TIP3   OH254488   2.287   6.797   0.905 -0.3812 -0.1572  0.4243
10098TIP3    H154489   2.239   6.741   0.966 -0.0092 -0.4486  0.4575
10098TIP3    H254490   2.223   6.823   0.839 -0.4989 -0.8360  0.2632
10099TIP3   OH254491   1.403   6.398   9.698  0.5210  0.0189 -0.1015
10099TIP3    H154492   1.431   6.489   9.690  0.7367  0.0810  1.1800
10099TIP3    H254493   1.308   6.403   9.712  0.6807  0.1180  1.0150
10100TIP3   OH254494   6.287   1.436   1.342  0.2135  0.3232  0.1510
10100TIP3    H154495   6.280   1.351   1.297 -0.7494  0.6442 -0.3245
10100TIP3    H254496   6.303   1.413   1.434  1.5094 -0.3518 -0.2185
10101TIP3   OH254497   2.367   5.943   7.366  0.1512  0.0250  0.5043
10101TIP3    H154498   2.394   5.898   7.446 -0.0131 -0.4346  0.3075
10101TIP3    H254499   2.355   6.034   7.392 -0.9613 -0.3140  1.2728
10102TIP3   OH254500   6.197   5.898   0.056  0.4909  0.1103  0.4479
10102TIP3    H154501   6.167   5.983   0.091  1.4372  0.8072 -0.3728
10102TIP3    H254502   6.282   5.917   0.017  1.5906 -1.6153  1.8787
10103TIP3   OH254503   1.823   5.971   1.718 -0.0481  0.5730  0.4835
10103TIP3    H154504   1.813   5.920   1.638  2.0432 -0.4103  0.7779
10103TIP3    H254505   1.894   6.032   1.699 -0.7338  1.5752  1.0237
10104TIP3   OH254506   2.520   1.738   9.408  0.3293 -0.3895  0.0491
10104TIP3    H154507   2.490   1.731   9.317 -0.4126 -1.4639  0.3461
10104TIP3    H254508   2.615   1.744   9.402  0.1955  1.4264 -0.8594
10105TIP3   OH254509   6.944   5.354   8.029  0.2081 -0.4247  0.3034
10105TIP3    H154510   6.979   5.337   7.942  1.6289 -0.7417  0.9114
10105TIP3    H254511   6.879   5.286   8.043  0.1652 -0.5334 -0.4045
10106TIP3   OH254512   2.163   6.763   1.570  0.2070 -0.5400  0.0046
10106TIP3    H154513   2.207   6.848   1.561 -1.1450  0.1878  0.0063
10106TIP3    H254514   2.074   6.779   1.538  0.0615 -2.0891 -0.4565
10107TIP3   OH254515   4.253   3.070   9.753 -0.1491 -0.1769  0.3151
10107TIP3    H154516   4.174   3.069   9.699  0.8030  1.6011 -1.2519
10107TIP3    H254517   4.246   3.150   9.804 -0.0510 -0.7909  1.3070
10108TIP3   OH254518   3.471   1.504   0.995  0.3874  0.8541 -0.0003
10108TIP3    H154519   3.533   1.562   0.951  0.4652  1.8281  1.3130
10108TIP3    H254520   3.521   1.425   1.015  1.2393  1.6133  1.0094
10109TIP3   OH254521   7.453   7.005   1.842 -0.6983  0.3727  0.3720
10109TIP3    H154522   7.444   7.081   1.898 -0.2829  0.3116  0.5249
10109TIP3    H254523   7.530   7.023   1.789 -0.2313 -0.2142  0.8449
10110TIP3   OH254524   3.077   2.079   0.389 -0.4858  0.0481 -0.3295
10110TIP3    H154525   3.026   2.134   0.449  0.1735  0.3530 -0.0268
10110TIP3    H254526   3.157   2.130   0.373  0.1607 -0.8414 -0.0054
10111TIP3   OH254527   4.070   5.099   0.435  0.5297 -0.2604 -0.1586
10111TIP3    H154528   4.034   5.018   0.472 -1.2925 -0.1505 -1.5666
10111TIP3    H254529   4.080   5.081   0.342 -0.2268  1.2390 -0.5581
10112TIP3   OH254530   1.674   4.968   9.782  0.1138  0.5617 -0.1274
10112TIP3    H154531   1.690   5.012   9.699  2.1872  0.9380  0.4141
10112TIP3    H254532   1.686   4.875   9.763 -2.6010  0.3002 -0.8986
10113TIP3   OH254533   3.285   4.956   7.292 -0.0705 -0.0272 -0.0291
10113TIP3    H154534   3.298   4.981   7.384 -0.8736  0.2083  0.0253
10113TIP3    H254535   3.374   4.939   7.260  0.2963  0.7258  0.5525
10114TIP3   OH254536   0.961   1.608   3.159 -0.3715 -0.4704  0.3278
10114TIP3    H154537   1.034   1.670   3.168  0.0799 -0.9597  0.1031
10114TIP3    H254538   0.899   1.652   3.101  0.3365 -0.5690 -0.5210
10115TIP3   OH254539   0.973   2.080   8.048  0.0067  0.3100 -0.0134
10115TIP3    H154540   1.001   2.128   8.126  1.2864 -0.4194  0.0066
10115TIP3    H254541   1.009   1.992   8.060 -1.3381 -0.3372 -0.5731
10116TIP3   OH254542   0.355   7.243   1.140  0.5927 -0.1353  0.0114
10116TIP3    H154543   0.309   7.168   1.100  1.7579 -1.1869  0.5701
10116TIP3    H254544   0.359   7.308   1.070 -0.9858 -0.3466 -0.3021
10117TIP3   OH254545   3.648   5.962   0.763  0.2517 -0.5106 -0.3677
10117TIP3    H154546   3.662   6.010   0.681  0.4439 -0.8079 -0.5117
10117TIP3    H254547   3.723   5.903   0.769  1.3316  0.9225  1.0434
10118TIP3   OH254548   1.613   5.980   9.338  0.3822 -0.7692 -0.0749
10118TIP3    H154549   1.598   5.993   9.431  1.0420  0.7184 -0.1419
10118TIP3    H254550   1.679   5.911   9.333  0.5048 -0.7029  0.5727
10119TIP3   OH254551   4.566   2.858   0.644 -0.3757 -0.1817  0.5165
10119TIP3    H154552   4.532   2.887   0.729 -0.5819  1.4415 -0.0909
10119TIP3    H254553   4.646   2.909   0.631 -0.3739 -0.3684 -0.2743
10120TIP3   OH254554   6.328   0.131   9.946  0.5218  0.2879 -0.0468
10120TIP3    H154555   6.293   0.064  10.005 -0.0812  1.3238  0.8202
10120TIP3    H254556   6.300   0.103   9.859 -0.1343 -0.3450  0.3507
10121TIP3   OH254557   4.980   2.034   9.362  0.1178  0.0984 -0.3691
10121TIP3    H154558   5.017   2.066   9.279 -0.9652  0.3491 -0.7760
10121TIP3    H254559   4.997   2.103   9.425 -2.2839  1.6466 -1.2603
10122TIP3   OH254560   1.768   3.301   0.649  0.2370  0.4578  0.0299
10122TIP3    H154561   1.749   3.333   0.560 -1.1475  1.5724  0.6903
10122TIP3    H254562   1.731   3.212   0.650  0.6655  0.2600 -0.6351
10123TIP3   OH254563   6.907   1.232   1.831  0.2583  0.4837  0.3564
10123TIP3    H154564   6.903   1.140   1.805  0.1015  0.4408  0.5285
10123TIP3    H254565   6.826   1.246   1.881  0.7679  0.4335  1.2179
10124TIP3   OH254566   0.888   4.095   1.879 -0.9662 -0.2846  0.1226
10124TIP3    H154567   0.973   4.127   1.848 -0.7386 -2.6888 -2.0953
10124TIP3    H254568   0.907   4.012   1.922 -2.0930 -0.2599  0.7258
10125TIP3   OH254569   3.064   4.404   8.263  0.4158 -0.2813  0.6372
10125TIP3    H154570   2.985   4.450   8.235 -0.1698 -0.7757  1.4575
10125TIP3    H254571   3.058   4.318   8.219  0.6145 -0.2378  0.5233
10126TIP3   OH254572   6.269   6.180   9.918 -0.2096 -0.6208  0.1828
10126TIP3    H154573   6.202   6.153   9.981 -0.5870  0.0150  0.0659
10126TIP3    H254574   6.293   6.269   9.945 -1.5473  0.3058 -1.4826
10127TIP3   OH254575   2.652   2.579   7.898 -0.0773 -0.1728 -0.4302
10127TIP3    H154576   2.704   2.529   7.835 -1.4010 -1.2063 -0.7286
10127TIP3    H254577   2.718   2.619   7.955  1.0623 -1.4897 -0.7526
10128TIP3   OH254578   1.572   3.141   0.937 -0.0971 -0.1368 -0.1587
10128TIP3    H154579   1.559   3.056   0.978 -1.6036 -1.0276 -2.2773
10128TIP3    H254580   1.650   3.177   0.979 -1.1287 -1.1877  2.9538
10129TIP3   OH254581   3.663   2.507   2.323  0.2803  0.2046 -0.1371
10129TIP3    H154582   3.628   2.566   2.390 -0.0279 -0.4188  0.2630
10129TIP3    H254583   3.632   2.420   2.350  2.6055 -0.4658  0.5458
10130TIP3   OH254584   6.635   2.271   1.166  0.4491 -0.0026  0.0938
10130TIP3    H154585   6.638   2.317   1.250  0.4831 -2.4772  1.5334
10130TIP3    H254586   6.580   2.326   1.111 -0.0775  1.3971  1.9095
10131TIP3   OH254587   3.372   6.535   9.860 -0.3526 -0.3609  0.6554
10131TIP3    H154588   3.408   6.604   9.916 -1.2931  1.6715 -1.1073
10131TIP3    H254589   3.308   6.490   9.916 -0.5118  0.9285  1.5574
10132TIP3   OH254590   3.918   0.849   7.783  0.6031 -0.1842  0.0843
10132TIP3    H154591   3.884   0.916   7.843  0.5208 -0.4960  0.3897
10132TIP3    H254592   3.961   0.899   7.714 -1.3266  0.2687 -0.8596
10133TIP3   OH254593   4.717   5.280   2.216 -0.3227 -0.1260  0.2910
10133TIP3    H154594   4.672   5.221   2.277  0.4133 -0.9056  0.1085
10133TIP3    H254595   4.723   5.230   2.135  0.7339  0.0016  0.2724
10134TIP3   OH254596   6.885   2.410   8.476  0.3827  0.5222  0.3587
10134TIP3    H154597   6.826   2.362   8.418  1.0121 -0.2146  0.3021
10134TIP3    H254598   6.965   2.421   8.425 -0.3679  3.3625 -0.3482
10135TIP3   OH254599   1.889   6.414   0.360 -0.2291 -0.4858 -0.0474
10135TIP3    H154600   1.857   6.327   0.333  1.9963 -0.9148 -1.5474
10135TIP3    H254601   1.892   6.465   0.279  1.5093 -0.0530  0.2435
10136TIP3   OH254602   5.210   6.880   7.336 -0.1002 -0.4338 -0.4431
10136TIP3    H154603   5.184   6.791   7.310  0.2274 -0.3972 -0.9207
10136TIP3    H254604   5.305   6.874   7.348  0.0189  0.0076 -1.1361
10137TIP3   OH254605   4.364   6.661   1.132 -0.1832 -0.6501  0.0478
10137TIP3    H154606   4.449   6.678   1.092 -0.6289  3.2181  0.3711
10137TIP3    H254607   4.312   6.620   1.063  1.3203 -1.2292 -0.7830
10138TIP3   OH254608   4.815   1.525   9.979 -0.5983 -0.1935  0.2930
10138TIP3    H154609   4.722   1.507   9.990 -0.2982 -3.1112 -1.1017
10138TIP3    H254610   4.858   1.444  10.004  1.6497  1.1946  1.2143
10139TIP3   OH254611   6.505   6.081   9.234 -0.3048  0.4774 -0.7113
10139TIP3    H154612   6.479   6.172   9.219 -1.8668 -0.0900 -1.6650
10139TIP3    H254613   6.432   6.043   9.284  1.3597  0.3038  1.7635
10140TIP3   OH254614   0.134   2.080   0.577 -0.2709  0.6803 -0.7323
10140TIP3    H154615   0.105   2.151   0.635 -0.3189 -0.0185  0.1153
10140TIP3    H254616   0.217   2.051   0.614 -0.3228  0.1965 -0.9854
10141TIP3   OH254617   7.123   0.776   0.572 -0.0922 -0.7185  0.2144
10141TIP3    H154618   7.178   0.786   0.495  1.5157  0.8493  1.4693
10141TIP3    H254619   7.181   0.736   0.637  0.2913  2.5738  2.1362
10142TIP3   OH254620   0.662   6.094   2.321  0.3972  0.0027  0.2829
10142TIP3    H154621   0.585   6.081   2.376 -0.3595  1.3323 -0.4088
10142TIP3    H254622   0.688   6.185   2.338  0.8256  0.0742 -0.6784
10143TIP3   OH254623   2.898   5.723   9.816  0.0964  0.2775  0.1242
10143TIP3    H154624   2.890   5.756   9.905  0.7947 -3.3357  1.6656
10143TIP3    H254625   2.819   5.672   9.800 -0.1006  0.9880 -1.4369
10144TIP3   OH254626   1.108   6.190   7.848 -0.8407 -0.5800  0.0453
10144TIP3    H154627   1.156   6.116   7.885  2.2085  1.0590 -0.3591
10144TIP3    H254628   1.138   6.195   7.758 -1.8953  0.4626 -0.2673
10145TIP3   OH254629   7.098   2.728   0.780 -0.2337 -0.1495 -0.1129
10145TIP3    H154630   7.120   2.721   0.687 -1.0603 -1.1506 -0.2457
10145TIP3    H254631   7.048   2.809   0.787  0.7749  0.5088 -0.3356
10146TIP3   OH254632   4.346   5.340   0.557 -0.1803 -0.0750 -0.7412
10146TIP3    H154633   4.429   5.374   0.591 -0.4854  0.7887 -0.8418
10146TIP3    H254634   4.349   5.246   0.576 -0.2911  0.3395  1.5871
10147TIP3   OH254635   1.872   7.224   0.983  0.4501  0.2972  0.0082
10147TIP3    H154636   1.867   7.144   0.931  1.7662 -0.4893  1.0135
10147TIP3    H254637   1.912   7.289   0.925 -0.5932  0.2400 -0.8000
10148TIP3   OH254638   2.660   6.051   0.739  0.1769  0.2486  0.1872
10148TIP3    H154639   2.628   5.992   0.808 -0.2732  0.9535  0.5870
10148TIP3    H254640   2.652   6.138   0.776  0.3307  0.6067 -0.6060
10149TIP3   OH254641   2.481   0.311   0.146 -0.4168  0.3550  0.3575
10149TIP3    H154642   2.572   0.325   0.119  0.2915 -1.5209  1.5350
10149TIP3    H254643   2.457   0.392   0.191  1.8346 -0.1772  2.8354
10150TIP3   OH254644   4.418   6.516   3.076  0.8288 -0.3547  0.6109
10150TIP3    H154645   4.361   6.579   3.121  2.2449 -0.5672  2.8030
10150TIP3    H254646   4.460   6.567   3.007 -1.2403  0.0175 -0.4860
10151TIP3   OH254647   7.234   1.425   8.618  0.4197  0.0206  0.8082
10151TIP3    H154648   7.322   1.453   8.593  1.0717  0.3947  3.2808
10151TIP3    H254649   7.241   1.330   8.628 -0.5697 -0.5961 -2.8516
10152TIP3   OH254650   0.668   2.332   9.633  0.3842  0.5230  0.0222
10152TIP3    H154651   0.605   2.404   9.624  1.5899  1.3971 -1.8925
10152TIP3    H254652   0.745   2.372   9.672  0.1358 -0.3603  1.5119
10153TIP3   OH254653   5.324   2.782   1.586 -0.0462  0.8212 -0.0983
10153TIP3    H154654   5.313   2.870   1.620 -0.0489  0.4174  0.9917
10153TIP3    H254655   5.411   2.756   1.616  0.2292  0.6906 -0.9818
10154TIP3   OH254656   0.136   3.808   8.314 -0.4991  0.2098  0.2391
10154TIP3    H154657   0.061   3.797   8.255 -0.3734  0.7116 -0.0224
10154TIP3    H254658   0.156   3.902   8.309 -1.1567  0.4686  1.8863
10155TIP3   OH254659   5.631   4.067   1.252  0.0861  0.0710 -0.4430
10155TIP3    H154660   5.541   4.094   1.269  0.0226 -0.8418  0.8228
10155TIP3    H254661   5.634   4.046   1.159 -1.6679 -2.2338 -0.0549
10156TIP3   OH254662   5.071   2.753   7.927 -0.0115 -0.1628  0.5657
10156TIP3    H154663   5.114   2.720   7.848  0.6944 -1.3539  1.4154
10156TIP3    H254664   5.044   2.675   7.974  0.6407  0.4686  2.0774
10157TIP3   OH254665   2.422   6.764   8.348 -0.4199  0.3535 -0.1856
10157TIP3    H154666   2.468   6.781   8.266 -0.4179  0.2388 -0.2080
10157TIP3    H254667   2.418   6.669   8.355 -2.3658  0.3118 -1.1593
10158TIP3   OH254668   0.978   5.261   1.280 -0.3826 -0.0830  0.0654
10158TIP3    H154669   1.011   5.349   1.260  0.1882 -0.4146 -0.4652
10158TIP3    H254670   0.930   5.236   1.201 -0.4888 -0.2789  0.1927
10159TIP3   OH254671   5.142   4.271   9.200  0.3093  0.3257  0.5594
10159TIP3    H154672   5.188   4.279   9.284  0.6093 -0.2552  0.4569
10159TIP3    H254673   5.166   4.350   9.152 -2.2946  2.2614  2.1533
10160TIP3   OH254674   4.912   2.185   2.303 -0.5974 -0.3352 -0.1656
10160TIP3    H154675   4.859   2.187   2.382  1.2844 -0.6508  1.1802
10160TIP3    H254676   4.937   2.276   2.287 -0.7597 -0.3029 -0.2287
10161TIP3   OH254677   1.682   4.405   0.767 -0.0189  0.1222 -0.6135
10161TIP3    H154678   1.590   4.423   0.746 -0.2230 -2.5049 -2.4950
10161TIP3    H254679   1.679   4.369   0.856 -0.5992  1.2600 -0.1513
10162TIP3   OH254680   4.740   3.618   8.219  0.5418  0.9270 -0.2923
10162TIP3    H154681   4.815   3.602   8.276 -1.1892 -1.3929  1.5325
10162TIP3    H254682   4.668   3.640   8.278 -1.3896 -1.8095 -1.3973
10163TIP3   OH254683   0.790   1.101   8.199  0.3296 -0.4789  0.0553
10163TIP3    H154684   0.751   1.185   8.175 -0.4204 -0.0190  2.5548
10163TIP3    H254685   0.883   1.120   8.209  0.4715 -0.4275 -1.2351
10164TIP3   OH254686   7.422   2.233   8.182  0.0041 -0.5816 -0.2588
10164TIP3    H154687   7.376   2.177   8.245  0.4180 -0.6249  0.0122
10164TIP3    H254688   7.353   2.283   8.140 -0.1647  0.7388  1.4819
10165TIP3   OH254689   7.448   6.915   1.169 -0.3516 -0.6549  0.4306
10165TIP3    H154690   7.501   6.849   1.125  2.8863  2.9823 -1.8091
10165TIP3    H254691   7.492   6.930   1.253  0.6681  0.5200 -0.2858
10166TIP3   OH254692   6.398   0.478   0.358 -0.8258  0.0573  0.1134
10166TIP3    H154693   6.488   0.462   0.330 -0.8020 -0.0453  0.2474
10166TIP3    H254694   6.353   0.395   0.342 -1.0753  0.3397 -0.6559
10167TIP3   OH254695   7.361   7.382   8.212 -0.8128 -0.6139 -0.1183
10167TIP3    H154696   7.451   7.413   8.201 -0.8605  0.0630  1.1107
10167TIP3    H254697   7.312   7.425   8.141  0.1643 -2.7337 -2.1896
10168TIP3   OH254698   7.264   6.582   7.602  0.1981 -0.1950 -1.1443
10168TIP3    H154699   7.215   6.558   7.524 -0.5043 -0.1630 -0.7206
10168TIP3    H254700   7.309   6.501   7.628  0.1420 -0.2984 -1.3685
10169TIP3   OH254701   2.495   2.987   1.211 -0.0022  0.1433  0.4246
10169TIP3    H154702   2.430   2.981   1.281  0.3560  3.0236  1.1366
10169TIP3    H254703   2.444   3.009   1.133 -0.1576 -0.7224  0.2696
10170TIP3   OH254704   0.788   0.582   0.875  0.1269 -0.0605 -0.4108
10170TIP3    H154705   0.782   0.487   0.890  0.6350 -0.1330 -0.6574
10170TIP3    H254706   0.882   0.600   0.873  0.1171  0.0416 -2.8932
10171TIP3   OH254707   2.127   0.098   1.650 -0.0186  0.2088 -0.1780
10171TIP3    H154708   2.108   0.098   1.744  1.7131 -1.1226  0.2213
10171TIP3    H254709   2.145   0.190   1.630  0.1328  0.4462  0.9285
10172TIP3   OH254710   3.880   6.242   0.402  0.5328  0.7247  0.5003
10172TIP3    H154711   3.882   6.337   0.415 -0.4073  0.7411  0.6493
10172TIP3    H254712   3.855   6.230   0.310  1.6704  0.6142  0.1979
10173TIP3   OH254713   2.348   2.843   2.989 -0.0927 -0.9606  0.5580
10173TIP3    H154714   2.412   2.913   2.972 -0.7930 -0.4687 -0.1533
10173TIP3    H254715   2.401   2.764   2.999  0.8188 -0.1619  2.6200
10174TIP3   OH254716   2.517   5.662   0.508  0.3458 -0.1081 -0.4962
10174TIP3    H154717   2.591   5.602   0.504  1.1479  0.6368  1.5467
10174TIP3    H254718   2.445   5.609   0.541  0.8440 -0.1612  0.5452
10175TIP3   OH254719   0.749   3.121   1.854 -0.4824  0.0828  0.1912
10175TIP3    H154720   0.656   3.132   1.874 -0.4862 -0.0776  0.2598
10175TIP3    H254721   0.779   3.054   1.914 -0.2344  0.4039  0.4319
10176TIP3   OH254722   2.239   4.334   8.556  0.4289 -0.5808  0.1016
10176TIP3    H154723   2.159   4.368   8.596 -0.3741 -0.2697 -1.6656
10176TIP3    H254724   2.299   4.323   8.629 -1.0683 -0.3937  1.4263
10177TIP3   OH254725   6.734   6.294   9.822  0.1509 -0.9136  0.3865
10177TIP3    H154726   6.765   6.385   9.819 -2.3476  0.0249 -1.5438
10177TIP3    H254727   6.801   6.244   9.776  0.7306  0.2953 -0.1168
10178TIP3   OH254728   7.236   3.710   8.837 -0.0473  0.1736  0.3976
10178TIP3    H154729   7.202   3.667   8.758  0.2650  1.5997 -0.5544
10178TIP3    H254730   7.329   3.688   8.838 -0.0421  0.1936  0.3519
10179TIP3   OH254731   1.251   1.580   8.513 -0.5483  0.3009  0.1926
10179TIP3    H154732   1.294   1.627   8.585 -0.7993  0.8000  0.0250
10179TIP3    H254733   1.323   1.553   8.456 -0.1770 -1.5715  1.4444
10180TIP3   OH254734   3.161   5.460   8.569  1.1071 -0.1227 -0.3444
10180TIP3    H154735   3.206   5.423   8.644 -0.0530 -2.3281 -0.6432
10180TIP3    H254736   3.071   5.476   8.600  1.2303  1.2600 -0.6191
10181TIP3   OH254737   0.111   6.033   6.638  0.1001 -0.4363 -0.2029
10181TIP3    H154738   0.030   6.081   6.625  0.8125  0.6572 -0.7940
10181TIP3    H254739   0.179   6.092   6.607  1.4071 -0.1814  2.7632
10182TIP3   OH254740   1.040   0.820   1.083 -0.6332 -0.0157 -0.4901
10182TIP3    H154741   1.134   0.811   1.067 -0.8579 -1.8036 -1.0531
10182TIP3    H254742   1.034   0.864   1.167  0.7606 -1.9589  0.7054
10183TIP3   OH254743   2.180   3.343   9.432  0.2604 -0.3634  0.7501
10183TIP3    H154744   2.211   3.287   9.503  1.0980 -0.9360 -0.0579
10183TIP3    H254745   2.259   3.384   9.397 -0.3154  1.2165  1.2098
10184TIP3   OH254746   1.271   4.510   1.991 -0.0086  0.4398 -0.1038
10184TIP3    H154747   1.328   4.519   1.914  0.4046  1.4883  0.3015
10184TIP3    H254748   1.207   4.581   1.982  0.5422  1.0965  0.9096
10185TIP3   OH254749   6.484   3.123   9.658  0.2799 -0.2020 -0.7975
10185TIP3    H154750   6.470   3.208   9.617  1.2496  0.2815 -0.1730
10185TIP3    H254751   6.401   3.103   9.701  0.6767  1.4778  0.9038
10186TIP3   OH254752   0.245   6.975   0.928 -0.1998  0.4184 -0.5573
10186TIP3    H154753   0.286   6.901   0.884 -0.6330 -0.2897  0.1978
10186TIP3    H254754   0.191   7.016   0.861  0.4724  0.3989 -1.1324
10187TIP3   OH254755   5.823   5.487   1.573  0.7285 -0.0268 -0.1935
10187TIP3    H154756   5.852   5.400   1.600 -0.4156 -0.0200  1.1737
10187TIP3    H254757   5.848   5.493   1.481  1.9152 -1.3228  0.0139
10188TIP3   OH254758   2.346   7.197   3.086  0.5371  0.3445 -0.2831
10188TIP3    H154759   2.289   7.126   3.116  1.5624 -0.5439 -0.3566
10188TIP3    H254760   2.365   7.247   3.165  0.4005  0.0967 -0.0900
10189TIP3   OH254761   5.263   5.816   0.466 -0.2679 -0.6789 -0.3378
10189TIP3    H154762   5.219   5.754   0.408 -1.6544  0.0565 -0.1310
10189TIP3    H254763   5.191   5.867   0.504  0.8248  1.0984 -0.5629
10190TIP3   OH254764   7.356   1.442   8.239 -0.1677 -0.7320 -0.4310
10190TIP3    H154765   7.435   1.479   8.279 -0.0192 -0.4915 -0.9422
10190TIP3    H254766   7.371   1.348   8.239  0.4050 -0.6485 -1.1099
10191TIP3   OH254767   0.800   1.666   7.287 -0.3326  0.1177 -0.6244
10191TIP3    H154768   0.716   1.691   7.326 -0.4232  0.0167 -0.7527
10191TIP3    H254769   0.844   1.749   7.269  0.2244  0.1491  0.7866
10192TIP3   OH254770   1.594   6.177   2.559 -0.1614  0.1751  0.2670
10192TIP3    H154771   1.641   6.140   2.633  1.1960  0.1872 -0.5538
10192TIP3    H254772   1.616   6.120   2.485 -1.0644  0.4629 -0.2430
10193TIP3   OH254773   4.476   5.988   0.419 -0.4378 -0.3149 -0.2972
10193TIP3    H154774   4.385   5.976   0.446 -0.7705 -0.1995 -1.3165
10193TIP3    H254775   4.519   6.027   0.495 -1.6096  1.1386 -0.3396
10194TIP3   OH254776   2.397   6.402   9.689 -0.2368  0.0133 -0.5649
10194TIP3    H154777   2.401   6.448   9.605 -3.4428  0.1992 -0.7236
10194TIP3    H254778   2.343   6.458   9.744 -1.5390 -1.9904  0.2977
10195TIP3   OH254779   5.932   1.169   8.060  0.8441  0.0697 -0.9955
10195TIP3    H154780   5.960   1.259   8.048  0.1143  0.5837  0.8234
10195TIP3    H254781   5.999   1.130   8.116 -0.8478  0.7384  1.6938
10196TIP3   OH254782   2.154   1.998   9.343  0.4408 -0.4197 -0.0205
10196TIP3    H154783   2.236   2.032   9.307  1.0096  0.0688  1.6592
10196TIP3    H254784   2.181   1.936   9.410 -0.5983 -2.2970 -1.2419
10197TIP3   OH254785   0.223   4.759   8.814 -0.0073 -0.7848 -0.3321
10197TIP3    H154786   0.291   4.812   8.855 -0.0651 -0.3327 -0.8086
10197TIP3    H254787   0.208   4.687   8.876  0.4285 -0.5235  0.0849
10198TIP3   OH254788   6.124   2.621   9.656 -0.7761  0.2385 -0.2915
10198TIP3    H154789   6.127   2.616   9.561  0.1181  0.5660 -0.2880
10198TIP3    H254790   6.143   2.712   9.676  2.0752 -0.3770  0.2791
10199TIP3   OH254791   2.008   1.219   8.742 -0.2663  0.5921  0.0540
10199TIP3    H154792   2.094   1.189   8.713 -0.4174 -0.9958  1.1272
10199TIP3    H254793   1.966   1.251   8.662  1.3986  1.6503 -0.4322
10200TIP3   OH254794   2.234   1.075   7.961 -0.0087  0.0659  0.3819
10200TIP3    H154795   2.173   1.146   7.943 -0.1993 -0.1695  0.0866
10200TIP3    H254796   2.315   1.118   7.989  0.3783  0.4618 -1.2405
10201TIP3   OH254797   2.131   5.464   3.713  0.0022  0.2326  0.0243
10201TIP3    H154798   2.205   5.430   3.663  0.8271 -0.2813  1.5550
10201TIP3    H254799   2.103   5.542   3.664  2.7826  1.5847  0.4343
10202TIP3   OH254800   7.009   1.339   9.233 -0.4631  0.0910  0.1468
10202TIP3    H154801   7.098   1.345   9.200 -0.4994 -0.3887 -0.0427
10202TIP3    H254802   6.959   1.295   9.164 -0.7079 -0.2057  0.5003
10203TIP3   OH254803   6.329   5.552   2.204  0.1722 -0.0193 -0.0605
10203TIP3    H154804   6.272   5.507   2.266 -0.4105  2.4212  1.3077
10203TIP3    H254805   6.401   5.586   2.258 -0.2687  2.0309 -0.6710
10204TIP3   OH254806   5.747   6.971   8.186  0.1788 -0.2272  0.5652
10204TIP3    H154807   5.723   6.989   8.095  0.4616 -1.2128  0.2912
10204TIP3    H254808   5.842   6.970   8.186  0.2880  2.2463  1.3814
10205TIP3   OH254809   2.878   5.487   2.539 -0.1454  0.2023  0.2301
10205TIP3    H154810   2.937   5.412   2.540 -0.5960 -0.2299 -1.5387
10205TIP3    H254811   2.911   5.545   2.608  0.5182 -1.3673  1.2821
10206TIP3   OH254812   5.026   1.516   2.174  0.5686  0.1928 -0.2393
10206TIP3    H154813   5.010   1.449   2.107  1.5799  0.3966 -0.6963
10206TIP3    H254814   5.099   1.481   2.226  1.9952  1.4837 -1.2825
10207TIP3   OH254815   7.092   1.987   7.936 -0.0206  0.5235 -0.3197
10207TIP3    H154816   7.075   1.975   8.029  2.1902 -1.3511 -0.0607
10207TIP3    H254817   7.041   1.919   7.892 -0.9814  1.3411 -0.4960
10208TIP3   OH254818   7.243   7.009   1.012  0.4572 -0.1865  1.2572
10208TIP3    H154819   7.249   6.929   0.960  0.7219 -0.4944  1.7468
10208TIP3    H254820   7.314   7.001   1.076  1.5650  1.2112  0.2815
10209TIP3   OH254821   1.030   1.980   2.222  0.0905 -0.2691  0.0332
10209TIP3    H154822   1.090   1.981   2.296  1.1997 -1.3674 -0.8179
10209TIP3    H254823   0.946   2.009   2.258  0.7503 -0.2227  1.5757
10210TIP3   OH254824   3.996   6.298   3.094  0.3105  0.3746 -0.0597
10210TIP3    H154825   4.016   6.217   3.140 -0.0017 -0.0720 -0.7008
10210TIP3    H254826   3.909   6.323   3.126  1.0641  1.3397  1.3518
10211TIP3   OH254827   1.831   4.455   6.633 -0.4883 -0.5023 -0.7431
10211TIP3    H154828   1.913   4.424   6.595 -0.1412  0.3066 -0.6518
10211TIP3    H254829   1.766   4.441   6.563 -0.7206 -3.1041 -0.1086
10212TIP3   OH254830   0.114   0.394   1.994 -0.4370 -0.0413 -0.1582
10212TIP3    H154831   0.067   0.477   2.003 -1.8954 -0.8872  0.3142
10212TIP3    H254832   0.129   0.365   2.084  1.5604  0.4946 -0.2841
10213TIP3   OH254833   5.746   0.582   1.687 -0.0268 -0.0859  0.6415
10213TIP3    H154834   5.832   0.577   1.729 -0.5686 -0.7680  1.7247
10213TIP3    H254835   5.724   0.490   1.669 -2.0190 -0.3006  3.5803
10214TIP3   OH254836   2.883   2.999   8.027 -0.6834 -0.4429 -0.2455
10214TIP3    H154837   2.951   3.055   8.064 -1.1567  0.1056 -0.1947
10214TIP3    H254838   2.801   3.045   8.045 -1.0288 -0.8369 -0.7618
10215TIP3   OH254839   2.758   0.289   8.555  0.1310 -0.1880  0.2778
10215TIP3    H154840   2.731   0.239   8.479 -0.1190 -1.5968  1.2675
10215TIP3    H254841   2.677   0.322   8.593  0.3331  1.7108 -0.8093
10216TIP3   OH254842   0.075   4.295   1.521  0.5971 -0.1659 -0.2591
10216TIP3    H154843   0.160   4.252   1.531  1.4114  1.7309  1.6939
10216TIP3    H254844   0.026   4.273   1.600 -0.5668 -0.7891 -1.1166
10217TIP3   OH254845   4.034   7.097   0.230  1.1059  0.1740 -0.4287
10217TIP3    H154846   3.941   7.080   0.215  1.3071 -0.8877 -0.5159
10217TIP3    H254847   4.035   7.160   0.303  0.3453 -0.5845  0.2505
10218TIP3   OH254848   5.812   3.207   1.295 -0.1230  0.3837  0.0602
10218TIP3    H154849   5.871   3.240   1.363 -0.1337 -0.9977  0.7665
10218TIP3    H254850   5.725   3.237   1.322 -0.1060 -0.0166  0.5806
10219TIP3   OH254851   3.042   0.794   2.921  0.3808 -0.7859  0.8220
10219TIP3    H154852   3.026   0.798   3.015 -2.6263 -2.0050  0.4818
10219TIP3    H254853   2.998   0.871   2.886 -0.5220 -1.5533  0.2335
10220TIP3   OH254854   5.122   4.907   0.873  0.3409  0.0673 -0.0928
10220TIP3    H154855   5.086   4.838   0.929 -0.3906  0.3346 -0.2157
10220TIP3    H254856   5.157   4.972   0.934 -1.1326  0.7237  0.1133
10221TIP3   OH254857   5.350   6.968   8.428  0.5764 -0.5931 -0.3262
10221TIP3    H154858   5.356   6.988   8.521  0.9483  0.1544 -0.5017
10221TIP3    H254859   5.263   6.999   8.402  0.4584 -0.8351 -0.2236
10222TIP3   OH254860   7.261   0.428   0.134  0.2684 -0.0283  0.6271
10222TIP3    H154861   7.306   0.435   0.050  1.8751 -0.1636  1.4369
10222TIP3    H254862   7.266   0.516   0.171  0.6216 -0.2380  1.0871
10223TIP3   OH254863   0.166   5.706   1.836 -0.2430 -0.1122 -0.4978
10223TIP3    H154864   0.140   5.631   1.890  1.1120 -1.5552 -1.7759
10223TIP3    H254865   0.245   5.677   1.791  0.9609  2.4759 -0.2322
10224TIP3   OH254866   2.166   6.928   8.743  0.5120  0.3222 -0.3582
10224TIP3    H154867   2.117   6.858   8.698  0.7052  0.5361 -0.9102
10224TIP3    H254868   2.235   6.882   8.791  0.4737  0.1119 -0.5032
10225TIP3   OH254869   1.394   3.893   0.539 -0.2305  0.5520 -0.5808
10225TIP3    H154870   1.433   3.979   0.551 -3.8622  2.7519 -2.8730
10225TIP3    H254871   1.325   3.888   0.605  1.1296 -1.5569  0.8106
10226TIP3   OH254872   3.855   0.115   9.465 -0.1330 -0.0326  0.1981
10226TIP3    H154873   3.765   0.131   9.493 -0.0326 -1.3484  1.3811
10226TIP3    H254874   3.857   0.022   9.444  0.4933  0.3573 -1.6880
10227TIP3   OH254875   0.508   2.472   2.278 -0.5570 -0.1228  0.6801
10227TIP3    H154876   0.549   2.445   2.360  0.1265  2.4213  1.2638
10227TIP3    H254877   0.459   2.394   2.249  0.0956 -1.4487  2.8822
10228TIP3   OH254878   2.805   0.695   2.502  0.0607  0.4888  0.1292
10228TIP3    H154879   2.813   0.651   2.417  0.9296  0.4448  0.2277
10228TIP3    H254880   2.710   0.701   2.517 -0.0960  0.3433 -0.7594
10229TIP3   OH254881   0.473   0.238   7.238 -0.2469 -0.7822  0.2955
10229TIP3    H154882   0.519   0.317   7.210  1.1807 -2.2673 -1.8256
10229TIP3    H254883   0.483   0.237   7.333 -0.4613  1.6432  0.4001
10230TIP3   OH254884   1.811   0.629   9.350  0.1209  0.1964  0.4110
10230TIP3    H154885   1.828   0.551   9.403 -1.0046  0.1592  0.7425
10230TIP3    H254886   1.801   0.699   9.413 -0.0212  0.3891  0.1753
10231TIP3   OH254887   3.994   4.684   7.198  0.3578 -0.0250 -0.3470
10231TIP3    H154888   4.070   4.734   7.168 -0.6118  0.6903 -1.7028
10231TIP3    H254889   3.920   4.741   7.180 -0.7311 -1.6643 -1.2544
10232TIP3   OH254890   1.788   5.523   8.138  0.2338 -0.0967 -0.5267
10232TIP3    H154891   1.857   5.457   8.130  0.2827  0.0896 -2.0171
10232TIP3    H254892   1.708   5.472   8.147  0.2083 -0.4126 -2.2168
10233TIP3   OH254893   5.442   1.013   7.679  0.7810  0.3125  0.3148
10233TIP3    H154894   5.421   1.094   7.724 -0.4338 -0.2191  0.7509
10233TIP3    H254895   5.519   1.034   7.626  1.0532  1.4793  1.1338
10234TIP3   OH254896   1.666   3.069   2.117 -0.5838  0.2617 -0.7209
10234TIP3    H154897   1.709   2.995   2.076 -0.0843  0.8206 -1.2208
10234TIP3    H254898   1.725   3.096   2.187 -0.4662  0.5668 -0.9344
10235TIP3   OH254899   0.343   7.302   9.637  0.4610  0.4304 -0.0987
10235TIP3    H154900   0.297   7.230   9.679 -0.5943  1.2142  0.1282
10235TIP3    H254901   0.435   7.277   9.640  0.1808 -0.5517  0.6501
10236TIP3   OH254902   0.124   0.717   7.049 -0.4141 -0.1782 -0.0431
10236TIP3    H154903   0.146   0.809   7.039 -0.0056 -0.3119 -0.3963
10236TIP3    H254904   0.039   0.708   7.006 -0.4671  0.0412  0.0169
10237TIP3   OH254905   3.583   6.492   7.018 -0.4694  0.0902 -0.1384
10237TIP3    H154906   3.546   6.551   7.084  1.0410  1.8479 -0.7589
10237TIP3    H254907   3.532   6.412   7.026 -2.1782  1.2361  1.2267
10238TIP3   OH254908   5.919   2.564   9.813 -0.4992 -0.0927 -0.5551
10238TIP3    H154909   5.987   2.590   9.751  2.1727 -1.3565  1.6205
10238TIP3    H254910   5.898   2.644   9.862 -0.2541  0.2026 -0.9328
10239TIP3   OH254911   7.340   4.126   2.907 -0.1397 -0.0507 -0.0981
10239TIP3    H154912   7.266   4.169   2.862  0.4834  1.0407 -0.1169
10239TIP3    H254913   7.409   4.124   2.841 -0.6283 -2.5826 -0.6307
10240TIP3   OH254914   3.354   5.190   8.094  0.3521 -0.2067  0.2233
10240TIP3    H154915   3.371   5.270   8.044  0.0417  0.2358  0.8165
10240TIP3    H254916   3.263   5.199   8.123  0.3508 -0.7265  0.3880
10241TIP3   OH254917   0.660   2.854   7.902 -0.1037 -0.1700 -0.2387
10241TIP3    H154918   0.672   2.759   7.909  1.1854  0.0256  0.5815
10241TIP3    H254919   0.686   2.876   7.813  1.8736 -0.3265  0.2481
10242TIP3   OH254920   2.578   3.428   2.726  0.1792  0.0150  0.3463
10242TIP3    H154921   2.508   3.428   2.661  0.7603 -1.0167 -0.3115
10242TIP3    H254922   2.643   3.367   2.691  0.4299 -0.7057  1.9636
10243TIP3   OH254923   2.183   1.036   9.420 -0.1820 -0.1822 -0.3525
10243TIP3    H154924   2.206   1.061   9.510 -0.9047 -2.2319  0.4576
10243TIP3    H254925   2.092   1.006   9.426 -0.3027 -0.1776 -1.8285
10244TIP3   OH254926   7.337   6.267   1.047 -0.3960 -0.1850  0.0716
10244TIP3    H154927   7.413   6.300   1.095 -0.9531 -0.9947  1.5791
10244TIP3    H254928   7.265   6.324   1.074 -0.5080  0.0321 -0.6691
10245TIP3   OH254929   6.299   7.313   2.006 -0.2718 -0.0072 -0.0134
10245TIP3    H154930   6.304   7.342   1.915  1.9448 -0.2632 -0.0263
10245TIP3    H254931   6.389   7.291   2.029 -1.3189 -4.3463  0.8327
10246TIP3   OH254932   3.397   1.279   0.746 -0.5575 -0.2171 -0.6063
10246TIP3    H154933   3.391   1.355   0.805 -0.4516 -0.9248  0.3316
10246TIP3    H254934   3.485   1.245   0.761 -1.4222 -1.9713  0.8143
10247TIP3   OH254935   0.083   3.700   1.139  0.2397 -0.0919 -0.5675
10247TIP3    H154936   0.073   3.792   1.112 -1.7193  0.1654  0.8284
10247TIP3    H254937   0.152   3.703   1.206 -0.0343  0.4433 -0.2945
10248TIP3   OH254938   4.788   6.294   0.105 -0.1436 -0.4630  0.2155
10248TIP3    H154939   4.752   6.248   0.181  0.6692  0.6868  1.3264
10248TIP3    H254940   4.847   6.230   0.064  0.1313 -0.7840  1.0938
10249TIP3   OH254941   0.046   3.973   1.285  0.1842 -0.4298  0.7815
10249TIP3    H154942  -0.044   3.942   1.279  0.5484 -1.5127  0.6697
10249TIP3    H254943   0.075   3.978   1.194  0.2750 -0.1784  0.8229
10250TIP3   OH254944   2.141   5.732   0.475  0.5014 -0.1583  0.5396
10250TIP3    H154945   2.088   5.654   0.461  0.2239  0.2119 -0.5428
10250TIP3    H254946   2.206   5.705   0.540 -0.0828 -1.0501  0.7741
10251TIP3   OH254947   2.865   5.475   7.036  0.6240  0.5217 -0.2943
10251TIP3    H154948   2.828   5.456   6.950  0.1334  1.4027 -0.2862
10251TIP3    H254949   2.794   5.519   7.083  0.2856 -1.4475  1.1614
10252TIP3   OH254950   2.962   1.643   1.789  0.5163  0.1317  0.0910
10252TIP3    H154951   3.008   1.577   1.737  2.2285 -0.2544  1.9657
10252TIP3    H254952   2.994   1.727   1.755  0.9084 -0.0939 -0.1015
10253TIP3   OH254953   1.697   1.533   7.654 -0.2279  0.3231  0.0919
10253TIP3    H154954   1.663   1.446   7.675 -0.0849  1.0226  4.1591
10253TIP3    H254955   1.792   1.520   7.647 -0.2995  0.0072 -0.3197
10254TIP3   OH254956   1.880   6.027   2.249 -0.7491  0.6319 -0.2821
10254TIP3    H154957   1.973   6.047   2.256 -0.6752 -0.2017  1.8539
10254TIP3    H254958   1.843   6.098   2.196  1.1370  0.7552 -1.5008
10255TIP3   OH254959   0.891   5.381   7.232 -0.1694 -0.1750 -0.1267
10255TIP3    H154960   0.972   5.334   7.216 -0.7941 -0.8140 -1.6657
10255TIP3    H254961   0.824   5.327   7.190 -1.6262 -0.3713  2.2427
10256TIP3   OH254962   0.137   1.227   1.126  0.0288 -0.5312  0.4664
10256TIP3    H154963   0.213   1.179   1.159 -0.1904 -1.3034 -0.1153
10256TIP3    H254964   0.076   1.159   1.097 -0.0488  0.0763 -0.9062
10257TIP3   OH254965   2.198   5.532   7.084 -0.0064  0.4523 -0.3862
10257TIP3    H154966   2.126   5.584   7.048 -0.6543 -0.5023 -0.5361
10257TIP3    H254967   2.203   5.556   7.176  0.7460  1.9083 -0.7847
10258TIP3   OH254968   0.421   7.024   0.491 -0.1984 -0.4850 -0.5089
10258TIP3    H154969   0.351   7.031   0.426  0.4510  0.3351 -1.1519
10258TIP3    H254970   0.466   6.943   0.469  0.0797 -0.1618 -1.1559
10259TIP3   OH254971   4.126   7.121   2.653 -0.1772 -0.2059 -0.2841
10259TIP3    H154972   4.144   7.143   2.744 -1.9662 -0.8916  0.2948
10259TIP3    H254973   4.210   7.129   2.608  0.5531  1.0025  1.2410
10260TIP3   OH254974   0.830   3.952   8.183  0.2291  0.0637 -0.3908
10260TIP3    H154975   0.787   3.986   8.104 -0.0851 -0.2328 -0.3496
10260TIP3    H254976   0.921   3.980   8.175  0.1390  0.2631 -0.7293
10261TIP3   OH254977   3.510   5.942   3.256 -0.4903  0.6738  0.2186
10261TIP3    H154978   3.531   5.880   3.186 -0.8378  0.2592  0.4744
10261TIP3    H254979   3.589   5.995   3.266  0.0751 -0.1956  0.4737
10262TIP3   OH254980   3.380   6.919   8.445  0.7388  0.0362  0.6594
10262TIP3    H154981   3.317   6.974   8.491 -0.7629 -1.0858  0.0203
10262TIP3    H254982   3.465   6.944   8.481  0.1421  2.7616  0.3807
10263TIP3   OH254983   2.162   6.011   1.822  0.1465 -0.4473  0.3884
10263TIP3    H154984   2.142   6.104   1.818 -0.2570 -0.5665 -0.9151
10263TIP3    H254985   2.152   5.988   1.914 -2.5632  0.1989  0.3390
10264TIP3   OH254986   1.095   5.580   0.848  0.2472 -0.1614 -0.0453
10264TIP3    H154987   1.007   5.567   0.813  0.1372  2.4655 -0.9411
10264TIP3    H254988   1.151   5.524   0.794 -0.7770 -1.4879  0.2278
10265TIP3   OH254989   3.949   3.803   2.160  0.2292 -0.1022 -0.4467
10265TIP3    H154990   3.963   3.878   2.101 -0.0818 -0.4804 -1.0202
10265TIP3    H254991   3.897   3.839   2.232  0.4282  0.3260 -0.5126
10266TIP3   OH254992   2.047   6.026   0.506 -0.6822 -0.6336  0.0861
10266TIP3    H154993   1.976   5.989   0.454 -3.0381 -0.3475  2.8526
10266TIP3    H254994   2.082   5.951   0.554 -0.6603 -0.4097  0.4229
10267TIP3   OH254995   1.803   6.986   8.578 -0.4978  0.3505 -0.4408
10267TIP3    H154996   1.844   6.954   8.497 -0.4671 -0.3569 -0.1443
10267TIP3    H254997   1.874   7.033   8.623 -0.0157 -0.8132  0.0372
10268TIP3   OH254998   6.164   0.396   2.202 -0.0213  0.0236 -0.2890
10268TIP3    H154999   6.256   0.370   2.194 -0.0300  0.0727 -0.5323
10268TIP3    H255000   6.163   0.489   2.180 -0.2521 -0.1620 -1.0746
10269TIP3   OH255001   1.004   1.179   2.619 -0.1387  0.1933 -0.0982
10269TIP3    H155002   1.062   1.248   2.587  0.4684 -0.6823 -0.9166
10269TIP3    H255003   0.930   1.226   2.658  0.8496  1.3210  0.4675
10270TIP3   OH255004   7.322   5.056   1.336 -1.1460  0.0223  0.7929
10270TIP3    H155005   7.298   4.991   1.270  1.4673  0.3571 -0.6714
10270TIP3    H255006   7.303   5.014   1.420 -0.9480 -2.0291 -0.1296
10271TIP3   OH255007   4.125   5.641   0.630 -0.1783  0.0073  0.3470
10271TIP3    H155008   4.091   5.584   0.699  1.4223 -0.7194  0.5696
10271TIP3    H255009   4.212   5.665   0.660  0.8631 -0.9271 -1.7457
10272TIP3   OH255010   3.226   2.928   9.239 -0.3013 -0.6896  0.5007
10272TIP3    H155011   3.257   2.840   9.259  0.9126 -0.5622 -0.7260
10272TIP3    H255012   3.303   2.976   9.209 -1.1791  0.4316 -0.0732
10273TIP3   OH255013   4.576   2.491   0.817 -0.2857 -0.2523  0.5117
10273TIP3    H155014   4.572   2.396   0.832 -2.3247 -0.2290  0.3693
10273TIP3    H255015   4.534   2.504   0.733  0.2754  0.7700  0.3740
10274TIP3   OH255016   2.981   2.860   0.208 -0.2453 -0.1710 -0.3970
10274TIP3    H155017   2.910   2.923   0.208  0.3501  0.6185  2.6665
10274TIP3    H255018   3.040   2.888   0.278  1.4459 -2.6102 -0.6863
10275TIP3   OH255019   0.930   2.247   7.653 -0.0732 -0.6581 -0.0003
10275TIP3    H155020   0.988   2.172   7.640  0.8608 -0.0038  0.3245
10275TIP3    H255021   0.926   2.258   7.748  1.6058  1.0611 -0.0751
10276TIP3   OH255022   1.797   1.425   9.207  0.5320  0.2460  0.6962
10276TIP3    H155023   1.851   1.347   9.215  1.2527  0.5219 -1.0901
10276TIP3    H255024   1.709   1.396   9.233  0.8876 -1.0129  0.5593
10277TIP3   OH255025   2.740   7.083   3.042  0.1481  0.1832  0.2695
10277TIP3    H155026   2.730   7.057   3.133 -0.7700  1.9872  0.7165
10277TIP3    H255027   2.656   7.059   3.001 -0.8425  2.5421  0.7611
10278TIP3   OH255028   3.555   4.336   8.450 -0.5140 -0.1029  0.2959
10278TIP3    H155029   3.640   4.300   8.478  0.0437  0.1857 -0.9533
10278TIP3    H255030   3.576   4.422   8.414 -1.4588  0.3057  0.7099
10279TIP3   OH255031   6.762   6.988   0.778 -0.3669  0.4952  0.0130
10279TIP3    H155032   6.800   7.009   0.693  1.7779 -0.7877  0.6031
10279TIP3    H255033   6.836   6.985   0.838 -1.6194 -0.3592  1.6030
10280TIP3   OH255034   1.123   2.172   9.825  0.4344  0.0815 -0.2131
10280TIP3    H155035   1.198   2.185   9.767  0.8187 -0.3383  0.1838
10280TIP3    H255036   1.101   2.080   9.816  1.8549 -0.5548  1.8826
10281TIP3   OH255037   5.086   2.041   0.460 -0.5980  0.2646  1.1329
10281TIP3    H155038   5.157   1.996   0.414 -1.8256 -0.4949 -0.0486
10281TIP3    H255039   5.027   1.971   0.488 -1.8164  1.0204  0.5027
10282TIP3   OH255040   2.964   1.196   6.793 -0.1585 -0.0859 -0.7350
10282TIP3    H155041   3.058   1.196   6.810 -0.0183 -0.9065 -1.4618
10282TIP3    H255042   2.940   1.103   6.787 -0.6795  0.1190 -2.3092
10283TIP3   OH255043   3.348   3.845   0.143  0.0716 -0.0276 -0.7154
10283TIP3    H155044   3.390   3.924   0.176  0.6608 -0.1271 -1.2135
10283TIP3    H255045   3.255   3.857   0.164  0.2447  0.4931 -0.2014
10284TIP3   OH255046   3.452   2.786   9.857 -0.1000 -0.8765 -0.2786
10284TIP3    H155047   3.373   2.822   9.898 -0.0417  0.1999 -1.0751
10284TIP3    H255048   3.524   2.827   9.904  0.0395 -2.5809  1.0897
10285TIP3   OH255049   2.471   3.607   9.016  0.5967  0.3223 -0.4197
10285TIP3    H155050   2.549   3.663   9.011  1.2161 -0.1880  2.2063
10285TIP3    H255051   2.398   3.668   9.015  0.8858  0.7888 -3.5348
10286TIP3   OH255052   2.656   7.184   0.736  0.1440  0.4291 -0.1545
10286TIP3    H155053   2.708   7.175   0.656  1.8392  0.2136  0.9148
10286TIP3    H255054   2.624   7.274   0.734 -2.1149 -0.3020 -2.3368
10287TIP3   OH255055   6.831   1.636   0.990  0.3161  0.3578  0.4080
10287TIP3    H155056   6.808   1.597   0.905  1.1621  0.3344  0.1840
10287TIP3    H255057   6.871   1.720   0.967 -0.5175  0.8822  0.8402
10288TIP3   OH255058   4.921   5.276   0.344  0.5388 -0.5424  0.1368
10288TIP3    H155059   4.896   5.360   0.382  1.7291  0.0867 -0.4402
10288TIP3    H255060   4.842   5.245   0.301 -0.4944 -0.6873  2.0075
10289TIP3   OH255061   1.381   5.332   0.337 -0.6033 -0.5082 -0.7209
10289TIP3    H155062   1.303   5.375   0.373  0.2659 -0.4140  1.1518
10289TIP3    H255063   1.455   5.377   0.378  0.4766 -0.3532 -2.7346
10290TIP3   OH255064   5.967   5.470   8.856 -0.1336 -0.3656 -0.4151
10290TIP3    H155065   5.950   5.393   8.910 -1.3571 -0.0944 -0.3725
10290TIP3    H255066   5.940   5.544   8.911  0.9052  0.0954 -0.4992
10291TIP3   OH255067   4.274   3.299   1.342  0.1939  0.0030 -0.2095
10291TIP3    H155068   4.327   3.221   1.354  0.7852  0.1613 -1.5551
10291TIP3    H255069   4.259   3.303   1.247 -0.3812  1.1564 -0.0921
10292TIP3   OH255070   2.742   3.911   6.703  0.1001 -0.1498 -0.0052
10292TIP3    H155071   2.669   3.956   6.745 -1.1427  1.8287 -3.7780
10292TIP3    H255072   2.820   3.952   6.740 -0.9051  1.7792  0.1041
10293TIP3   OH255073   3.097   1.616   8.467 -0.4052  0.2535 -0.4565
10293TIP3    H155074   3.109   1.524   8.440 -1.7852 -0.0496 -0.1006
10293TIP3    H255075   3.100   1.665   8.385  3.6646  0.3791 -0.4578
10294TIP3   OH255076   2.691   1.171   9.112  0.2334  0.3741  0.0552
10294TIP3    H155077   2.620   1.197   9.171  0.7090  2.7677 -0.2866
10294TIP3    H255078   2.661   1.201   9.026  0.0339 -2.0716 -0.7878
10295TIP3   OH255079   1.271   0.943   1.906  0.1294 -0.6833  0.0587
10295TIP3    H155080   1.256   0.852   1.930 -0.4940 -0.5253  0.2687
10295TIP3    H255081   1.191   0.989   1.932 -0.3640 -0.4014 -1.8102
10296TIP3   OH255082   4.809   0.998   1.693 -0.6213  0.7784 -0.2195
10296TIP3    H155083   4.743   0.936   1.661 -0.1760 -0.3007  0.8850
10296TIP3    H255084   4.807   0.988   1.788  1.9255 -0.1506 -0.1903
10297TIP3   OH255085   1.000   0.278   8.398 -0.0151 -0.1021  0.5056
10297TIP3    H155086   1.004   0.353   8.339 -1.7364  0.3965  0.9582
10297TIP3    H255087   1.043   0.308   8.478 -0.3389  0.2808  0.5416
10298TIP3   OH255088   5.635   7.332   9.897  0.5255 -0.2106  0.3608
10298TIP3    H155089   5.629   7.428   9.889  2.0352  0.2038  2.9943
10298TIP3    H255090   5.688   7.306   9.821  0.4409  1.0977 -0.1790
10299TIP3   OH255091   0.680   0.070   2.547 -0.4949  0.4139 -0.3374
10299TIP3    H155092   0.658   0.061   2.640  1.1103  0.3480  0.0507
10299TIP3    H255093   0.669   0.164   2.530  1.4391  0.8609  0.5530
10300TIP3   OH255094   6.488   3.101   8.795  0.0337  0.3926 -0.0026
10300TIP3    H155095   6.414   3.145   8.837 -1.2760 -1.9402  0.3379
10300TIP3    H255096   6.549   3.083   8.866  1.4266  3.0442 -0.4075
10301TIP3   OH255097   2.762   6.895   0.144  0.6784 -0.1277 -0.0443
10301TIP3    H155098   2.752   6.801   0.131  1.5122 -0.1343 -0.7170
10301TIP3    H255099   2.679   6.923   0.182  0.5541 -1.1887  0.4859
10302TIP3   OH255100   7.210   6.695   9.407  0.0577  0.3737  0.0074
10302TIP3    H155101   7.121   6.712   9.437 -0.0878  0.3754 -0.4221
10302TIP3    H255102   7.206   6.607   9.368  0.0854  0.6468 -0.6253
10303TIP3   OH255103   2.359   0.985   3.214 -0.4629 -0.2003  0.3196
10303TIP3    H155104   2.327   1.046   3.147 -0.5319 -0.7008 -0.1112
10303TIP3    H255105   2.319   0.901   3.191 -0.0259 -0.5013  0.6486
10304TIP3   OH255106   4.330   5.465   8.905 -0.7791 -0.2370 -0.3243
10304TIP3    H155107   4.422   5.453   8.882 -1.2060 -0.0823 -2.3119
10304TIP3    H255108   4.314   5.403   8.976  0.4264 -1.5839 -1.1856
10305TIP3   OH255109   2.564   2.207   0.148 -0.1359  0.0591 -0.2401
10305TIP3    H155110   2.621   2.281   0.126  0.2102  0.2461  1.1529
10305TIP3    H255111   2.622   2.145   0.194 -0.9447  0.0864  0.8639
10306TIP3   OH255112   2.403   1.320   8.008 -0.5961  0.3489  0.0722
10306TIP3    H155113   2.451   1.321   7.925 -1.7298  2.1754 -0.6022
10306TIP3    H255114   2.463   1.277   8.069  1.4300  1.4557 -1.0276
10307TIP3   OH255115   3.576   1.447   2.406 -0.2079  0.0889  0.1528
10307TIP3    H155116   3.566   1.440   2.312  2.1622  1.8106 -0.3305
10307TIP3    H255117   3.487   1.454   2.440 -1.0657  0.6707 -2.0863
10308TIP3   OH255118   0.258   0.601   7.284  0.1334 -0.1598 -0.3026
10308TIP3    H155119   0.236   0.631   7.196 -2.6272 -2.6926 -0.6612
10308TIP3    H255120   0.349   0.573   7.278  0.9822  2.5454 -1.4238
10309TIP3   OH255121   2.328   1.630   0.603 -0.1245 -0.2463  0.7678
10309TIP3    H155122   2.363   1.657   0.688 -0.9239  0.5988  0.8519
10309TIP3    H255123   2.236   1.608   0.622 -0.2222 -0.3512  0.1777
10310TIP3   OH255124   0.511   0.667   9.294  0.0321  0.1320 -0.0844
10310TIP3    H155125   0.595   0.621   9.295 -0.0027  0.0840  0.7275
10310TIP3    H255126   0.465   0.630   9.218  1.1971  0.9974 -1.2690
10311TIP3   OH255127   6.487   1.553   8.719  0.1284 -0.5082 -0.2238
10311TIP3    H155128   6.416   1.490   8.703  1.2437 -1.5738 -1.2591
10311TIP3    H255129   6.537   1.514   8.791  1.9604 -1.9493 -2.1224
10312TIP3   OH255130   2.380   3.636   2.158 -0.4255 -0.1349  0.5292
10312TIP3    H155131   2.414   3.585   2.085  0.7166  0.3440  0.7076
10312TIP3    H255132   2.410   3.589   2.236 -0.8646 -0.1439  0.6980
10313TIP3   OH255133   3.757   2.834   1.688 -0.4560 -0.3861 -0.6459
10313TIP3    H155134   3.772   2.745   1.654 -0.1558 -0.2168 -0.9571
10313TIP3    H255135   3.845   2.872   1.693 -0.6232  0.0343 -0.8955
10314TIP3   OH255136   6.965   2.670   9.146 -0.2333 -0.3971 -0.6450
10314TIP3    H155137   6.969   2.742   9.208 -1.5475  0.7101 -1.7559
10314TIP3    H255138   7.050   2.627   9.152 -0.1123  0.0647  1.4198
10315TIP3   OH255139   3.582   1.984   7.325 -0.0574 -0.1024  0.4041
10315TIP3    H155140   3.604   1.947   7.240  0.7189  1.7950 -0.2785
10315TIP3    H255141   3.638   2.062   7.333 -1.0412  0.5043  2.0746
10316TIP3   OH255142   3.342   4.730   0.690 -0.6465  0.5613 -0.2713
10316TIP3    H155143   3.403   4.765   0.625  0.0120 -0.1744 -0.0654
10316TIP3    H255144   3.399   4.697   0.760 -1.3319  1.0120  0.5178
10317TIP3   OH255145   6.761   7.330   1.648 -0.1083 -0.2813  0.1242
10317TIP3    H155146   6.676   7.290   1.633  0.3792 -1.5080  0.4907
10317TIP3    H255147   6.741   7.421   1.673 -1.1990 -0.0541 -1.4240
10318TIP3   OH255148   2.951   1.200   9.179 -0.3772 -0.1683 -0.2117
10318TIP3    H155149   2.866   1.183   9.139 -0.3345 -1.0194  0.0386
10318TIP3    H255150   3.014   1.159   9.119 -0.1645  0.1704 -0.2255
10319TIP3   OH255151   0.534   3.263   2.053 -0.0986  0.1327 -0.3887
10319TIP3    H155152   0.469   3.329   2.075  0.5907  1.7310 -2.6538
10319TIP3    H255153   0.485   3.192   2.012 -1.0084 -1.5251  3.2063
10320TIP3   OH255154   3.854   6.036   8.694  0.0099  0.2410 -0.0112
10320TIP3    H155155   3.937   5.990   8.695  0.6071  1.1335 -1.9574
10320TIP3    H255156   3.853   6.082   8.609 -2.3594  0.4315  0.0331
10321TIP3   OH255157   3.266   3.586   0.212  0.5949 -0.9968 -0.1457
10321TIP3    H155158   3.245   3.676   0.237  3.1772 -0.5331  0.6501
10321TIP3    H255159   3.278   3.540   0.295 -0.8807 -2.1550 -0.5455
10322TIP3   OH255160   3.801   6.008   0.993  0.0117  0.3910  0.1822
10322TIP3    H155161   3.771   5.927   1.035  0.3885 -0.0880 -0.4482
10322TIP3    H255162   3.758   6.008   0.908  0.5116  0.5247 -0.0739
10323TIP3   OH255163   4.298   4.716   1.360  0.0890 -0.8207  0.5367
10323TIP3    H155164   4.294   4.691   1.268 -1.5454 -0.0151  0.3540
10323TIP3    H255165   4.281   4.635   1.408 -0.3689 -0.9933  0.0911
10324TIP3   OH255166   6.820   0.006   9.883 -0.2234 -0.1232  0.1577
10324TIP3    H155167   6.864  -0.027   9.962 -2.0795 -0.6133  1.0357
10324TIP3    H255168   6.733  -0.033   9.886  0.4868 -2.4679 -3.6595
10325TIP3   OH255169   4.419   4.657   0.117 -0.3126  0.4246 -0.4876
10325TIP3    H155170   4.419   4.676   0.023 -0.6723  1.4756 -0.2871
10325TIP3    H255171   4.330   4.624   0.134 -0.3845  0.6526 -0.4295
10326TIP3   OH255172   1.806   6.636   8.009  0.6609 -0.1126  0.1309
10326TIP3    H155173   1.887   6.624   7.959  0.3371  1.0093 -0.7155
10326TIP3    H255174   1.789   6.550   8.048  2.9144 -0.0855  1.3879
10327TIP3   OH255175   6.803   4.452   7.844  0.1726  0.6804  0.1131
10327TIP3    H155176   6.801   4.421   7.934  2.4761  3.5590  1.2974
10327TIP3    H255177   6.871   4.400   7.802 -1.3485 -1.1224 -0.2534
10328TIP3   OH255178   5.768   3.502   8.360 -0.0304  0.1232  0.4362
10328TIP3    H155179   5.762   3.432   8.295  2.7713 -1.2766  1.5097
10328TIP3    H255180   5.689   3.491   8.414  0.3900 -2.4194  0.6864
10329TIP3   OH255181   3.597   1.346   9.795  0.2146  0.0006 -0.4069
10329TIP3    H155182   3.624   1.317   9.882 -1.0032 -0.3531 -0.1213
10329TIP3    H255183   3.566   1.435   9.809 -0.2955 -0.1726 -0.3974
10330TIP3   OH255184   7.355   2.353   0.394 -0.3320  0.1518 -0.3928
10330TIP3    H155185   7.396   2.334   0.310 -0.6213  0.7773 -0.6903
10330TIP3    H255186   7.316   2.440   0.382 -1.1726 -0.1486  0.0885
10331TIP3   OH255187   3.277   0.287   3.086  0.1156  0.1310  0.1249
10331TIP3    H155188   3.308   0.244   3.006  1.4675 -0.8719  1.1364
10331TIP3    H255189   3.209   0.228   3.119  0.0354  0.1873  0.0578
10332TIP3   OH255190   6.029   0.455   0.170 -0.6323 -0.0945  0.1146
10332TIP3    H155191   5.999   0.399   0.243 -0.6950 -0.7633 -0.4126
10332TIP3    H255192   6.061   0.393   0.105  0.0690  0.5336 -0.1465
10333TIP3   OH255193   5.156   6.082   8.331 -0.0249 -0.6963  0.0498
10333TIP3    H155194   5.200   6.102   8.414 -1.4170 -1.0443  0.8957
10333TIP3    H255195   5.063   6.094   8.349 -0.6157 -3.4061 -0.6340
10334TIP3   OH255196   5.985   6.604   9.542  0.2148 -0.0109 -0.0920
10334TIP3    H155197   6.031   6.584   9.461  0.0696 -0.1212 -0.1481
10334TIP3    H255198   5.896   6.573   9.528 -0.0323  0.7215 -0.2005
10335TIP3   OH255199   6.967   3.708   9.729  0.0024  0.4457  0.0837
10335TIP3    H155200   7.007   3.670   9.650 -2.1398 -1.3508 -0.2665
10335TIP3    H255201   6.980   3.802   9.719  1.6352  0.1330 -1.3401
10336TIP3   OH255202   3.272   2.118   0.910 -0.2073  0.5321  0.1128
10336TIP3    H155203   3.184   2.128   0.874 -0.0011  1.4619 -0.1598
10336TIP3    H255204   3.327   2.097   0.834 -0.2739 -0.6562  0.3674
10337TIP3   OH255205   2.620   2.726   1.233 -0.3045  0.0002 -0.4796
10337TIP3    H155206   2.617   2.793   1.301  2.4542  0.0018 -0.2590
10337TIP3    H255207   2.604   2.773   1.152 -0.3282  0.5678 -0.1486
10338TIP3   OH255208   0.248   3.112   0.626  0.0276  0.4428 -0.3012
10338TIP3    H155209   0.191   3.063   0.686 -0.7439  2.4076  0.6687
10338TIP3    H255210   0.209   3.097   0.540 -0.9398  0.3700  0.1316
10339TIP3   OH255211   3.118   5.899   9.280 -1.1616 -0.2522 -0.6156
10339TIP3    H155212   3.062   5.930   9.210 -0.5429  0.2383 -0.9013
10339TIP3    H255213   3.111   5.965   9.349 -0.3938  0.1744 -0.9372
10340TIP3   OH255214   2.049   0.241   7.260  0.1476 -0.1050 -0.2487
10340TIP3    H155215   1.978   0.274   7.206  0.2658  0.8692  0.1709
10340TIP3    H255216   2.121   0.304   7.246 -0.4145  1.2699  2.4250
10341TIP3   OH255217   3.907   3.516   9.135 -0.1225 -0.3364  0.1487
10341TIP3    H155218   3.873   3.603   9.154 -0.0920 -0.6521  1.7696
10341TIP3    H255219   3.902   3.508   9.040  0.5517  1.7039 -0.0889
10342TIP3   OH255220   6.508   4.377   7.491  0.1141  0.0649 -0.1772
10342TIP3    H155221   6.422   4.415   7.506  0.9007  1.6373  0.5780
10342TIP3    H255222   6.496   4.283   7.507 -1.4783  0.2328 -0.2554
10343TIP3   OH255223   4.748   0.894   0.132  0.0970  0.4610 -0.1088
10343TIP3    H155224   4.824   0.950   0.149  0.5490 -0.3368  0.5359
10343TIP3    H255225   4.684   0.953   0.091  1.2528  1.0206 -1.1647
10344TIP3   OH255226   6.749   0.443   8.070  0.1253 -0.1490  0.2249
10344TIP3    H155227   6.734   0.393   7.990  1.6181  2.4708 -1.8790
10344TIP3    H255228   6.812   0.391   8.120 -1.0255 -1.9603 -0.1288
10345TIP3   OH255229   2.874   1.922   7.153 -0.0609 -0.7133 -0.0566
10345TIP3    H155230   2.793   1.939   7.104  0.1219  2.3590  0.4674
10345TIP3    H255231   2.944   1.937   7.089  0.1074 -0.5815  0.1543
10346TIP3   OH255232   6.903   2.159   0.112 -0.3424  0.2093  0.6189
10346TIP3    H155233   6.978   2.197   0.066 -0.9387  3.2905  1.9330
10346TIP3    H255234   6.932   2.071   0.136  2.9403  1.2749  1.1517
10347TIP3   OH255235   6.106   4.744   8.175 -0.1352 -0.1028  0.5915
10347TIP3    H155236   6.196   4.778   8.171 -0.3071  0.3144  0.0668
10347TIP3    H255237   6.087   4.737   8.269  1.0809 -1.9472  0.7494
10348TIP3   OH255238   4.826   1.795   9.931 -0.2532 -0.0961 -0.4755
10348TIP3    H155239   4.821   1.699   9.935 -2.5430  0.0118  1.7315
10348TIP3    H255240   4.740   1.825   9.960  2.0634  2.6451  5.2128
10349TIP3   OH255241   7.247   3.143   7.735 -0.0327 -0.6879  0.1703
10349TIP3    H155242   7.317   3.114   7.676 -0.1974  0.8445 -0.8429
10349TIP3    H255243   7.245   3.238   7.724 -2.3736 -0.6964  0.0214
10350TIP3   OH255244   3.334   3.960   0.498  0.0044  0.0765 -0.3078
10350TIP3    H155245   3.341   4.001   0.412  3.4106 -2.7443 -1.6336
10350TIP3    H255246   3.283   3.880   0.483  1.5056 -0.9787 -0.0485
10351TIP3   OH255247   4.146   4.133   8.266  0.1331 -0.1958 -0.0130
10351TIP3    H155248   4.154   4.116   8.360 -2.8904  1.6829  0.7180
10351TIP3    H255249   4.134   4.228   8.259  0.3834 -0.2718 -2.3264
10352TIP3   OH255250   4.080   0.554   0.729  0.3611  0.1321  0.2520
10352TIP3    H155251   4.000   0.501   0.731  1.6889 -2.0107 -0.6774
10352TIP3    H255252   4.143   0.504   0.781  1.8414  0.4630 -1.1542
10353TIP3   OH255253   7.008   1.580   0.213 -0.1260 -0.3700  0.0036
10353TIP3    H155254   7.095   1.613   0.234 -1.0835  1.3091  1.6948
10353TIP3    H255255   7.014   1.486   0.228  1.4649 -0.3260 -0.2001
10354TIP3   OH255256   0.288   3.379   9.441 -0.1983  0.0840 -0.3144
10354TIP3    H155257   0.271   3.301   9.388  0.8139  0.5243 -1.3244
10354TIP3    H255258   0.378   3.368   9.471 -1.0067 -0.5650  2.0724
10355TIP3   OH255259   3.811   2.579   1.592  0.6550 -0.1470 -0.3658
10355TIP3    H155260   3.869   2.543   1.659  0.3274  0.7065  0.4046
10355TIP3    H255261   3.778   2.503   1.544  0.2059 -0.8428  1.0112
10356TIP3   OH255262   5.191   5.943   1.391 -0.3128 -0.9248  0.0975
10356TIP3    H155263   5.169   6.035   1.405  0.7058 -0.9369  2.0902
10356TIP3    H255264   5.135   5.895   1.453 -0.9335 -1.6929 -1.0106
10357TIP3   OH255265   1.248   2.856   1.917  0.3173 -0.1022  0.1202
10357TIP3    H155266   1.269   2.914   1.991  2.2972 -1.1982  0.5002
10357TIP3    H255267   1.329   2.853   1.866 -0.0861 -1.6450 -0.4680
10358TIP3   OH255268   3.265   3.321   0.945  0.0132 -0.0934  0.1403
10358TIP3    H155269   3.187   3.363   0.909 -2.3511 -0.3944  4.2792
10358TIP3    H255270   3.252   3.228   0.928  1.7657  0.0931 -2.8759
10359TIP3   OH255271   2.917   6.524   1.996  0.5407  0.0983 -0.0992
10359TIP3    H155272   2.954   6.611   1.980  0.4469 -0.3212 -2.9941
10359TIP3    H255273   2.941   6.473   1.919 -1.0260 -1.9191  0.6692
10360TIP3   OH255274   3.153   6.889   9.945 -0.3032 -0.3124  0.7980
10360TIP3    H155275   3.147   6.874   9.850  0.3773  4.7061 -0.3532
10360TIP3    H255276   3.063   6.881   9.976 -0.6153 -1.6001 -0.3253
10361TIP3   OH255277   7.395   3.888   9.150  0.3212  0.1903 -0.7870
10361TIP3    H155278   7.403   3.973   9.193 -0.0457 -0.2147  0.0924
10361TIP3    H255279   7.461   3.890   9.081  0.3027  1.1956 -0.7862
10362TIP3   OH255280   6.945   2.550   2.155  0.3309 -0.3296 -0.1595
10362TIP3    H155281   6.861   2.587   2.128  0.7009  0.6738  0.0084
10362TIP3    H255282   6.948   2.464   2.113 -0.2501  0.1251 -1.1676
10363TIP3   OH255283   4.605   3.811   0.545 -0.1919  0.9551  0.1637
10363TIP3    H155284   4.641   3.745   0.605 -0.7888 -0.6164 -1.1428
10363TIP3    H255285   4.626   3.779   0.458 -3.7481  0.4553 -0.6533
10364TIP3   OH255286   2.501   5.873   6.802 -0.0176  0.2324  0.3693
10364TIP3    H155287   2.546   5.954   6.826  4.3352 -2.2059  1.5099
10364TIP3    H255288   2.532   5.853   6.713  0.0440 -0.7786  0.5989
10365TIP3   OH255289   0.991   5.564   9.801 -0.0424 -0.1118  0.0097
10365TIP3    H155290   1.014   5.474   9.825  0.9406 -0.5109 -2.1836
10365TIP3    H255291   0.896   5.569   9.816  0.0505 -1.1564  1.1283
10366TIP3   OH255292   0.066   4.161   9.502 -0.1737  0.0396 -0.1572
10366TIP3    H155293   0.144   4.106   9.511 -0.0689  0.4554  1.9340
10366TIP3    H255294   0.086   4.240   9.552 -1.1113  1.1277 -1.4332
10367TIP3   OH255295   0.968   5.281   8.158 -0.1155  0.0663  0.2059
10367TIP3    H155296   0.872   5.281   8.161 -0.2603 -0.0823 -2.2044
10367TIP3    H255297   0.993   5.194   8.189 -0.9319 -0.7925 -1.4266
10368TIP3   OH255298   3.222   4.969   8.968  0.4477  0.1462 -0.5219
10368TIP3    H155299   3.152   4.933   8.915 -0.1281  1.0385 -0.3885
10368TIP3    H255300   3.260   4.893   9.012  1.5664 -0.7668 -2.8768
10369TIP3   OH255301   5.665   2.574   2.466  0.1932  0.0742  0.2767
10369TIP3    H155302   5.725   2.606   2.533 -0.2695 -0.2215  0.8473
10369TIP3    H255303   5.626   2.496   2.505  1.3346 -1.2547 -1.0809
10370TIP3   OH255304   5.452   5.114   9.499 -0.2896  0.2564 -0.6603
10370TIP3    H155305   5.400   5.168   9.439  1.3391  0.0587 -2.3440
10370TIP3    H255306   5.525   5.171   9.525  0.9812 -0.7773 -1.7830
10371TIP3   OH255307   4.581   2.730   8.677 -0.4371  0.0086 -0.0494
10371TIP3    H155308   4.584   2.800   8.612 -1.3497  0.8428  0.7666
10371TIP3    H255309   4.657   2.746   8.733 -1.6068  1.5102  1.2294
10372TIP3   OH255310   3.001   0.675   0.290 -0.0042 -0.0588  0.2804
10372TIP3    H155311   3.085   0.687   0.246  0.6003  1.0882  1.6658
10372TIP3    H255312   2.968   0.764   0.303 -1.4249 -0.4927 -0.1939
10373TIP3   OH255313   5.215   4.640   2.510 -0.0231 -0.6741 -0.5632
10373TIP3    H155314   5.130   4.600   2.530 -0.5766  0.7401 -0.0188
10373TIP3    H255315   5.278   4.586   2.558 -0.6651 -1.3313 -0.4328
10374TIP3   OH255316   7.146   4.855   2.919  0.8299 -0.3785 -0.1760
10374TIP3    H155317   7.109   4.943   2.924 -0.6207 -0.9479 -0.4646
10374TIP3    H255318   7.108   4.817   2.840  1.7429 -1.1374 -0.2643
10375TIP3   OH255319   2.898   4.127   7.818 -0.6176 -0.1526  1.3363
10375TIP3    H155320   2.901   4.047   7.871  1.6401 -0.7908  0.3568
10375TIP3    H255321   2.987   4.138   7.786 -1.3036  1.7336 -0.1156
10376TIP3   OH255322   2.795   5.896   9.577 -0.0521 -0.2315 -0.0491
10376TIP3    H155323   2.868   5.946   9.541  0.2306  2.9804  4.2076
10376TIP3    H255324   2.717   5.948   9.557 -0.5904 -1.1433 -0.4253
10377TIP3   OH255325   1.570   7.101   8.634 -0.0784  0.0685  0.4067
10377TIP3    H155326   1.651   7.057   8.607 -0.8927 -1.1232 -0.1539
10377TIP3    H255327   1.589   7.194   8.620  0.9709 -0.2334 -0.3713
10378TIP3   OH255328   3.660   2.679   2.129  0.0688 -0.2415  0.1827
10378TIP3    H155329   3.669   2.618   2.201 -1.0106  1.1482  1.5450
10378TIP3    H255330   3.750   2.703   2.107  0.3976 -0.4673  1.2537
10379TIP3   OH255331   5.108   4.762   1.910  0.0930  0.0462  0.4655
10379TIP3    H155332   5.049   4.696   1.874 -0.2800  0.1474  0.8704
10379TIP3    H255333   5.050   4.833   1.937  0.5281  0.7254 -0.3494
10380TIP3   OH255334   5.053   3.236   9.851  0.0842  0.4063  0.3215
10380TIP3    H155335   4.959   3.219   9.863  0.2397 -0.3212  0.5158
10380TIP3    H255336   5.057   3.288   9.770 -0.4929  0.5664  0.3893
10381TIP3   OH255337   5.067   3.061   1.066 -0.1766 -0.5998 -0.2749
10381TIP3    H155338   5.006   3.064   0.992 -0.2561  2.9410 -0.2314
10381TIP3    H255339   5.012   3.041   1.142 -0.7603 -0.3668 -0.6306
10382TIP3   OH255340   2.181   3.684   7.611  0.2085  0.1991 -0.1403
10382TIP3    H155341   2.149   3.601   7.574  0.3823 -0.2879  0.7613
10382TIP3    H255342   2.179   3.745   7.538 -1.3715 -0.1981 -0.4754
10383TIP3   OH255343   6.623   5.990   8.341 -0.7078 -0.3230  0.0393
10383TIP3    H155344   6.699   6.047   8.352  0.3985 -1.3215 -1.9244
10383TIP3    H255345   6.658   5.901   8.346 -1.6864 -0.7997 -1.0635
10384TIP3   OH255346   3.222   4.130   2.465  0.2765 -0.3792 -0.5027
10384TIP3    H155347   3.240   4.137   2.372  0.8342  2.6918 -0.2624
10384TIP3    H255348   3.130   4.156   2.474  0.9209  1.9230 -0.0203
10385TIP3   OH255349   2.592   6.770   1.497 -0.3962  1.1358 -0.1359
10385TIP3    H155350   2.676   6.814   1.515 -0.2786  0.1563  1.9766
10385TIP3    H255351   2.528   6.819   1.548 -0.5907  0.1398  0.6153
10386TIP3   OH255352   6.436   2.666   9.088  0.9845 -0.0916 -0.7998
10386TIP3    H155353   6.412   2.649   9.179  0.4233  0.8311 -0.7732
10386TIP3    H255354   6.522   2.709   9.094  0.9982 -0.1296 -0.7137
10387TIP3   OH255355   2.818   4.457   9.526 -0.0176 -0.0454  0.0118
10387TIP3    H155356   2.735   4.408   9.528 -0.2688  0.2226 -2.0468
10387TIP3    H255357   2.842   4.460   9.433  2.4456 -0.3175  0.5794
10388TIP3   OH255358   0.816   5.667   7.219 -0.1946 -0.2810 -0.1675
10388TIP3    H155359   0.904   5.680   7.183  0.3439  1.1436  1.5138
10388TIP3    H255360   0.831   5.620   7.301 -0.8673  0.7628  0.5808
10389TIP3   OH255361   3.186   3.154   6.834 -0.0546 -0.2263 -0.0501
10389TIP3    H155362   3.109   3.211   6.830  0.4088  0.5671  1.6950
10389TIP3    H255363   3.260   3.212   6.818  0.4636 -0.1770  2.2188
10390TIP3   OH255364   1.161   2.856   7.622  0.4374  0.3504 -0.0031
10390TIP3    H155365   1.255   2.847   7.639  0.6299  2.6858  0.5108
10390TIP3    H255366   1.119   2.812   7.696  1.1966  2.2890  1.6472
10391TIP3   OH255367   1.988   5.428   8.499 -0.3306 -0.0230  0.0528
10391TIP3    H155368   1.956   5.505   8.452  0.1947  0.5750  0.6456
10391TIP3    H255369   1.933   5.424   8.578 -0.6853 -0.5526 -0.2163
10392TIP3   OH255370   1.811   0.652   0.115 -0.1757 -0.0460 -0.4009
10392TIP3    H155371   1.810   0.649   0.020  2.0872 -0.0157 -0.4655
10392TIP3    H255372   1.887   0.706   0.137  0.0322 -1.0117  1.4362
10393TIP3   OH255373   5.408   3.406   7.265 -0.4845  0.0199  0.1728
10393TIP3    H155374   5.439   3.442   7.182  0.0109 -0.0157  0.3425
10393TIP3    H255375   5.389   3.483   7.319 -2.2699  0.0951 -0.4822
10394TIP3   OH255376   2.164   5.826   0.058  0.3868 -0.0641  0.6351
10394TIP3    H155377   2.174   5.878   0.138 -0.6188 -1.3485  1.6415
10394TIP3    H255378   2.247   5.837   0.011  0.9331  0.8399  1.7704
10395TIP3   OH255379   1.428   1.336   8.738 -0.0080 -0.1383  0.6588
10395TIP3    H155380   1.447   1.310   8.828 -0.5452 -2.1298  0.2463
10395TIP3    H255381   1.509   1.318   8.690  0.2768  0.9176  0.7046
10396TIP3   OH255382   6.254   3.775   9.994 -0.1138  0.0775 -0.0517
10396TIP3    H155383   6.318   3.799   9.927 -0.4076  1.8326  0.2524
10396TIP3    H255384   6.169   3.786   9.951 -0.3304 -3.4322 -0.8565
10397TIP3   OH255385   3.897   5.828   2.250  0.5729 -0.0437  0.3601
10397TIP3    H155386   3.823   5.884   2.228 -0.0731 -0.9807  0.0792
10397TIP3    H255387   3.958   5.839   2.178 -0.4235 -1.1676 -0.7111
10398TIP3   OH255388   3.266   0.235   2.160 -0.2994  0.1695  0.0128
10398TIP3    H155389   3.238   0.248   2.251 -0.4072 -1.9232  0.3390
10398TIP3    H255390   3.233   0.148   2.138 -1.4874  1.1764 -2.5316
10399TIP3   OH255391   1.181   3.666   6.668  0.4281  0.2952  0.2014
10399TIP3    H155392   1.150   3.756   6.665 -0.5061 -0.0133  0.0370
10399TIP3    H255393   1.101   3.613   6.670  0.9562 -0.5277  0.3781
10400TIP3   OH255394   6.290   0.230   0.299  0.1501  0.1345  0.3750
10400TIP3    H155395   6.300   0.145   0.256  0.6699 -0.2054  1.1393
10400TIP3    H255396   6.228   0.214   0.370 -0.7360  0.6973 -0.2595
10401TIP3   OH255397   1.307   0.546   7.316  0.1763 -0.1100  0.8603
10401TIP3    H155398   1.387   0.559   7.264 -0.2909 -1.3527 -0.2313
10401TIP3    H255399   1.320   0.460   7.358 -1.6159 -1.6294 -1.4267
10402TIP3   OH255400   6.290   7.357   0.493  0.2059 -0.1772 -0.1394
10402TIP3    H155401   6.333   7.440   0.470 -2.6704  1.1135 -1.4122
10402TIP3    H255402   6.272   7.316   0.408 -1.4881 -0.3810  0.3021
10403TIP3   OH255403   3.277   3.542   9.514  0.2286 -0.3501  1.1542
10403TIP3    H155404   3.270   3.458   9.559 -1.4001 -1.0204 -0.2431
10403TIP3    H255405   3.199   3.589   9.540  0.0409 -0.1417  0.2347
10404TIP3   OH255406   1.687   1.053   8.000 -0.5557 -0.1145  0.0164
10404TIP3    H155407   1.730   0.981   7.955 -1.4238 -0.6190 -0.0230
10404TIP3    H255408   1.757   1.097   8.047  0.5074  0.7496 -2.1973
10405TIP3   OH255409   3.236   5.017   7.893 -0.1236 -0.0456 -0.1996
10405TIP3    H155410   3.257   4.934   7.936 -0.3530 -0.0889 -0.1717
10405TIP3    H255411   3.319   5.065   7.892 -0.0405 -0.1838 -0.0158
10406TIP3   OH255412   2.217   6.054   8.913 -0.2138 -0.2681 -0.0192
10406TIP3    H155413   2.163   6.124   8.951  0.7314  0.2058  0.4841
10406TIP3    H255414   2.304   6.093   8.905 -0.1377 -0.7147 -1.6982
10407TIP3   OH255415   2.073   3.996   1.772  0.4875  0.3573  0.1974
10407TIP3    H155416   1.985   4.031   1.780  0.4840  0.3299  0.2774
10407TIP3    H255417   2.063   3.901   1.782  0.4498  0.2970 -0.3855
10408TIP3   OH255418   4.923   6.969   1.097  0.1287  0.0492  0.2848
10408TIP3    H155419   4.906   7.062   1.110 -2.4392 -0.0605 -1.4153
10408TIP3    H255420   4.860   6.926   1.155  0.6380 -0.6259  0.3449
10409TIP3   OH255421   5.216   2.778   0.328  0.3075  0.2203  0.1750
10409TIP3    H155422   5.181   2.689   0.328 -0.1133  0.3662 -1.0881
10409TIP3    H255423   5.303   2.769   0.366  0.0563 -0.6361  0.5894
10410TIP3   OH255424   0.035   6.987   8.845 -0.6542 -0.0167 -0.0973
10410TIP3    H155425   0.080   7.009   8.927 -0.7207  2.1909 -0.5763
10410TIP3    H255426   0.064   6.898   8.824  0.9678  0.1436  1.2541
10411TIP3   OH255427   3.422   6.890   1.164 -0.3400 -0.0229  0.2919
10411TIP3    H155428   3.462   6.879   1.078 -0.0913 -1.0938  0.5211
10411TIP3    H255429   3.351   6.953   1.151 -0.1497  0.0065 -0.6377
10412TIP3   OH255430   1.040   2.729   7.829  0.4720  0.1570 -0.2225
10412TIP3    H155431   1.019   2.646   7.786  0.8037 -0.3029  0.4892
10412TIP3    H255432   0.963   2.749   7.882  0.6755 -0.0617  0.1578
10413TIP3   OH255433   3.847   4.893   1.620  0.0237  0.2803  0.7223
10413TIP3    H155434   3.916   4.839   1.581  2.2594  1.9791  2.1250
10413TIP3    H255435   3.818   4.843   1.696 -2.1278 -1.5569 -1.1465
10414TIP3   OH255436   4.106   2.707   1.652  0.6115 -0.1520  0.1700
10414TIP3    H155437   4.100   2.672   1.563 -0.0296  1.3108 -0.3852
10414TIP3    H255438   4.063   2.641   1.706 -1.5853  0.2533 -0.9929
10415TIP3   OH255439   3.448   0.638   9.111 -0.6291 -0.1819 -0.2698
10415TIP3    H155440   3.353   0.641   9.096 -0.5176  1.5989 -0.7522
10415TIP3    H255441   3.483   0.598   9.032 -0.9802 -1.3500  0.1282
10416TIP3   OH255442   1.807   5.238   0.131 -0.4004 -0.0703  0.5750
10416TIP3    H155443   1.740   5.297   0.099 -0.1472 -0.0558  0.0630
10416TIP3    H255444   1.822   5.176   0.059 -0.5132 -0.6318  1.0201
10417TIP3   OH255445   6.838   0.482   7.575 -0.0463  0.2612  0.0851
10417TIP3    H155446   6.858   0.401   7.621  0.6809 -0.5360 -1.5754
10417TIP3    H255447   6.769   0.522   7.628  0.1362 -1.0224  1.3761
10418TIP3   OH255448   3.948   0.796   0.679 -0.6352  0.0832  0.0406
10418TIP3    H155449   4.001   0.717   0.688  0.1488  0.5705 -0.2601
10418TIP3    H255450   4.007   0.868   0.698 -0.7436  0.7318 -1.8663
10419TIP3   OH255451   4.085   5.803   0.234 -0.5830  0.2863  0.0283
10419TIP3    H155452   4.053   5.860   0.164 -0.7284 -1.2353 -1.2072
10419TIP3    H255453   4.014   5.801   0.298 -1.4705 -0.1949 -0.9519
10420TIP3   OH255454   1.029   2.260   8.256  0.2502 -0.3039 -0.7078
10420TIP3    H155455   1.111   2.272   8.304 -0.1582 -0.6757  0.0968
10420TIP3    H255456   0.964   2.308   8.307  0.2428  1.3810 -2.2064
10421TIP3   OH255457   1.515   3.417   8.511 -0.0914 -0.4338  0.1967
10421TIP3    H155458   1.445   3.357   8.533  0.2607 -1.0326 -0.2687
10421TIP3    H255459   1.501   3.493   8.568 -1.7040 -0.0955 -0.5881
10422TIP3   OH255460   0.794   2.603   7.161  0.2231  0.3417 -0.3760
10422TIP3    H155461   0.704   2.629   7.144 -0.0473 -0.7658 -0.7930
10422TIP3    H255462   0.816   2.546   7.087  0.8885 -0.2631  0.2655
10423TIP3   OH255463   3.520   6.352   9.437 -0.2568  0.1503 -0.3270
10423TIP3    H155464   3.497   6.385   9.350  0.6341  2.1584  0.1366
10423TIP3    H255465   3.546   6.261   9.422 -0.2364  0.4164 -2.1485
10424TIP3   OH255466   6.133   2.058   2.153 -0.0978 -0.6821  0.1710
10424TIP3    H155467   6.054   2.079   2.203 -0.5947 -0.5013 -0.6706
10424TIP3    H255468   6.175   2.143   2.136  0.9762 -0.8649  1.6950
10425TIP3   OH255469   6.099   6.731   0.083  0.1896 -0.1096  0.4918
10425TIP3    H155470   6.083   6.639   0.100  0.4785 -0.0263  1.2857
10425TIP3    H255471   6.072   6.745  -0.008  0.1579 -0.9705  0.3694
10426TIP3   OH255472   6.688   0.350   9.363  0.3571 -0.0320 -0.0269
10426TIP3    H155473   6.655   0.336   9.452 -2.4488  1.8209 -0.6753
10426TIP3    H255474   6.783   0.359   9.374  0.0225  0.9620  2.8938
10427TIP3   OH255475   6.489   4.535   2.232  0.2986 -0.1617 -0.2203
10427TIP3    H155476   6.435   4.470   2.187  0.0741  0.9487 -1.5940
10427TIP3    H255477   6.548   4.483   2.286  0.1764 -1.5223 -1.3432
10428TIP3   OH255478   4.417   3.401   2.209 -0.1265 -0.2612 -0.4839
10428TIP3    H155479   4.354   3.423   2.140 -0.7199  2.1531  0.7208
10428TIP3    H255480   4.365   3.354   2.275  0.0163 -0.8790 -0.8053
10429TIP3   OH255481   5.101   7.040   8.366  0.3030  0.3838 -0.5632
10429TIP3    H155482   5.030   7.073   8.312 -0.6704 -3.2354 -1.8003
10429TIP3    H255483   5.058   6.976   8.424  2.2613 -0.4890 -0.0114
10430TIP3   OH255484   3.148   5.577   0.169  0.6763 -0.0636 -0.1240
10430TIP3    H155485   3.102   5.654   0.134 -0.2452 -0.1854  0.7694
10430TIP3    H255486   3.210   5.613   0.232 -0.7417 -0.1087  1.3519
10431TIP3   OH255487   5.337   7.123   1.620 -0.2474  0.1742 -0.1824
10431TIP3    H155488   5.254   7.165   1.642 -0.2618  0.4699 -0.7658
10431TIP3    H255489   5.381   7.112   1.704 -0.2070  1.4476 -0.0045
10432TIP3   OH255490   2.344   5.392   2.589 -0.2073 -0.6803 -0.2909
10432TIP3    H155491   2.269   5.410   2.532 -0.6376  0.7667  0.6549
10432TIP3    H255492   2.408   5.460   2.566  0.0842 -0.8005  0.1477
10433TIP3   OH255493   3.180   1.331   7.741  0.0634  0.4234  0.5610
10433TIP3    H155494   3.229   1.409   7.768  1.4193  0.4437 -1.6504
10433TIP3    H255495   3.239   1.258   7.761 -0.3726  0.1359  0.8134
10434TIP3   OH255496   3.756   0.029   3.108  0.1014  0.2852  0.1929
10434TIP3    H155497   3.714   0.107   3.072 -1.0998  0.3844  1.7084
10434TIP3    H255498   3.819   0.002   3.041 -2.3349  0.1553 -2.1604
10435TIP3   OH255499   1.416   2.687   0.021 -0.0542 -0.3464 -0.4418
10435TIP3    H155500   1.411   2.783   0.024  1.3623 -0.2351 -0.9312
10435TIP3    H255501   1.495   2.669  -0.030  0.7432 -1.7518  1.1969
10436TIP3   OH255502   1.300   5.336   8.875  0.5546  0.4434  0.3474
10436TIP3    H155503   1.319   5.298   8.789 -1.3008  0.4897 -0.1206
10436TIP3    H255504   1.207   5.320   8.889  0.7980  0.4680  2.3556
10437TIP3   OH255505   2.827   4.749   0.642 -0.0511  0.4256  0.2648
10437TIP3    H155506   2.838   4.810   0.568  1.3801  0.1547  0.2120
10437TIP3    H255507   2.888   4.781   0.708  0.6242 -0.8554  0.2936
10438TIP3   OH255508   3.278   0.771   2.798  0.1317  0.4924 -0.1722
10438TIP3    H155509   3.201   0.753   2.853  0.0780  2.3462  0.4367
10438TIP3    H255510   3.341   0.812   2.858 -0.4083  3.8041 -1.6284
10439TIP3   OH255511   0.212   6.203   2.658 -0.6694 -0.4602  0.4738
10439TIP3    H155512   0.216   6.271   2.590 -1.6067 -1.6639 -0.8214
10439TIP3    H255513   0.119   6.188   2.671 -0.4742 -1.1675  1.1022
   7.45964   7.45964  10.00000
