Title
55513
    1DOPE     N    1   3.881   3.225   7.228  0.4967 -0.0106  0.1034
    1DOPE   HN1    2   3.889   3.318   7.274 -0.9026  0.5778 -0.7608
    1DOPE   HN2    3   3.932   3.154   7.284  0.7131  0.0821  0.0225
    1DOPE   HN3    4   3.932   3.224   7.138 -0.3739 -1.1750 -0.4027
    1DOPE   C12    5   3.739   3.191   7.198 -0.0745 -0.1696 -0.0163
    1DOPE  H12A    6   3.677   3.250   7.269  0.9223  0.5804  0.2477
    1DOPE  H12B    7   3.707   3.086   7.208 -1.1615  0.2675  1.4808
    1DOPE   C11    8   3.703   3.236   7.054  0.2849 -0.5112  0.0875
    1DOPE  H11A    9   3.593   3.220   7.043 -0.1341  0.4601  2.4181
    1DOPE  H11B   10   3.752   3.160   6.990  0.5603 -0.5220  0.3128
    1DOPE     P   11   3.746   3.447   6.895  0.1232 -0.4094  0.8176
    1DOPE   O13   12   3.887   3.489   6.876  0.1029  0.6193  0.3267
    1DOPE   O14   13   3.639   3.549   6.888  0.0684 -0.0278  0.2766
    1DOPE   O11   14   3.730   3.338   6.787 -0.2728  0.5125  0.0742
    1DOPE   O12   15   3.741   3.373   7.034 -0.3302  0.6448 -0.1035
    1DOPE    C1   16   3.600   3.307   6.726 -0.7578  0.6054 -0.1649
    1DOPE    HA   17   3.555   3.397   6.680 -3.3873  0.1476  1.3045
    1DOPE    HB   18   3.525   3.280   6.803 -0.7684 -0.9349 -0.6672
    1DOPE    C2   19   3.607   3.193   6.629 -0.0472 -0.0739 -0.0773
    1DOPE    HS   20   3.657   3.111   6.684  1.0454  0.7496  0.1754
    1DOPE   O21   21   3.667   3.236   6.506  0.0073  0.7837  0.0400
    1DOPE   C21   22   3.760   3.152   6.456 -0.4532 -0.4624 -0.6433
    1DOPE   O22   23   3.811   3.057   6.518 -0.2531 -0.6300 -0.6482
    1DOPE   C22   24   3.800   3.187   6.313  0.2210  0.2351 -0.0293
    1DOPE   H2R   25   3.896   3.132   6.304 -1.5759 -3.5574  1.4883
    1DOPE   H2S   26   3.821   3.296   6.303 -1.9910  0.5301 -2.4264
    1DOPE    C3   27   3.465   3.143   6.581 -0.2298  0.0695  0.4369
    1DOPE    HX   28   3.412   3.094   6.665 -1.4337 -0.3393 -0.5333
    1DOPE    HY   29   3.474   3.076   6.493 -0.3906  2.0814 -1.1910
    1DOPE   O31   30   3.375   3.245   6.546  0.2669  0.0303 -0.1736
    1DOPE   C31   31   3.365   3.273   6.414  0.1552  0.4512 -0.1117
    1DOPE   O32   32   3.433   3.216   6.330  0.0492 -0.4419 -0.0101
    1DOPE   C32   33   3.274   3.396   6.388  0.1346 -0.1421 -0.1007
    1DOPE   H2X   34   3.196   3.376   6.465  0.2930  1.1328  0.4115
    1DOPE   H2Y   35   3.330   3.489   6.413 -0.3319 -0.2681  1.5186
    1DOPE   C23   36   3.708   3.141   6.198 -0.1521 -0.0935  0.3096
    1DOPE   H3R   37   3.612   3.194   6.214  0.1925  0.5630  0.2293
    1DOPE   H3S   38   3.694   3.030   6.198  3.1381 -0.5991 -0.4779
    1DOPE   C24   39   3.766   3.153   6.056  0.3805 -0.9313  0.8498
    1DOPE   H4R   40   3.868   3.109   6.061  1.7395  1.9635  0.3613
    1DOPE   H4S   41   3.774   3.259   6.026 -1.4032 -0.5499  1.5662
    1DOPE   C25   42   3.668   3.088   5.951 -0.0501  0.2404  0.1206
    1DOPE   H5R   43   3.568   3.135   5.967 -0.1437  0.3984 -0.8447
    1DOPE   H5S   44   3.655   2.980   5.972 -1.9730  0.6208  1.2008
    1DOPE   C26   45   3.700   3.121   5.807  0.1555 -0.1790  0.6734
    1DOPE   H6R   46   3.802   3.083   5.788 -0.7282 -1.4732 -2.0346
    1DOPE   H6S   47   3.694   3.232   5.800 -1.4920 -0.3671 -2.2967
    1DOPE   C27   48   3.603   3.060   5.709  0.6352  0.2077  0.4871
    1DOPE   H7R   49   3.498   3.091   5.724  0.5414 -0.8551  2.3220
    1DOPE   H7S   50   3.607   2.950   5.727 -1.4829  0.3404  2.1318
    1DOPE   C28   51   3.641   3.076   5.558 -0.5943 -0.4898  0.6433
    1DOPE   H8R   52   3.578   2.999   5.509 -0.1601  0.3355 -1.3030
    1DOPE   H8S   53   3.748   3.048   5.557 -0.1110  1.2449 -0.1981
    1DOPE   C29   54   3.615   3.214   5.512  1.3202 -0.5774 -0.0622
    1DOPE   H9R   55   3.542   3.267   5.574  2.8802 -1.7817  3.0286
    1DOPE  C210   56   3.691   3.291   5.438 -0.0172  0.2148  0.0558
    1DOPE  H10R   57   3.658   3.394   5.420  1.6371  0.5540 -1.3746
    1DOPE  C211   58   3.806   3.236   5.352 -0.3837 -0.4417 -0.6179
    1DOPE  H11R   59   3.854   3.143   5.389  2.8154  1.0896 -0.5965
    1DOPE  H11S   60   3.878   3.320   5.345 -0.7560 -0.2435 -3.0520
    1DOPE  C212   61   3.789   3.200   5.203 -0.1070 -0.8203  0.0515
    1DOPE  H12R   62   3.886   3.164   5.163 -0.2321 -1.6429  0.4706
    1DOPE  H12S   63   3.763   3.288   5.140 -0.8709  0.1807  1.7084
    1DOPE  C213   64   3.673   3.102   5.187  0.0033 -0.5315  0.0960
    1DOPE  H13R   65   3.574   3.134   5.227 -1.7553 -0.2958 -3.9671
    1DOPE  H13S   66   3.684   3.003   5.236  1.8898  0.4986  1.9389
    1DOPE  C214   67   3.652   3.074   5.031  0.2982  0.2290  0.9314
    1DOPE  H14R   68   3.736   3.017   4.985  1.7761  3.1861 -0.2788
    1DOPE  H14S   69   3.648   3.175   4.985  3.0653  0.8427  1.8278
    1DOPE  C215   70   3.516   3.009   5.011 -0.3068  0.4500  0.0223
    1DOPE  H15R   71   3.442   3.048   5.084 -2.2200 -1.5629 -0.7134
    1DOPE  H15S   72   3.520   2.898   5.020  2.8397  0.2928 -1.8153
    1DOPE  C216   73   3.459   3.021   4.863  0.4576 -0.1684  0.0928
    1DOPE  H16R   74   3.547   2.987   4.804 -0.6256 -0.6954 -1.2724
    1DOPE  H16S   75   3.428   3.126   4.848 -1.2607 -0.3926  1.6645
    1DOPE  C217   76   3.330   2.943   4.837 -0.2491  0.3038  0.6454
    1DOPE  H17R   77   3.246   2.976   4.901  2.5598 -0.6626  5.3596
    1DOPE  H17S   78   3.357   2.840   4.869 -0.0443 -0.0668 -0.6532
    1DOPE  C218   79   3.285   2.931   4.690 -0.5117 -0.2273  1.0708
    1DOPE  H18R   80   3.361   2.872   4.636 -2.5291 -0.9105 -1.1985
    1DOPE  H18S   81   3.286   3.028   4.635 -0.7411 -0.3563  0.8345
    1DOPE  H18T   82   3.188   2.878   4.681 -0.7859  0.5912 -3.7450
    1DOPE   C33   83   3.199   3.408   6.257 -0.2196 -0.1041  0.2969
    1DOPE   H3X   84   3.270   3.390   6.173 -1.3725 -1.2861 -0.4510
    1DOPE   H3Y   85   3.162   3.513   6.252 -2.4407 -0.8644 -0.2220
    1DOPE   C34   86   3.075   3.316   6.227 -0.0070  0.2620 -0.3168
    1DOPE   H4X   87   3.115   3.213   6.214  0.9098  0.6279 -0.4451
    1DOPE   H4Y   88   3.003   3.323   6.311  1.8494  0.8062  1.2840
    1DOPE   C35   89   3.010   3.350   6.091  0.7022 -0.1085 -0.5592
    1DOPE   H5X   90   2.970   3.454   6.091 -0.9458 -0.6813  1.3934
    1DOPE   H5Y   91   2.923   3.282   6.073  0.4512  0.4156 -1.4147
    1DOPE   C36   92   3.105   3.325   5.971  0.1266  0.0245  0.6261
    1DOPE   H6X   93   3.151   3.226   5.992  1.9592  0.6833 -0.0151
    1DOPE   H6Y   94   3.193   3.393   5.973  1.5945 -1.7930  1.0139
    1DOPE   C37   95   3.030   3.326   5.832 -0.2738 -0.7694 -0.2866
    1DOPE   H7X   96   2.953   3.246   5.830  0.0250 -1.1139 -3.6714
    1DOPE   H7Y   97   2.973   3.421   5.823 -0.8182 -0.9976  0.5989
    1DOPE   C38   98   3.120   3.296   5.713  0.3854 -0.3813 -0.6307
    1DOPE   H8X   99   3.056   3.249   5.635  1.8992 -1.1672 -1.4486
    1DOPE   H8Y  100   3.182   3.213   5.753 -0.9321 -0.8654  0.4873
    1DOPE   C39  101   3.224   3.406   5.667  0.3651  0.3001 -0.4304
    1DOPE   H9X  102   3.295   3.429   5.748 -0.9191  2.8539  0.0848
    1DOPE  C310  103   3.233   3.469   5.554  0.4757  0.1699  0.2007
    1DOPE  H10X  104   3.309   3.548   5.543 -0.4368  0.9047 -1.1803
    1DOPE  C311  105   3.131   3.457   5.434 -0.0352 -0.8251 -0.5792
    1DOPE  H11X  106   3.037   3.400   5.451  0.0407 -0.3999  1.5687
    1DOPE  H11Y  107   3.097   3.559   5.405  0.3586  0.1075  1.9555
    1DOPE  C312  108   3.201   3.406   5.310 -0.2628  0.2191 -0.1184
    1DOPE  H12X  109   3.129   3.412   5.226 -1.2954  0.2367  0.7513
    1DOPE  H12Y  110   3.230   3.303   5.341 -1.2798  0.1021  0.4852
    1DOPE  C313  111   3.331   3.469   5.257 -0.0056 -0.0177 -0.4937
    1DOPE  H13X  112   3.316   3.576   5.232 -1.2493  0.0022  0.2753
    1DOPE  H13Y  113   3.412   3.465   5.333 -0.4206  1.3943  0.0405
    1DOPE  C314  114   3.385   3.396   5.141 -0.4731  0.4198 -0.7100
    1DOPE  H14X  115   3.319   3.397   5.051  0.3994 -2.1235 -1.4746
    1DOPE  H14Y  116   3.388   3.288   5.168 -0.4377  1.0442  1.9727
    1DOPE  C315  117   3.531   3.429   5.111  0.1575 -0.5327 -0.4385
    1DOPE  H15X  118   3.580   3.359   5.040  0.8954  0.7027 -1.1893
    1DOPE  H15Y  119   3.592   3.430   5.205  0.6900 -0.5881 -0.7764
    1DOPE  C316  120   3.545   3.567   5.038  0.1391 -0.1716 -0.1437
    1DOPE  H16X  121   3.445   3.614   5.041 -0.4502 -1.4178  0.5543
    1DOPE  H16Y  122   3.571   3.546   4.932  0.5695  0.3605 -0.1482
    1DOPE  C317  123   3.644   3.664   5.104  1.4917 -0.7788 -0.6179
    1DOPE  H17X  124   3.605   3.705   5.199  1.8292  2.0875 -1.6165
    1DOPE  H17Y  125   3.731   3.599   5.127  0.4187 -2.5367 -1.3434
    1DOPE  C318  126   3.673   3.785   5.022 -0.2944 -0.0939 -0.1253
    1DOPE  H18X  127   3.771   3.833   5.043 -0.0443 -1.6349  2.6775
    1DOPE  H18Y  128   3.665   3.770   4.912  1.2068 -0.9335 -0.1538
    1DOPE  H18Z  129   3.592   3.856   5.048 -0.5923 -0.3302 -0.4047
    2DOPE     N  130   3.572   3.769   7.044 -0.3175  0.7429  0.0736
    2DOPE   HN1  131   3.508   3.716   7.106  0.1855  1.6408  1.3926
    2DOPE   HN2  132   3.612   3.697   6.980  1.7651 -0.2382  2.3198
    2DOPE   HN3  133   3.651   3.795   7.106  0.0033  1.8462 -0.7515
    2DOPE   C12  134   3.522   3.891   6.969 -0.4765 -0.1193 -0.1635
    2DOPE  H12A  135   3.444   3.857   6.897 -0.8798  1.7908 -0.6909
    2DOPE  H12B  136   3.605   3.937   6.911  1.2906 -1.0250  1.5508
    2DOPE   C11  137   3.469   3.997   7.068  0.0326  0.2496  0.6386
    2DOPE  H11A  138   3.386   3.948   7.123 -0.9988  1.7576  0.4837
    2DOPE  H11B  139   3.426   4.083   7.013  4.6290  1.2783 -1.8324
    2DOPE     P  140   3.669   4.158   7.128 -0.0827 -0.1308 -0.2979
    2DOPE   O13  141   3.804   4.115   7.151 -0.2637  0.4057 -0.2861
    2DOPE   O14  142   3.636   4.274   7.210  0.2300  0.4072  0.2672
    2DOPE   O11  143   3.637   4.183   6.975  0.3567  0.1104 -0.2750
    2DOPE   O12  144   3.565   4.049   7.163 -0.1493  0.7896  0.3742
    2DOPE    C1  145   3.716   4.275   6.896 -0.2565 -0.1213  0.4483
    2DOPE    HA  146   3.731   4.224   6.799  0.6729 -0.8491  0.9569
    2DOPE    HB  147   3.821   4.291   6.929  0.2165 -0.4713 -0.8149
    2DOPE    C2  148   3.652   4.415   6.874  0.4487 -0.4706 -0.2072
    2DOPE    HS  149   3.653   4.472   6.969  1.4127 -0.1093 -0.4147
    2DOPE   O21  150   3.510   4.395   6.834 -0.2659 -0.4592 -0.3708
    2DOPE   C21  151   3.436   4.505   6.846  0.0013 -0.0155  0.4405
    2DOPE   O22  152   3.479   4.611   6.883 -0.3371 -0.0835 -0.0229
    2DOPE   C22  153   3.294   4.460   6.814  0.0886  0.0934  0.7626
    2DOPE   H2R  154   3.230   4.468   6.905  0.0298  1.1857  0.6436
    2DOPE   H2S  155   3.300   4.351   6.794  1.0385  0.1422  0.7294
    2DOPE    C3  156   3.730   4.498   6.764 -0.0481  0.9490 -0.4698
    2DOPE    HX  157   3.836   4.495   6.797 -1.2328 -0.8942  3.8488
    2DOPE    HY  158   3.694   4.603   6.767  0.8281  1.2302  0.8875
    2DOPE   O31  159   3.719   4.436   6.635  0.1454  0.4435  0.2260
    2DOPE   C31  160   3.799   4.491   6.543  0.0398 -0.7888  0.5584
    2DOPE   O32  161   3.890   4.567   6.569 -0.5996  0.1357  0.4466
    2DOPE   C32  162   3.753   4.458   6.398 -0.1347  0.7569 -0.3857
    2DOPE   H2X  163   3.743   4.348   6.382 -2.2504  1.0486 -1.5321
    2DOPE   H2Y  164   3.649   4.493   6.377 -1.7370 -2.4504  1.3922
    2DOPE   C23  165   3.238   4.533   6.699  0.0050 -0.1718 -0.5005
    2DOPE   H3R  166   3.246   4.642   6.713 -2.1072  0.1227 -1.2061
    2DOPE   H3S  167   3.129   4.511   6.705  0.2919 -1.8535 -0.8542
    2DOPE   C24  168   3.287   4.497   6.555  0.2881 -0.5367  0.2841
    2DOPE   H4R  169   3.290   4.387   6.539 -0.9145 -0.4342 -0.8334
    2DOPE   H4S  170   3.389   4.541   6.557  0.0366  0.1503 -0.8094
    2DOPE   C25  171   3.192   4.550   6.442  0.3014 -0.9608 -0.4371
    2DOPE   H5R  172   3.140   4.641   6.481  0.2583 -1.5775  0.9937
    2DOPE   H5S  173   3.117   4.471   6.422 -0.2100 -0.1658 -1.7857
    2DOPE   C26  174   3.271   4.577   6.312 -0.7684  0.0941 -0.0678
    2DOPE   H6R  175   3.205   4.596   6.224  0.2202  0.5102 -0.7413
    2DOPE   H6S  176   3.339   4.489   6.306  0.6935  1.2202 -0.6771
    2DOPE   C27  177   3.357   4.701   6.304 -0.0679  0.6601  0.3980
    2DOPE   H7R  178   3.428   4.702   6.390 -0.6607  2.3653  0.9228
    2DOPE   H7S  179   3.291   4.790   6.317 -1.6471 -0.0017 -2.4250
    2DOPE   C28  180   3.450   4.709   6.183  0.2547 -0.1341 -0.3461
    2DOPE   H8R  181   3.396   4.734   6.089 -1.8533 -0.1233  0.7967
    2DOPE   H8S  182   3.514   4.619   6.169  0.7115 -0.0961  1.2536
    2DOPE   C29  183   3.542   4.833   6.201 -0.1850 -0.6993 -0.3587
    2DOPE   H9R  184   3.512   4.906   6.278  0.6867 -1.1916  0.4776
    2DOPE  C210  185   3.655   4.859   6.122  0.0064  0.0214 -0.2981
    2DOPE  H10R  186   3.711   4.949   6.154  0.1026 -0.1223 -0.0618
    2DOPE  C211  187   3.695   4.772   6.003 -0.0567 -0.5165 -0.1023
    2DOPE  H11R  188   3.604   4.731   5.954  0.1184 -3.1824  1.5769
    2DOPE  H11S  189   3.757   4.686   6.037 -0.6756 -0.4683  1.2030
    2DOPE  C212  190   3.758   4.859   5.898 -0.3410  0.7392 -0.7459
    2DOPE  H12R  191   3.862   4.887   5.925  1.1411 -3.8700 -0.8264
    2DOPE  H12S  192   3.691   4.945   5.876 -1.4467  0.2361  0.4983
    2DOPE  C213  193   3.756   4.789   5.768  0.2160  0.0246 -0.1531
    2DOPE  H13R  194   3.651   4.762   5.742  0.1766  0.1346 -0.1104
    2DOPE  H13S  195   3.809   4.691   5.779  0.7493 -0.1259 -3.3200
    2DOPE  C214  196   3.816   4.874   5.654  0.4422 -0.0391 -0.2012
    2DOPE  H14R  197   3.739   4.951   5.630 -0.7810  0.1080  3.5624
    2DOPE  H14S  198   3.823   4.795   5.576 -0.0258  0.9774 -1.3089
    2DOPE  C215  199   3.947   4.943   5.686 -0.0908 -0.2127  0.1153
    2DOPE  H15R  200   4.025   4.865   5.703  1.9884  1.3468 -1.6967
    2DOPE  H15S  201   3.928   5.015   5.768 -0.6491 -0.8124  0.5257
    2DOPE  C216  202   3.995   5.013   5.559 -0.8533  0.3275  0.4296
    2DOPE  H16R  203   3.921   5.090   5.528 -0.2332  0.9084  0.3719
    2DOPE  H16S  204   4.009   4.933   5.483  0.6202 -0.0294  1.0422
    2DOPE  C217  205   4.134   5.072   5.574 -0.1702  0.8413 -0.7929
    2DOPE  H17R  206   4.200   4.988   5.605  0.9511  1.9791 -0.0225
    2DOPE  H17S  207   4.121   5.130   5.668  2.0581  1.0892 -0.5775
    2DOPE  C218  208   4.190   5.157   5.469  0.2274 -0.0645  0.3375
    2DOPE  H18R  209   4.101   5.217   5.440 -0.4825 -1.6993 -1.0617
    2DOPE  H18S  210   4.234   5.100   5.384  0.1357  1.2244 -0.6063
    2DOPE  H18T  211   4.268   5.230   5.500 -0.9373  1.2783  0.2447
    2DOPE   C33  212   3.854   4.516   6.304 -0.8663  0.3903 -0.5884
    2DOPE   H3X  213   3.953   4.482   6.340 -0.2334  2.7382  0.1113
    2DOPE   H3Y  214   3.852   4.626   6.287  0.1034  0.5354  0.1514
    2DOPE   C34  215   3.831   4.455   6.169 -0.2085 -0.1579  0.5966
    2DOPE   H4X  216   3.832   4.344   6.175  0.9686 -0.2066 -0.0791
    2DOPE   H4Y  217   3.739   4.496   6.122  0.1408 -0.7366 -0.6444
    2DOPE   C35  218   3.951   4.473   6.076 -0.1798 -0.0481  0.4664
    2DOPE   H5X  219   4.034   4.417   6.125  0.0219  0.5559  0.8230
    2DOPE   H5Y  220   3.970   4.582   6.062  0.6525 -0.0165  1.6682
    2DOPE   C36  221   3.908   4.419   5.937  0.5687  0.1129 -0.8742
    2DOPE   H6X  222   3.812   4.466   5.906 -0.1605  0.4980  1.7602
    2DOPE   H6Y  223   3.890   4.310   5.941 -1.7485  0.4734  0.0615
    2DOPE   C37  224   4.019   4.443   5.826 -0.2114 -0.7261  0.2032
    2DOPE   H7X  225   4.045   4.548   5.801 -0.4356 -0.7087  0.0464
    2DOPE   H7Y  226   4.114   4.391   5.850 -0.4391 -1.4240 -0.3719
    2DOPE   C38  227   3.955   4.392   5.692 -0.6791  0.5170 -0.1336
    2DOPE   H8X  228   3.876   4.467   5.668 -1.6787 -0.0086  1.3546
    2DOPE   H8Y  229   3.894   4.300   5.691 -0.2468  0.1566  1.7241
    2DOPE   C39  230   4.056   4.390   5.580  0.0039  0.1030  0.3717
    2DOPE   H9X  231   4.160   4.369   5.611 -0.0516 -0.8870 -0.0619
    2DOPE  C310  232   4.033   4.429   5.458  0.3178  0.2842 -0.0977
    2DOPE  H10X  233   4.111   4.415   5.382 -0.3044  2.3252 -1.1814
    2DOPE  C311  234   3.911   4.482   5.390 -0.0387 -0.3228 -0.4606
    2DOPE  H11X  235   3.827   4.418   5.427  0.6553 -1.1474 -0.2852
    2DOPE  H11Y  236   3.893   4.584   5.430  1.4986 -0.1340 -0.1953
    2DOPE  C312  237   3.916   4.483   5.234 -0.4920 -0.2506 -0.3178
    2DOPE  H12X  238   3.817   4.482   5.183 -0.6244 -1.6477 -0.0859
    2DOPE  H12Y  239   3.958   4.388   5.194 -0.3452 -0.8285  1.1663
    2DOPE  C313  240   3.992   4.612   5.192 -0.7637  0.4818  0.0236
    2DOPE  H13X  241   4.091   4.625   5.239 -0.3380 -0.6904 -0.5113
    2DOPE  H13Y  242   4.007   4.596   5.083 -1.4862  0.4216 -0.0779
    2DOPE  C314  243   3.913   4.743   5.224 -0.2830 -0.4358 -0.0365
    2DOPE  H14X  244   3.980   4.822   5.183 -0.7382 -0.3817 -0.7007
    2DOPE  H14Y  245   3.904   4.769   5.332 -0.1440  1.7469 -0.4982
    2DOPE  C315  246   3.777   4.764   5.148  0.1506  0.4963 -0.1483
    2DOPE  H15X  247   3.721   4.850   5.191 -2.1879 -1.3585  0.7737
    2DOPE  H15Y  248   3.710   4.680   5.177 -0.5097  0.7820 -0.7964
    2DOPE  C316  249   3.791   4.777   5.003  0.2867 -0.2333 -0.5435
    2DOPE  H16X  250   3.690   4.788   4.959 -1.0457 -0.5467  2.1919
    2DOPE  H16Y  251   3.834   4.679   4.971  2.8942  0.4660  0.5492
    2DOPE  C317  252   3.885   4.888   4.952  0.8538  0.7803  0.0192
    2DOPE  H17X  253   3.986   4.858   4.988  0.4267  1.7821  2.2417
    2DOPE  H17Y  254   3.876   4.878   4.842  1.8448 -0.1685  0.0070
    2DOPE  C318  255   3.856   5.034   4.984 -0.2851  0.1126  1.0387
    2DOPE  H18X  256   3.932   5.097   4.933 -0.3865 -1.1776 -0.7774
    2DOPE  H18Y  257   3.755   5.059   4.946 -2.0281 -1.8955  3.9550
    2DOPE  H18Z  258   3.847   5.044   5.095 -2.1177 -0.2070  0.9452
    3DOPE     N  259   2.641   4.412   6.798 -0.2651  0.2905  0.0069
    3DOPE   HN1  260   2.599   4.460   6.881 -0.1143 -0.8116  0.7495
    3DOPE   HN2  261   2.579   4.331   6.776  0.0588  0.1487 -0.3803
    3DOPE   HN3  262   2.724   4.366   6.840 -0.5637 -0.2434  0.0272
    3DOPE   C12  263   2.669   4.490   6.663  0.4245  0.0433  0.7744
    3DOPE  H12A  264   2.573   4.513   6.613  0.8926 -1.4226 -0.8905
    3DOPE  H12B  265   2.733   4.427   6.598  0.1318  0.2195  0.3130
    3DOPE   C11  266   2.740   4.626   6.674  0.0282 -0.0700  0.4383
    3DOPE  H11A  267   2.748   4.663   6.570 -0.2518 -2.4745 -0.5088
    3DOPE  H11B  268   2.841   4.616   6.719 -0.0390  0.6225  0.7585
    3DOPE     P  269   2.720   4.839   6.814  0.1627 -0.0652 -0.1897
    3DOPE   O13  270   2.794   4.815   6.938  0.1696  0.3551  0.2889
    3DOPE   O14  271   2.620   4.947   6.805  0.0567  0.7474  0.2885
    3DOPE   O11  272   2.826   4.867   6.708  0.3019 -0.2664  0.4110
    3DOPE   O12  273   2.657   4.702   6.760  0.5741 -0.1427  0.0834
    3DOPE    C1  274   2.846   4.978   6.620  0.4274 -0.2684 -0.4266
    3DOPE    HA  275   2.944   5.027   6.637 -1.3523  3.6183 -0.3844
    3DOPE    HB  276   2.776   5.063   6.633 -0.2796 -0.8116 -0.6268
    3DOPE    C2  277   2.827   4.938   6.471 -0.9151 -0.0455  0.1595
    3DOPE    HS  278   2.828   5.032   6.412 -0.2638 -0.1413  0.0092
    3DOPE   O21  279   2.710   4.856   6.446  1.0921 -0.1490  0.5074
    3DOPE   C21  280   2.594   4.919   6.438  0.3210 -0.9444 -0.4590
    3DOPE   O22  281   2.582   5.041   6.461  0.0723 -0.2249  0.3381
    3DOPE   C22  282   2.477   4.830   6.396 -0.4358  0.2864  0.1204
    3DOPE   H2R  283   2.432   4.880   6.308 -0.7161 -0.8021 -0.3681
    3DOPE   H2S  284   2.400   4.821   6.477 -0.2289  0.0440  0.2920
    3DOPE    C3  285   2.948   4.854   6.424 -0.6655 -0.5118 -0.0610
    3DOPE    HX  286   2.932   4.748   6.454  1.3962 -0.8794 -0.1060
    3DOPE    HY  287   3.035   4.899   6.476 -0.6340  0.8875 -1.2408
    3DOPE   O31  288   2.978   4.847   6.284  0.5078 -0.0511  0.0705
    3DOPE   C31  289   3.069   4.926   6.232  0.1612  0.0930 -0.1884
    3DOPE   O32  290   3.130   5.011   6.301 -0.1454  0.2025  0.2248
    3DOPE   C32  291   3.073   4.917   6.084  0.2607 -0.3587 -0.3369
    3DOPE   H2X  292   3.052   4.814   6.047 -0.4570 -1.0865  1.9326
    3DOPE   H2Y  293   2.988   4.975   6.041 -0.9118 -1.0597  0.9420
    3DOPE   C23  294   2.522   4.691   6.348 -0.1702 -0.8743  0.5781
    3DOPE   H3R  295   2.431   4.627   6.346 -1.5809  1.0802 -0.1461
    3DOPE   H3S  296   2.593   4.650   6.423  1.2490 -1.1382 -0.8446
    3DOPE   C24  297   2.570   4.697   6.208 -0.5484 -0.2602 -0.0947
    3DOPE   H4R  298   2.655   4.769   6.217  0.1577 -1.2737  2.1837
    3DOPE   H4S  299   2.502   4.747   6.136  0.9736  0.9655 -0.7512
    3DOPE   C25  300   2.611   4.566   6.139  0.0970 -0.0286  0.2791
    3DOPE   H5R  301   2.532   4.487   6.143  1.1232 -1.4183 -3.1302
    3DOPE   H5S  302   2.700   4.531   6.197 -1.0580 -1.0127  1.5530
    3DOPE   C26  303   2.673   4.588   5.998  0.4749  0.8890  0.1477
    3DOPE   H6R  304   2.753   4.663   6.015  1.5273 -0.3834  0.9210
    3DOPE   H6S  305   2.597   4.633   5.930  0.7275  0.6698 -0.2895
    3DOPE   C27  306   2.726   4.462   5.922 -0.6495 -0.2184  0.0895
    3DOPE   H7R  307   2.645   4.413   5.864  1.2886 -2.6850 -0.7287
    3DOPE   H7S  308   2.778   4.387   5.985 -0.4559  0.3052  0.5634
    3DOPE   C28  309   2.819   4.496   5.808 -0.8172 -0.3546  0.2446
    3DOPE   H8R  310   2.799   4.585   5.745 -2.7644 -1.4906 -0.8282
    3DOPE   H8S  311   2.821   4.409   5.739  0.9500  0.0776 -0.3095
    3DOPE   C29  312   2.960   4.503   5.865 -0.3772  0.4717  0.3774
    3DOPE   H9R  313   2.987   4.598   5.912 -1.7712  1.1056 -0.0573
    3DOPE  C210  314   3.050   4.407   5.867  0.3584 -0.3683  0.0502
    3DOPE  H10R  315   3.148   4.423   5.915  1.5042  0.6338 -2.4487
    3DOPE  C211  316   3.021   4.264   5.831 -0.0463  0.3136  0.7241
    3DOPE  H11R  317   2.912   4.248   5.817 -0.2342  1.7805  0.3762
    3DOPE  H11S  318   3.045   4.186   5.906  0.3536 -2.2366 -1.8747
    3DOPE  C212  319   3.086   4.232   5.693  0.1029  0.2186 -0.1196
    3DOPE  H12R  320   3.193   4.204   5.703 -0.0209 -0.4166 -0.5259
    3DOPE  H12S  321   3.077   4.319   5.624 -3.6492 -0.7935 -1.1243
    3DOPE  C213  322   3.021   4.108   5.633 -0.0151 -0.5784 -0.0592
    3DOPE  H13R  323   2.958   4.066   5.714 -0.3419 -0.4269 -0.2342
    3DOPE  H13S  324   3.100   4.036   5.604  0.2896  0.3822 -1.8033
    3DOPE  C214  325   2.954   4.152   5.505  0.0960  0.4264  0.5103
    3DOPE  H14R  326   2.908   4.062   5.459 -2.5005  0.4319  2.8784
    3DOPE  H14S  327   3.035   4.185   5.435  0.3697 -1.7962 -0.3204
    3DOPE  C215  328   2.836   4.245   5.512 -0.3717 -0.2092 -1.2154
    3DOPE  H15R  329   2.874   4.339   5.559 -0.4866 -1.0256  0.5833
    3DOPE  H15S  330   2.761   4.203   5.582 -0.8156  0.6559 -1.1582
    3DOPE  C216  331   2.787   4.274   5.366 -0.1111 -0.3598 -0.2153
    3DOPE  H16R  332   2.742   4.181   5.325 -0.3808  0.3831 -1.6436
    3DOPE  H16S  333   2.865   4.305   5.293 -1.2651 -0.7714 -1.6663
    3DOPE  C217  334   2.681   4.386   5.371  0.8107  0.6148  0.9230
    3DOPE  H17R  335   2.729   4.473   5.421  0.7716  0.2545  1.6037
    3DOPE  H17S  336   2.602   4.344   5.437 -0.3324  2.7379  0.9981
    3DOPE  C218  337   2.630   4.427   5.235  0.4430 -0.2100 -0.3053
    3DOPE  H18R  338   2.619   4.336   5.172  0.8625 -0.7318  0.3635
    3DOPE  H18S  339   2.700   4.483   5.169  0.8615 -0.2217  0.1190
    3DOPE  H18T  340   2.534   4.481   5.247  0.5692 -0.2697  1.0901
    3DOPE   C33  341   3.202   4.980   6.032 -0.4135 -0.0911 -0.6742
    3DOPE   H3X  342   3.287   4.922   6.073 -0.8619  0.3898  1.0352
    3DOPE   H3Y  343   3.204   5.089   6.054  0.9857 -0.4794  1.4761
    3DOPE   C34  344   3.202   4.970   5.883 -0.5974  0.5480 -0.3731
    3DOPE   H4X  345   3.187   4.862   5.864  0.9467  0.5534 -1.9603
    3DOPE   H4Y  346   3.117   5.028   5.841 -1.3583  3.3631  4.3673
    3DOPE   C35  347   3.328   5.014   5.805  0.1236 -1.1983 -0.0820
    3DOPE   H5X  348   3.322   4.972   5.703  0.0687 -0.7033 -0.2851
    3DOPE   H5Y  349   3.420   4.984   5.861 -0.2347 -1.5173  0.3485
    3DOPE   C36  350   3.336   5.168   5.803 -0.8051 -0.8380 -0.0688
    3DOPE   H6X  351   3.330   5.200   5.909  1.5365  2.7514 -0.8415
    3DOPE   H6Y  352   3.244   5.217   5.763  0.1529  1.7590  0.7279
    3DOPE   C37  353   3.466   5.233   5.740  0.7816 -0.3968 -0.2044
    3DOPE   H7X  354   3.479   5.339   5.771 -1.1071 -0.1614 -0.1102
    3DOPE   H7Y  355   3.559   5.183   5.774  0.9098 -0.8813 -1.2389
    3DOPE   C38  356   3.473   5.235   5.589  0.4370 -0.0065  0.1896
    3DOPE   H8X  357   3.470   5.134   5.544 -2.4838 -0.4338  1.1052
    3DOPE   H8Y  358   3.562   5.292   5.558 -0.7220  2.1033  0.5129
    3DOPE   C39  359   3.360   5.308   5.538 -0.2938 -1.4027 -0.1757
    3DOPE   H9X  360   3.328   5.399   5.591  0.2178  0.3424 -2.6938
    3DOPE  C310  361   3.275   5.282   5.442  0.3649  0.1400  0.2456
    3DOPE  H10X  362   3.190   5.351   5.437 -0.0262 -0.3439  0.1857
    3DOPE  C311  363   3.272   5.168   5.342  0.1023  0.3197 -0.7789
    3DOPE  H11X  364   3.321   5.071   5.366  2.2081  1.7608  1.2383
    3DOPE  H11Y  365   3.163   5.152   5.331 -0.1896  2.1422 -0.8044
    3DOPE  C312  366   3.312   5.203   5.199  0.3352 -0.0394 -0.0122
    3DOPE  H12X  367   3.281   5.308   5.179 -0.4347 -0.2734 -0.0816
    3DOPE  H12Y  368   3.263   5.132   5.129  1.3021 -0.2325 -0.5024
    3DOPE  C313  369   3.460   5.202   5.169  0.0115  0.7694  0.3259
    3DOPE  H13X  370   3.480   5.252   5.071  0.6920  0.8835  0.5197
    3DOPE  H13Y  371   3.516   5.264   5.242  0.3744  0.3250  0.4261
    3DOPE  C314  372   3.530   5.063   5.167  0.3223 -0.1160 -0.1100
    3DOPE  H14X  373   3.550   5.044   5.275  0.5496 -0.4917 -0.2164
    3DOPE  H14Y  374   3.632   5.080   5.126  0.3359  1.0329  0.3738
    3DOPE  C315  375   3.451   4.942   5.107  0.0659 -1.1579 -0.2255
    3DOPE  H15X  376   3.359   4.914   5.162 -0.3235 -2.2730 -1.3968
    3DOPE  H15Y  377   3.511   4.850   5.126  1.8664  0.0328  0.1304
    3DOPE  C316  378   3.433   4.945   4.956  0.7440  0.9971  0.5476
    3DOPE  H16X  379   3.523   5.001   4.921 -0.2037  3.8231  2.2979
    3DOPE  H16Y  380   3.352   5.013   4.923  0.6900  0.4146 -0.5611
    3DOPE  C317  381   3.419   4.810   4.883 -0.3607 -0.6700 -0.8726
    3DOPE  H17X  382   3.409   4.822   4.773  0.3821 -1.4366 -1.0354
    3DOPE  H17Y  383   3.506   4.743   4.896 -0.2902 -0.4634 -0.2515
    3DOPE  C318  384   3.300   4.733   4.934  0.0372  0.1614 -0.1818
    3DOPE  H18X  385   3.208   4.791   4.957  0.2006 -0.1599  1.3723
    3DOPE  H18Y  386   3.274   4.664   4.851 -0.3321  0.2641 -0.1518
    3DOPE  H18Z  387   3.329   4.664   5.016 -1.8028  0.3712  0.6995
    4DOPE     N  388   3.945   2.577   7.098 -0.1615 -0.2298  0.1047
    4DOPE   HN1  389   3.958   2.474   7.092  0.9015 -0.0744 -0.5523
    4DOPE   HN2  390   3.889   2.606   7.015 -2.0453  0.2523  1.4884
    4DOPE   HN3  391   4.039   2.618   7.116 -0.1069 -0.4031  0.2201
    4DOPE   C12  392   3.851   2.595   7.213  0.3553  0.2668  0.6188
    4DOPE  H12A  393   3.843   2.703   7.239 -2.2546  0.2797  0.0551
    4DOPE  H12B  394   3.895   2.538   7.297 -0.4308 -1.7530 -0.2762
    4DOPE   C11  395   3.713   2.538   7.171 -0.7066 -0.5763 -0.1423
    4DOPE  H11A  396   3.638   2.555   7.250 -0.4015 -0.6875  0.1725
    4DOPE  H11B  397   3.726   2.428   7.158  0.0951 -0.3492 -1.4884
    4DOPE     P  398   3.547   2.671   7.015  0.1788  0.0779  0.2789
    4DOPE   O13  399   3.542   2.729   6.872 -0.0668  0.0368 -0.4809
    4DOPE   O14  400   3.552   2.777   7.116 -0.3534  0.4463 -0.3903
    4DOPE   O11  401   3.416   2.578   7.043  0.3811 -0.5986  0.2367
    4DOPE   O12  402   3.672   2.578   7.042  0.1157 -0.0911  0.4496
    4DOPE    C1  403   3.421   2.435   7.029 -0.0320 -0.1308  0.4260
    4DOPE    HA  404   3.336   2.395   7.087  0.0162 -1.3884 -0.3299
    4DOPE    HB  405   3.514   2.383   7.062 -1.3314 -1.1897  2.6194
    4DOPE    C2  406   3.388   2.394   6.883 -0.0703 -0.3606  0.2645
    4DOPE    HS  407   3.373   2.285   6.873  1.0457 -0.6666  1.6097
    4DOPE   O21  408   3.483   2.441   6.788  0.0334  0.2286 -0.6294
    4DOPE   C21  409   3.598   2.371   6.792 -1.1082 -0.9515  0.2889
    4DOPE   O22  410   3.615   2.269   6.858  0.4904 -0.7455 -0.1429
    4DOPE   C22  411   3.708   2.422   6.695  0.4042 -0.6266  0.1780
    4DOPE   H2R  412   3.680   2.527   6.670 -0.0597 -0.8040 -0.0424
    4DOPE   H2S  413   3.703   2.364   6.601  2.6168  1.4750 -1.3957
    4DOPE    C3  414   3.250   2.465   6.847  0.1292  0.3601  0.2114
    4DOPE    HX  415   3.255   2.575   6.863 -1.4736  1.2667 -3.9869
    4DOPE    HY  416   3.178   2.417   6.917  2.9605 -3.1858  0.9691
    4DOPE   O31  417   3.215   2.433   6.714  0.1427  0.3429  0.4610
    4DOPE   C31  418   3.261   2.512   6.619 -0.4233 -0.0638  0.2405
    4DOPE   O32  419   3.317   2.620   6.636  0.4223  0.2377  0.1373
    4DOPE   C32  420   3.246   2.446   6.482  0.5099 -0.0158  0.1463
    4DOPE   H2X  421   3.230   2.336   6.491 -2.4698  0.3750  0.7013
    4DOPE   H2Y  422   3.147   2.477   6.443 -0.3214 -3.2448 -0.6348
    4DOPE   C23  423   3.851   2.401   6.752  0.9425 -0.0667 -0.5456
    4DOPE   H3R  424   3.856   2.300   6.798  0.5430  0.5102  0.8218
    4DOPE   H3S  425   3.875   2.469   6.836 -1.8556  1.0103 -0.5229
    4DOPE   C24  426   3.955   2.422   6.653  0.4234  0.4329  0.4052
    4DOPE   H4R  427   3.964   2.525   6.611 -1.0082  0.5820  0.4291
    4DOPE   H4S  428   3.929   2.348   6.575 -0.0666 -0.8355  1.7213
    4DOPE   C25  429   4.092   2.375   6.695 -0.6140 -0.2139  0.2138
    4DOPE   H5R  430   4.086   2.267   6.717 -0.1060 -0.8756 -2.5157
    4DOPE   H5S  431   4.120   2.433   6.786 -0.1011  0.8847 -0.6043
    4DOPE   C26  432   4.188   2.388   6.574 -0.2555 -0.7885 -0.7976
    4DOPE   H6R  433   4.192   2.496   6.548 -0.9517  0.2117  2.6984
    4DOPE   H6S  434   4.149   2.320   6.496  2.4961 -0.0058 -3.0355
    4DOPE   C27  435   4.338   2.345   6.613 -0.3832 -0.4688 -0.1874
    4DOPE   H7R  436   4.321   2.251   6.669  0.0601 -1.0156 -0.9663
    4DOPE   H7S  437   4.377   2.424   6.680  0.9917  0.1204 -1.6234
    4DOPE   C28  438   4.434   2.329   6.494  0.0224 -0.5333  0.8273
    4DOPE   H8R  439   4.521   2.268   6.528  1.0572 -0.5005 -1.5736
    4DOPE   H8S  440   4.462   2.430   6.460 -0.8036 -0.4859  0.2677
    4DOPE   C29  441   4.385   2.243   6.379  0.2490 -0.2387 -0.1388
    4DOPE   H9R  442   4.303   2.176   6.408 -1.6107  3.0457  2.9445
    4DOPE  C210  443   4.429   2.252   6.249  0.0596 -0.0928 -0.4006
    4DOPE  H10R  444   4.377   2.190   6.174  0.3714 -1.1321  0.2216
    4DOPE  C211  445   4.524   2.362   6.200 -0.1538  0.4334 -0.5407
    4DOPE  H11R  446   4.606   2.308   6.148 -1.1530 -0.9741 -0.7077
    4DOPE  H11S  447   4.572   2.416   6.285  0.1231  0.7271 -0.8816
    4DOPE  C212  448   4.453   2.468   6.122  0.4570 -0.3636 -0.1672
    4DOPE  H12R  449   4.392   2.523   6.197  1.3375  0.4635 -0.0445
    4DOPE  H12S  450   4.393   2.422   6.040  0.0471 -1.1671  0.5681
    4DOPE  C213  451   4.563   2.564   6.058  0.4307 -0.0090  0.3595
    4DOPE  H13R  452   4.644   2.501   6.017  0.6149  0.3397  0.1893
    4DOPE  H13S  453   4.619   2.624   6.134 -0.8967  1.8444 -0.0452
    4DOPE  C214  454   4.508   2.654   5.955  0.3430 -0.4155 -0.2681
    4DOPE  H14R  455   4.568   2.748   5.954 -0.1029 -0.1211  0.0943
    4DOPE  H14S  456   4.402   2.674   5.980  0.0183 -2.9910  0.7301
    4DOPE  C215  457   4.517   2.587   5.811 -0.3519 -0.3417  0.0156
    4DOPE  H15R  458   4.468   2.487   5.811 -0.6825 -0.1916  0.7095
    4DOPE  H15S  459   4.627   2.569   5.804 -0.0164  1.7240 -0.7474
    4DOPE  C216  460   4.467   2.659   5.691 -0.0475 -0.5908  0.4206
    4DOPE  H16R  461   4.486   2.768   5.695 -2.5572 -0.0735 -0.0118
    4DOPE  H16S  462   4.357   2.653   5.674 -0.2605  2.8222 -0.1207
    4DOPE  C217  463   4.545   2.600   5.566  0.2784 -0.3193 -0.1707
    4DOPE  H17R  464   4.526   2.491   5.564  2.1404 -0.6729 -0.3513
    4DOPE  H17S  465   4.653   2.623   5.576 -0.3241  2.2267  1.7376
    4DOPE  C218  466   4.491   2.650   5.429  0.4611 -0.0892  0.3961
    4DOPE  H18R  467   4.562   2.627   5.347 -0.9907 -0.2350 -0.8819
    4DOPE  H18S  468   4.463   2.757   5.440  1.3755  0.1495  0.4215
    4DOPE  H18T  469   4.395   2.603   5.397  1.6641 -2.4243 -0.0142
    4DOPE   C33  470   3.341   2.489   6.363  0.1598 -0.3507  0.4876
    4DOPE   H3X  471   3.332   2.599   6.348  0.9147 -0.5030 -1.4940
    4DOPE   H3Y  472   3.306   2.444   6.268 -0.1560 -0.3140  0.5863
    4DOPE   C34  473   3.488   2.448   6.396 -0.3477  0.5130  0.3715
    4DOPE   H4X  474   3.528   2.493   6.489  1.0526  0.3251 -0.1296
    4DOPE   H4Y  475   3.503   2.338   6.409  0.8605  0.8959  2.8354
    4DOPE   C35  476   3.594   2.510   6.305  1.0651  0.3360  0.5720
    4DOPE   H5X  477   3.694   2.463   6.317 -0.4259 -3.6640 -0.9988
    4DOPE   H5Y  478   3.609   2.617   6.332 -0.8557  0.5828  0.7880
    4DOPE   C36  479   3.562   2.490   6.156  0.3276 -0.0411 -0.0522
    4DOPE   H6X  480   3.466   2.536   6.127  1.4503  1.7989 -1.0273
    4DOPE   H6Y  481   3.564   2.380   6.137  2.6181 -0.0084 -0.3351
    4DOPE   C37  482   3.669   2.564   6.073 -0.1169 -0.6217 -0.3271
    4DOPE   H7X  483   3.691   2.662   6.120 -2.5405 -0.2157  0.0606
    4DOPE   H7Y  484   3.762   2.503   6.081 -0.7555 -1.5074  0.4226
    4DOPE   C38  485   3.611   2.609   5.941  0.2813  0.0371  0.7863
    4DOPE   H8X  486   3.516   2.665   5.955  0.9566  0.6384  3.5710
    4DOPE   H8Y  487   3.586   2.513   5.892 -1.1203  1.3281 -1.1799
    4DOPE   C39  488   3.708   2.685   5.850  0.4940  0.1488 -0.0059
    4DOPE   H9X  489   3.765   2.772   5.886  0.1125  0.7902 -0.8979
    4DOPE  C310  490   3.717   2.663   5.718  0.0092 -0.2784  0.5692
    4DOPE  H10X  491   3.798   2.724   5.674  0.7865 -1.9842 -0.4576
    4DOPE  C311  492   3.640   2.573   5.623  0.2283  0.3119  0.2579
    4DOPE  H11X  493   3.690   2.476   5.599  0.3349  0.0784  1.3500
    4DOPE  H11Y  494   3.543   2.551   5.673 -0.2150  1.5073 -0.0499
    4DOPE  C312  495   3.614   2.638   5.480 -0.3741  0.0758 -0.0829
    4DOPE  H12X  496   3.579   2.743   5.479  3.6804  1.6228 -1.0000
    4DOPE  H12Y  497   3.537   2.570   5.437 -1.0515  0.6691  0.1819
    4DOPE  C313  498   3.742   2.630   5.397 -0.2916 -0.0730 -0.1336
    4DOPE  H13X  499   3.821   2.658   5.470 -0.9372  3.0475 -0.5066
    4DOPE  H13Y  500   3.768   2.530   5.355 -2.5799 -1.0650  0.6556
    4DOPE  C314  501   3.757   2.727   5.278  0.0296 -0.1106  0.2234
    4DOPE  H14X  502   3.763   2.832   5.315  2.5019  0.1429 -0.7005
    4DOPE  H14Y  503   3.665   2.708   5.219 -1.1078 -0.5800  2.0511
    4DOPE  C315  504   3.888   2.695   5.205  0.4688 -0.6224 -0.2111
    4DOPE  H15X  505   3.896   2.591   5.167 -1.3447 -1.0968  0.5590
    4DOPE  H15Y  506   3.979   2.723   5.262  2.0258 -0.2639 -2.7565
    4DOPE  C316  507   3.890   2.793   5.085 -0.7298  0.2387 -0.8096
    4DOPE  H16X  508   3.890   2.899   5.120 -1.8496 -0.1459  0.4156
    4DOPE  H16Y  509   3.797   2.795   5.024 -0.8817 -0.9332 -0.6325
    4DOPE  C317  510   4.020   2.772   5.007  0.3242 -0.4152  0.4722
    4DOPE  H17X  511   4.093   2.856   5.010 -1.5521  1.3191  0.2877
    4DOPE  H17Y  512   4.077   2.687   5.049  0.4889  0.5486  2.3033
    4DOPE  C318  513   3.985   2.735   4.863 -0.4392  0.1732 -0.7630
    4DOPE  H18X  514   4.062   2.736   4.783 -1.6431  0.3252 -1.9660
    4DOPE  H18Y  515   3.941   2.633   4.867 -0.5362  0.1257 -2.2395
    4DOPE  H18Z  516   3.903   2.800   4.825 -2.6732 -2.6194 -1.0674
    5DOPE     N  517   2.171   4.743   6.904  0.6705 -0.6705  0.0503
    5DOPE   HN1  518   2.126   4.811   6.969 -0.5925 -0.0145 -1.4176
    5DOPE   HN2  519   2.233   4.799   6.841  0.9528 -1.5259 -0.4372
    5DOPE   HN3  520   2.100   4.692   6.848  0.7694 -1.7679  0.9100
    5DOPE   C12  521   2.251   4.653   6.981 -0.4771  0.6208 -0.2310
    5DOPE  H12A  522   2.300   4.716   7.058 -1.4822  1.5841 -0.3361
    5DOPE  H12B  523   2.317   4.607   6.905 -1.2737 -1.1932  0.1249
    5DOPE   C11  524   2.158   4.542   7.041  0.2005 -0.7094 -0.8241
    5DOPE  H11A  525   2.073   4.589   7.096 -0.6103 -1.1919 -1.6262
    5DOPE  H11B  526   2.222   4.492   7.117 -0.2651 -0.1760 -0.0562
    5DOPE     P  527   2.086   4.301   6.977  0.1269 -0.3215 -0.1090
    5DOPE   O13  528   2.024   4.298   7.109 -0.3905 -0.0723 -0.2297
    5DOPE   O14  529   2.211   4.226   6.962  0.2338  0.8175 -0.2326
    5DOPE   O11  530   1.983   4.247   6.879  0.5681 -0.0171 -0.4270
    5DOPE   O12  531   2.106   4.454   6.939  0.3850  0.6799 -0.1050
    5DOPE    C1  532   2.009   4.237   6.740  0.8567 -0.6122 -0.6615
    5DOPE    HA  533   1.937   4.164   6.697 -0.9994 -0.5056  2.0304
    5DOPE    HB  534   2.109   4.205   6.704  0.8059 -1.9451  0.3283
    5DOPE    C2  535   1.969   4.372   6.679  0.1621  0.2440 -0.0636
    5DOPE    HS  536   2.065   4.426   6.697  0.0884  0.4400 -0.2448
    5DOPE   O21  537   1.854   4.424   6.746  0.1241 -0.1296  0.4109
    5DOPE   C21  538   1.854   4.558   6.768 -0.2817  0.1019  0.3658
    5DOPE   O22  539   1.953   4.630   6.753  0.2374  0.2138 -0.2855
    5DOPE   C22  540   1.722   4.593   6.834  0.2909  0.8513  0.0168
    5DOPE   H2R  541   1.731   4.621   6.941 -0.6981  1.5820 -0.0851
    5DOPE   H2S  542   1.659   4.502   6.829  0.6377  0.5912  0.2730
    5DOPE    C3  543   1.943   4.362   6.527  0.0934 -0.8246 -0.0701
    5DOPE    HX  544   1.836   4.330   6.526 -0.0820 -0.3171  1.1546
    5DOPE    HY  545   2.009   4.280   6.493 -0.7537 -1.5253 -0.0583
    5DOPE   O31  546   1.962   4.480   6.446 -0.2356 -0.0681  0.6371
    5DOPE   C31  547   2.087   4.504   6.407 -0.3741 -0.5005  0.0804
    5DOPE   O32  548   2.186   4.456   6.460  0.0786  0.7160 -0.4453
    5DOPE   C32  549   2.096   4.606   6.293  0.4263  0.1398 -0.8769
    5DOPE   H2X  550   1.994   4.626   6.255 -0.5715  0.4472  1.7224
    5DOPE   H2Y  551   2.134   4.700   6.339  0.0629 -0.9288  1.8017
    5DOPE   C23  552   1.664   4.707   6.760 -0.2174 -0.5432 -0.1529
    5DOPE   H3R  553   1.740   4.783   6.734 -0.7190  0.4166  1.0850
    5DOPE   H3S  554   1.587   4.758   6.822 -1.9906  0.6515 -3.0956
    5DOPE   C24  555   1.588   4.672   6.623 -0.4563  0.6812 -0.2287
    5DOPE   H4R  556   1.492   4.619   6.643  0.5264 -2.2369 -2.5097
    5DOPE   H4S  557   1.652   4.619   6.550  0.8323  0.5747  0.9513
    5DOPE   C25  558   1.546   4.804   6.560 -0.5550  0.0402  0.0745
    5DOPE   H5R  559   1.645   4.850   6.538  0.1115 -0.9150  0.9965
    5DOPE   H5S  560   1.508   4.874   6.637  0.1490  0.5077  0.0023
    5DOPE   C26  561   1.460   4.789   6.432 -0.0766 -0.2290  0.1367
    5DOPE   H6R  562   1.370   4.854   6.432 -0.7384 -1.0955  1.5535
    5DOPE   H6S  563   1.430   4.682   6.429  1.1035 -0.6282  1.5079
    5DOPE   C27  564   1.541   4.814   6.302  0.2322  0.2858 -0.0386
    5DOPE   H7R  565   1.628   4.747   6.316 -0.0864  0.2358  1.9957
    5DOPE   H7S  566   1.571   4.921   6.306  0.6896  0.2558 -1.8599
    5DOPE   C28  567   1.460   4.787   6.172  0.7838  0.2312 -0.5401
    5DOPE   H8R  568   1.383   4.867   6.180  1.3475  0.7754 -0.3852
    5DOPE   H8S  569   1.406   4.690   6.178  1.5025 -0.0967  1.1125
    5DOPE   C29  570   1.535   4.797   6.048 -0.5659 -0.4180  0.6867
    5DOPE   H9R  571   1.632   4.745   6.044 -1.6286 -2.5276 -2.9521
    5DOPE  C210  572   1.488   4.858   5.934 -0.5699 -0.1029 -0.1607
    5DOPE  H10R  573   1.544   4.849   5.840  3.2356  0.4530  1.8517
    5DOPE  C211  574   1.344   4.894   5.901 -0.0591 -0.1540  0.0319
    5DOPE  H11R  575   1.334   5.003   5.922  0.1621  0.3417 -2.1671
    5DOPE  H11S  576   1.273   4.848   5.973 -0.9182 -0.6131 -1.0918
    5DOPE  C212  577   1.299   4.868   5.755 -0.1295 -0.7164  0.1291
    5DOPE  H12R  578   1.307   4.762   5.723 -0.3195 -0.5593 -0.4546
    5DOPE  H12S  579   1.373   4.925   5.694  0.8250 -3.2624 -1.2317
    5DOPE  C213  580   1.158   4.930   5.725  0.2511  0.2023  0.1214
    5DOPE  H13R  581   1.165   5.032   5.769  1.7992  0.3556 -0.4214
    5DOPE  H13S  582   1.090   4.874   5.792  1.6085  1.4523  2.6649
    5DOPE  C214  583   1.123   4.918   5.580  0.3121  0.9464 -0.8457
    5DOPE  H14R  584   1.136   4.812   5.548  1.1246 -0.3671  3.2291
    5DOPE  H14S  585   1.173   4.990   5.512  2.0711 -0.1121 -0.7226
    5DOPE  C215  586   0.971   4.948   5.563 -0.3739  0.3880 -0.1507
    5DOPE  H15R  587   0.936   5.019   5.641  2.4539  0.4544  1.1968
    5DOPE  H15S  588   0.913   4.856   5.584  0.7486 -0.6442 -1.4069
    5DOPE  C216  589   0.932   5.023   5.433 -0.4694  1.0447 -0.5062
    5DOPE  H16R  590   0.981   5.122   5.428 -0.9762  1.3320  0.1350
    5DOPE  H16S  591   0.823   5.043   5.443 -0.3060  1.6051  0.2223
    5DOPE  C217  592   0.959   4.946   5.306  0.0103  0.4963 -0.2048
    5DOPE  H17R  593   0.911   4.847   5.322 -0.6036  1.1177  2.0921
    5DOPE  H17S  594   1.069   4.937   5.288  0.5480 -0.8253  3.0542
    5DOPE  C218  595   0.894   5.029   5.196 -0.1855 -0.5714  1.1657
    5DOPE  H18R  596   0.922   4.985   5.098 -0.5210  0.4084  0.6137
    5DOPE  H18S  597   0.932   5.134   5.196  1.2679 -1.0501 -0.2892
    5DOPE  H18T  598   0.782   5.026   5.195 -0.2818  0.4398 -1.7902
    5DOPE   C33  599   2.173   4.553   6.173  0.1536 -0.5463 -0.3108
    5DOPE   H3X  600   2.152   4.446   6.149  2.3581 -0.9217 -0.7972
    5DOPE   H3Y  601   2.283   4.563   6.184  0.0221  0.0097  0.5982
    5DOPE   C34  602   2.135   4.632   6.046 -0.1498 -0.4858  0.9957
    5DOPE   H4X  603   2.028   4.624   6.020  0.3231 -3.4083 -0.4547
    5DOPE   H4Y  604   2.168   4.736   6.071  1.4217 -0.2944 -1.5097
    5DOPE   C35  605   2.203   4.598   5.911 -0.1591  0.6257  0.0572
    5DOPE   H5X  606   2.313   4.609   5.919 -0.0517  1.0175 -1.6733
    5DOPE   H5Y  607   2.169   4.669   5.833  1.0714 -0.8704 -1.9171
    5DOPE   C36  608   2.181   4.450   5.864 -0.6111  0.3604 -0.9940
    5DOPE   H6X  609   2.071   4.443   5.856 -0.6218 -0.8524 -0.0644
    5DOPE   H6Y  610   2.206   4.363   5.929 -0.4993  0.4195 -0.9569
    5DOPE   C37  611   2.256   4.419   5.726  0.4018  0.0648 -0.8654
    5DOPE   H7X  612   2.364   4.439   5.743  0.4206 -0.2925 -0.5652
    5DOPE   H7Y  613   2.238   4.310   5.711  0.0323  0.0635 -0.4225
    5DOPE   C38  614   2.197   4.501   5.612  0.1787  0.1877  0.3178
    5DOPE   H8X  615   2.178   4.609   5.630  0.6823  0.5566 -1.1847
    5DOPE   H8Y  616   2.092   4.464   5.608 -0.0658  0.9523 -1.1358
    5DOPE   C39  617   2.266   4.486   5.481 -0.3917  0.4545 -0.2945
    5DOPE   H9X  618   2.348   4.556   5.462 -2.2631  2.6809 -0.7012
    5DOPE  C310  619   2.227   4.396   5.388  0.2582  0.7935  0.7060
    5DOPE  H10X  620   2.288   4.383   5.298  0.3125  0.3292  0.8078
    5DOPE  C311  621   2.104   4.308   5.387 -0.2578  0.2489  0.2364
    5DOPE  H11X  622   2.129   4.201   5.405 -0.4742 -0.0003 -0.9208
    5DOPE  H11Y  623   2.041   4.325   5.477  1.4633  2.1533  1.1555
    5DOPE  C312  624   2.022   4.303   5.250  0.5753 -0.1669 -1.1247
    5DOPE  H12X  625   2.100   4.302   5.171  0.9092 -0.1711 -0.8042
    5DOPE  H12Y  626   1.959   4.393   5.239 -0.1870 -0.7376 -1.5638
    5DOPE  C313  627   1.924   4.192   5.247  0.0241 -0.1113  0.0466
    5DOPE  H13X  628   1.978   4.098   5.272  0.0919  0.4101  2.0163
    5DOPE  H13Y  629   1.839   4.211   5.316 -1.0583  0.1741 -1.3381
    5DOPE  C314  630   1.850   4.178   5.115 -0.0874 -0.1359 -0.0050
    5DOPE  H14X  631   1.926   4.188   5.034 -0.0939  1.3987  0.1569
    5DOPE  H14Y  632   1.787   4.267   5.095  0.6696  0.2036 -1.0279
    5DOPE  C315  633   1.776   4.045   5.098 -0.2289 -0.3998  0.4815
    5DOPE  H15X  634   1.701   4.047   5.180  0.5217  0.1327  1.1659
    5DOPE  H15Y  635   1.851   3.968   5.127  1.3530 -0.1576 -2.5337
    5DOPE  C316  636   1.720   4.017   4.955  0.0437  0.2844  0.6795
    5DOPE  H16X  637   1.807   3.993   4.891  0.4865  1.4704  0.8146
    5DOPE  H16Y  638   1.659   4.103   4.919 -2.0757 -1.0753  0.8211
    5DOPE  C317  639   1.626   3.896   4.952  0.5590  0.4487  0.4475
    5DOPE  H17X  640   1.670   3.803   4.994 -0.9847  0.1443  1.4961
    5DOPE  H17Y  641   1.533   3.921   5.007 -1.0608  1.5664 -2.5404
    5DOPE  C318  642   1.572   3.877   4.805  0.3441 -0.7755  0.4602
    5DOPE  H18X  643   1.532   3.975   4.770  0.6424 -0.5508  0.7436
    5DOPE  H18Y  644   1.649   3.849   4.730  0.4134  2.6249 -0.9427
    5DOPE  H18Z  645   1.486   3.808   4.816  0.0830 -0.3622  1.0680
    6DOPE     N  646   2.748   5.318   7.350  0.2479 -0.9051  0.1716
    6DOPE   HN1  647   2.675   5.304   7.422  0.1986  1.1175  0.5572
    6DOPE   HN2  648   2.797   5.226   7.355  1.5125 -0.2788 -0.2068
    6DOPE   HN3  649   2.824   5.386   7.368  0.4630 -0.8015 -1.0131
    6DOPE   C12  650   2.690   5.346   7.213  0.2116 -0.5387 -0.3306
    6DOPE  H12A  651   2.772   5.361   7.140  0.2813  0.5572 -0.0504
    6DOPE  H12B  652   2.653   5.451   7.214  0.9523 -0.1583 -3.2777
    6DOPE   C11  653   2.588   5.246   7.157  0.5156  0.2557 -0.2995
    6DOPE  H11A  654   2.609   5.137   7.160  2.0180  0.5475  1.2920
    6DOPE  H11B  655   2.572   5.275   7.051 -3.1754  1.3035  0.4074
    6DOPE     P  656   2.347   5.361   7.205 -0.3369  0.4334 -0.2708
    6DOPE   O13  657   2.390   5.497   7.217  0.2697 -0.2367 -0.5200
    6DOPE   O14  658   2.231   5.314   7.286 -0.0938 -0.2820 -0.2229
    6DOPE   O11  659   2.320   5.340   7.055  0.0828  0.4669 -0.5157
    6DOPE   O12  660   2.462   5.256   7.230  0.1649 -0.2617  0.2191
    6DOPE    C1  661   2.271   5.211   7.008  0.3924  0.1863 -0.1319
    6DOPE    HA  662   2.243   5.144   7.093  1.5947  1.4912  1.3437
    6DOPE    HB  663   2.342   5.159   6.941 -0.2240  0.0284 -0.6741
    6DOPE    C2  664   2.148   5.236   6.922 -0.3641 -0.6109 -0.6627
    6DOPE    HS  665   2.109   5.135   6.895  1.3990 -1.3527 -0.5424
    6DOPE   O21  666   2.182   5.328   6.819 -0.0208 -0.3930 -0.1353
    6DOPE   C21  667   2.233   5.263   6.719 -0.3021  0.3347  0.6583
    6DOPE   O22  668   2.256   5.140   6.715 -0.3899 -0.1255 -0.9711
    6DOPE   C22  669   2.259   5.366   6.604 -0.1073  0.1244  0.8529
    6DOPE   H2R  670   2.327   5.446   6.641 -2.3703  1.9464  1.2909
    6DOPE   H2S  671   2.166   5.426   6.593  0.8515  1.5240  0.0124
    6DOPE    C3  672   2.029   5.289   7.012 -0.0444  0.0564 -0.4103
    6DOPE    HX  673   2.071   5.369   7.076 -0.4766 -0.5153  0.6184
    6DOPE    HY  674   2.015   5.202   7.081 -0.6357 -0.1926 -0.8350
    6DOPE   O31  675   1.906   5.322   6.936  0.1381 -0.2876 -0.2425
    6DOPE   C31  676   1.883   5.454   6.921  0.5503 -0.5599  0.1441
    6DOPE   O32  677   1.944   5.547   6.977  0.5998  0.1814 -0.1136
    6DOPE   C32  678   1.757   5.478   6.834  0.4653  0.8641 -0.2979
    6DOPE   H2X  679   1.668   5.495   6.899  0.5313 -2.8414  1.0214
    6DOPE   H2Y  680   1.785   5.567   6.774  0.6053  1.6069  0.8357
    6DOPE   C23  681   2.325   5.307   6.475 -0.4118  0.8791  0.8524
    6DOPE   H3R  682   2.272   5.212   6.452  0.4553  0.3057  1.1738
    6DOPE   H3S  683   2.432   5.283   6.490 -0.9656 -2.2803  0.4155
    6DOPE   C24  684   2.316   5.401   6.348  0.0654 -0.0223  0.4471
    6DOPE   H4R  685   2.390   5.483   6.358  0.0619  0.1102 -0.5009
    6DOPE   H4S  686   2.215   5.447   6.347  0.6194  1.2909  1.7549
    6DOPE   C25  687   2.350   5.339   6.208 -0.0351  0.2473 -0.6891
    6DOPE   H5R  688   2.361   5.418   6.132  0.1583 -0.4484 -1.3983
    6DOPE   H5S  689   2.275   5.271   6.164 -0.3089 -1.4764  2.1564
    6DOPE   C26  690   2.483   5.256   6.224  0.6439  0.0226 -0.6167
    6DOPE   H6R  691   2.458   5.155   6.263 -1.4826  0.7445  0.0685
    6DOPE   H6S  692   2.543   5.295   6.309  1.1317 -0.7909 -0.5761
    6DOPE   C27  693   2.575   5.240   6.104 -0.1731 -0.3473  0.2385
    6DOPE   H7R  694   2.664   5.177   6.125 -0.1980 -0.3477  0.3411
    6DOPE   H7S  695   2.599   5.345   6.078 -3.7840  0.4096 -0.6675
    6DOPE   C28  696   2.517   5.192   5.971  0.2870 -0.0890 -0.3756
    6DOPE   H8R  697   2.586   5.225   5.890  0.3280 -0.3915 -0.4669
    6DOPE   H8S  698   2.426   5.254   5.959 -0.0976 -0.4478  0.6081
    6DOPE   C29  699   2.486   5.041   5.972  0.8458  0.3647  0.1196
    6DOPE   H9R  700   2.382   5.023   6.002  2.1082 -0.1130  4.9974
    6DOPE  C210  701   2.566   4.942   5.920  0.1462 -0.0416 -0.5105
    6DOPE  H10R  702   2.523   4.841   5.929  2.1477 -0.8863  0.3168
    6DOPE  C211  703   2.704   4.965   5.874  0.0790  0.6649 -0.2680
    6DOPE  H11R  704   2.771   4.903   5.937 -0.4916 -0.5020 -0.7819
    6DOPE  H11S  705   2.739   5.070   5.884 -2.4540  1.6245 -0.6940
    6DOPE  C212  706   2.718   4.912   5.731  0.3011 -0.1354 -0.1538
    6DOPE  H12R  707   2.650   4.981   5.676  1.0608  2.0012  1.4467
    6DOPE  H12S  708   2.668   4.814   5.710  0.2538  0.0317 -0.8317
    6DOPE  C213  709   2.862   4.905   5.674 -0.1808 -0.3006 -0.3353
    6DOPE  H13R  710   2.915   4.835   5.741  0.6130  0.5414 -0.0560
    6DOPE  H13S  711   2.907   5.006   5.690 -1.2493  0.3884 -1.4965
    6DOPE  C214  712   2.875   4.863   5.525  0.3260 -0.1327  0.4945
    6DOPE  H14R  713   2.829   4.945   5.466 -1.2001 -0.5000  1.1315
    6DOPE  H14S  714   2.806   4.780   5.498 -1.9322  1.5015  0.9147
    6DOPE  C215  715   3.018   4.843   5.488 -0.0082  0.6844 -0.1765
    6DOPE  H15R  716   3.073   4.785   5.565  0.3857  0.5464 -0.5591
    6DOPE  H15S  717   3.049   4.949   5.498 -0.1610  0.8647 -1.4499
    6DOPE  C216  718   3.054   4.785   5.350  0.1666 -0.4331 -0.4688
    6DOPE  H16R  719   3.163   4.805   5.342 -0.1161  1.6237  0.2925
    6DOPE  H16S  720   3.012   4.845   5.266 -0.0985 -0.6816 -0.5179
    6DOPE  C217  721   3.007   4.640   5.329 -0.7263  0.1607  0.0196
    6DOPE  H17R  722   2.897   4.623   5.322 -0.9667  1.9976 -1.2857
    6DOPE  H17S  723   3.026   4.577   5.419 -0.3864 -3.5717 -2.4260
    6DOPE  C218  724   3.069   4.570   5.206  0.1273  0.2987  0.8523
    6DOPE  H18R  725   3.017   4.604   5.114  4.0227  1.7479 -1.0201
    6DOPE  H18S  726   3.049   4.461   5.218 -0.5073  0.3125  0.0258
    6DOPE  H18T  727   3.178   4.587   5.195  0.1302 -0.0865  0.2063
    6DOPE   C33  728   1.726   5.359   6.748  0.0084 -0.0406 -0.6361
    6DOPE   H3X  729   1.645   5.381   6.675 -1.1053 -1.4378  0.1313
    6DOPE   H3Y  730   1.699   5.272   6.812  1.5476 -0.3480 -0.3577
    6DOPE   C34  731   1.832   5.310   6.653 -0.3019 -0.8523  0.1943
    6DOPE   H4X  732   1.844   5.387   6.573  0.0995  0.4222  1.4573
    6DOPE   H4Y  733   1.930   5.301   6.703 -0.7544 -1.9697  0.9178
    6DOPE   C35  734   1.803   5.179   6.569  0.3193 -0.4008 -0.3802
    6DOPE   H5X  735   1.698   5.180   6.531 -0.1999  1.4662  0.9670
    6DOPE   H5Y  736   1.814   5.092   6.637 -0.0762  0.3383  0.6536
    6DOPE   C36  737   1.908   5.165   6.460 -0.4143 -0.1193 -0.0630
    6DOPE   H6X  738   2.009   5.135   6.494  0.5603 -0.5999 -3.0824
    6DOPE   H6Y  739   1.917   5.263   6.410  0.6892  0.0332  0.4196
    6DOPE   C37  740   1.869   5.057   6.357 -0.3932  0.7931  0.1251
    6DOPE   H7X  741   1.889   4.962   6.412  4.0340  2.5154  1.9701
    6DOPE   H7Y  742   1.765   5.065   6.321 -0.8155 -0.4944  0.9959
    6DOPE   C38  743   1.956   5.068   6.234 -0.5932 -0.1099  0.3574
    6DOPE   H8X  744   2.059   5.069   6.275  0.6488 -0.6083 -2.4802
    6DOPE   H8Y  745   1.945   5.161   6.174 -0.7846 -1.1217 -1.2535
    6DOPE   C39  746   1.936   4.937   6.154 -0.5899  0.0914  0.0204
    6DOPE   H9X  747   1.895   4.850   6.208 -1.5022 -0.5793 -1.6975
    6DOPE  C310  748   1.939   4.937   6.019 -0.5651  0.4252  0.2963
    6DOPE  H10X  749   1.917   4.841   5.970 -0.8168 -0.9115  2.8392
    6DOPE  C311  750   1.975   5.058   5.927  0.1109 -0.5286  0.3202
    6DOPE  H11X  751   1.879   5.111   5.912  0.9538  0.8346 -0.4289
    6DOPE  H11Y  752   2.054   5.121   5.972 -0.3876 -0.6526  1.3876
    6DOPE  C312  753   2.006   5.020   5.776 -0.1270 -0.0249  0.0133
    6DOPE  H12X  754   1.991   5.109   5.712  1.0274  0.1006 -0.1039
    6DOPE  H12Y  755   1.933   4.943   5.744 -1.6009  0.3322  2.3064
    6DOPE  C313  756   2.153   4.968   5.758 -0.3661  0.3970  0.8490
    6DOPE  H13X  757   2.220   5.052   5.787  0.3567  1.2314 -2.7915
    6DOPE  H13Y  758   2.172   4.883   5.827 -1.2494  0.0939  0.7190
    6DOPE  C314  759   2.186   4.937   5.612  0.1807 -0.1377 -0.6936
    6DOPE  H14X  760   2.154   5.026   5.554 -0.8043 -1.3156 -2.0256
    6DOPE  H14Y  761   2.131   4.852   5.567 -0.6805 -0.2452  0.5056
    6DOPE  C315  762   2.337   4.914   5.588  0.7462  0.2257 -0.5915
    6DOPE  H15X  763   2.370   4.846   5.670 -0.9430  1.2406  1.0211
    6DOPE  H15Y  764   2.401   5.003   5.606  0.6723 -0.2468  2.6573
    6DOPE  C316  765   2.370   4.874   5.445  0.6797 -0.1561 -0.4819
    6DOPE  H16X  766   2.340   4.956   5.376 -1.6156 -0.7225 -0.2239
    6DOPE  H16Y  767   2.301   4.794   5.409  0.7761 -0.5593  0.2243
    6DOPE  C317  768   2.516   4.835   5.412  0.3474 -0.6342  0.3520
    6DOPE  H17X  769   2.580   4.912   5.460  0.2559 -1.8397  2.5680
    6DOPE  H17Y  770   2.559   4.739   5.449  1.4469 -1.2742 -2.3596
    6DOPE  C318  771   2.538   4.831   5.268  0.1407  0.4307  1.1167
    6DOPE  H18X  772   2.649   4.824   5.256 -0.0319 -2.1444  0.3269
    6DOPE  H18Y  773   2.499   4.742   5.215 -0.2266  0.8603  0.6550
    6DOPE  H18Z  774   2.491   4.923   5.227  0.0991 -0.7374 -1.6533
    7DOPE     N  775   4.766   4.377   7.822  0.1203 -0.0053  0.2191
    7DOPE   HN1  776   4.704   4.315   7.765 -2.8257  2.5855  0.3228
    7DOPE   HN2  777   4.846   4.318   7.851  0.8215  0.3937 -0.8582
    7DOPE   HN3  778   4.711   4.395   7.909  0.3780 -0.4109  0.4690
    7DOPE   C12  779   4.805   4.482   7.731 -0.5486 -0.7769  0.1299
    7DOPE  H12A  780   4.902   4.528   7.761 -1.1944  0.2702  0.6617
    7DOPE  H12B  781   4.734   4.566   7.738 -1.4407 -1.2961 -1.9103
    7DOPE   C11  782   4.826   4.429   7.588 -0.1530  0.9756  0.6294
    7DOPE  H11A  783   4.870   4.504   7.518  0.5958  0.4208  0.4846
    7DOPE  H11B  784   4.724   4.400   7.555 -0.0405 -1.3595  2.1275
    7DOPE     P  785   4.888   4.210   7.463  0.4458 -0.1070  0.0281
    7DOPE   O13  786   4.743   4.185   7.432  0.1763 -0.5234  0.7699
    7DOPE   O14  787   4.969   4.090   7.483 -0.1006  0.0921  0.1218
    7DOPE   O11  788   4.960   4.292   7.353 -0.3599 -0.3922  0.3391
    7DOPE   O12  789   4.899   4.311   7.585 -0.2661  0.3931 -0.2977
    7DOPE    C1  790   4.914   4.315   7.218  0.2677  0.0745 -0.4518
    7DOPE    HA  791   4.829   4.246   7.200 -0.0524 -0.1972  1.7594
    7DOPE    HB  792   4.995   4.298   7.144 -0.4048 -0.1903 -1.1456
    7DOPE    C2  793   4.889   4.473   7.196 -0.5976  0.0106 -0.1254
    7DOPE    HS  794   4.797   4.507   7.249 -0.9847  2.4066 -2.1470
    7DOPE   O21  795   4.883   4.500   7.050  0.1421 -1.0505  0.0163
    7DOPE   C21  796   4.764   4.475   7.004 -0.0266  0.2863 -0.2723
    7DOPE   O22  797   4.681   4.410   7.064 -0.0635  0.6065  0.3051
    7DOPE   C22  798   4.755   4.532   6.866 -0.0173 -0.2181 -0.2251
    7DOPE   H2R  799   4.821   4.473   6.799  0.9118  0.7238 -0.1548
    7DOPE   H2S  800   4.802   4.632   6.864 -0.4865  0.0664  1.4568
    7DOPE    C3  801   5.013   4.556   7.249 -0.2106  0.0395 -0.2911
    7DOPE    HX  802   5.097   4.529   7.181 -0.2123  0.1949 -0.3546
    7DOPE    HY  803   5.033   4.525   7.354  0.2340 -2.4655 -1.0496
    7DOPE   O31  804   4.983   4.699   7.226  0.0508 -0.6169 -0.3519
    7DOPE   C31  805   4.959   4.766   7.335 -0.0932  0.4457 -0.0100
    7DOPE   O32  806   4.958   4.724   7.451 -0.3536 -0.0110 -0.0481
    7DOPE   C32  807   4.926   4.912   7.297 -0.3414 -0.3064 -0.7377
    7DOPE   H2X  808   4.945   4.930   7.189  3.1444 -1.7029 -0.4886
    7DOPE   H2Y  809   4.816   4.921   7.307 -0.2357 -1.5507  2.6906
    7DOPE   C23  810   4.610   4.526   6.807 -0.6347  0.1204 -0.0383
    7DOPE   H3R  811   4.548   4.597   6.865 -0.3507  0.1024  0.2940
    7DOPE   H3S  812   4.570   4.422   6.809 -0.6592  0.1342  1.6125
    7DOPE   C24  813   4.602   4.580   6.667 -0.3090 -0.0703 -0.2581
    7DOPE   H4R  814   4.669   4.522   6.599  1.0994  1.9504 -0.7020
    7DOPE   H4S  815   4.640   4.684   6.664  2.7578 -1.0896 -0.8273
    7DOPE   C25  816   4.457   4.574   6.615  0.4381  0.4089 -0.4285
    7DOPE   H5R  817   4.387   4.635   6.676  2.6529 -0.0172  2.7813
    7DOPE   H5S  818   4.421   4.469   6.618 -2.1592  1.2531  1.4788
    7DOPE   C26  819   4.451   4.603   6.457 -0.3094 -0.2220 -0.3751
    7DOPE   H6R  820   4.385   4.526   6.412  0.4548 -1.3417  0.3896
    7DOPE   H6S  821   4.555   4.597   6.418  0.5284  1.3325  1.4648
    7DOPE   C27  822   4.400   4.743   6.418 -0.9776 -0.1602  0.7423
    7DOPE   H7R  823   4.457   4.812   6.485 -0.0214  1.4246 -1.5666
    7DOPE   H7S  824   4.294   4.756   6.447 -1.2694  0.3331 -0.4797
    7DOPE   C28  825   4.422   4.773   6.267 -0.5577 -0.6538  0.2861
    7DOPE   H8R  826   4.529   4.746   6.258 -0.4545 -1.2793  2.7056
    7DOPE   H8S  827   4.397   4.877   6.235 -2.9682 -1.9543 -2.5185
    7DOPE   C29  828   4.332   4.680   6.185  0.4427  0.2092 -0.5486
    7DOPE   H9R  829   4.230   4.663   6.222  1.4333 -2.5394  1.2299
    7DOPE  C210  830   4.355   4.636   6.058  0.4919  0.3324 -0.2445
    7DOPE  H10R  831   4.285   4.570   6.005 -1.0777  0.9470  0.9758
    7DOPE  C211  832   4.480   4.663   5.979  0.0007  0.5625  1.1700
    7DOPE  H11R  833   4.517   4.563   5.947  2.7802  1.0207  2.6319
    7DOPE  H11S  834   4.560   4.714   6.038  2.0938 -0.4158 -0.6662
    7DOPE  C212  835   4.460   4.742   5.845  0.0357 -0.3001 -0.2381
    7DOPE  H12R  836   4.563   4.750   5.806 -0.5596  2.8003 -1.4776
    7DOPE  H12S  837   4.427   4.847   5.864 -0.7918 -1.0012  2.8077
    7DOPE  C213  838   4.381   4.678   5.729 -0.2470  0.4340  0.0436
    7DOPE  H13R  839   4.272   4.689   5.750  0.0644  0.1554  1.9492
    7DOPE  H13S  840   4.411   4.572   5.722  0.7267  0.7316 -0.5638
    7DOPE  C214  841   4.421   4.742   5.592  0.0768 -0.4242 -0.2469
    7DOPE  H14R  842   4.523   4.704   5.570  0.6268  2.0213 -2.4784
    7DOPE  H14S  843   4.425   4.852   5.578 -2.2493 -0.2906 -0.2506
    7DOPE  C215  844   4.330   4.677   5.484 -0.1095  0.0102 -0.4475
    7DOPE  H15R  845   4.224   4.708   5.494  0.2134  1.3644 -0.9042
    7DOPE  H15S  846   4.340   4.569   5.508 -1.3166  0.3526  1.8542
    7DOPE  C216  847   4.378   4.699   5.339  0.0999  0.7119  0.6290
    7DOPE  H16R  848   4.300   4.647   5.279 -0.5269 -0.4662  2.3928
    7DOPE  H16S  849   4.477   4.651   5.326  0.4155  1.5838 -0.3644
    7DOPE  C217  850   4.379   4.854   5.298  0.3402  0.2339 -1.6753
    7DOPE  H17R  851   4.467   4.898   5.350  0.8968 -1.5085 -1.0635
    7DOPE  H17S  852   4.291   4.908   5.337  1.6030  2.0715 -1.2407
    7DOPE  C218  853   4.404   4.882   5.153  0.3387 -0.5626  0.3233
    7DOPE  H18R  854   4.329   4.826   5.093  2.6300 -2.6075 -0.7861
    7DOPE  H18S  855   4.504   4.850   5.117  0.4329 -0.0847  0.1487
    7DOPE  H18T  856   4.402   4.989   5.123 -0.3053 -0.9002 -0.8736
    7DOPE   C33  857   5.001   5.025   7.379  0.1917  0.1306  0.0409
    7DOPE   H3X  858   4.989   5.000   7.487  1.5764  1.0021  0.4242
    7DOPE   H3Y  859   4.949   5.120   7.354  1.4497  1.2058  1.3982
    7DOPE   C34  860   5.152   5.036   7.347 -0.0559 -0.5752  0.0942
    7DOPE   H4X  861   5.207   4.948   7.387  1.0000 -0.3909 -0.8975
    7DOPE   H4Y  862   5.165   5.063   7.240  0.3172  0.6615  0.4418
    7DOPE   C35  863   5.218   5.151   7.420 -0.3501  0.0900  0.2877
    7DOPE   H5X  864   5.215   5.134   7.530 -0.5970  0.5524  0.3525
    7DOPE   H5Y  865   5.178   5.253   7.406  0.9520  0.9651  2.4410
    7DOPE   C36  866   5.373   5.149   7.401  0.4886 -0.9086 -0.7215
    7DOPE   H6X  867   5.389   5.141   7.292  1.8291 -3.7644 -0.4139
    7DOPE   H6Y  868   5.412   5.055   7.447  0.5652 -0.2726  0.5622
    7DOPE   C37  869   5.435   5.267   7.476  0.2898 -0.0309  0.4155
    7DOPE   H7X  870   5.376   5.361   7.464 -0.8291 -0.6412  1.0373
    7DOPE   H7Y  871   5.433   5.260   7.587  1.3130  0.0048  0.4505
    7DOPE   C38  872   5.585   5.296   7.440  0.0395  0.1348 -0.1568
    7DOPE   H8X  873   5.646   5.209   7.474  0.4480  0.3328 -0.3699
    7DOPE   H8Y  874   5.614   5.379   7.508 -2.3601  1.8486 -1.1075
    7DOPE   C39  875   5.612   5.317   7.290  0.2875 -0.3730 -0.6549
    7DOPE   H9X  876   5.604   5.217   7.245 -1.9472 -0.8097  0.5411
    7DOPE  C310  877   5.649   5.425   7.220  1.3339 -0.3187  0.0180
    7DOPE  H10X  878   5.676   5.416   7.113 -0.6137 -0.9499 -0.4618
    7DOPE  C311  879   5.661   5.565   7.273  0.1413  0.7891  0.4966
    7DOPE  H11X  880   5.655   5.560   7.383 -0.2262 -0.2074  0.4470
    7DOPE  H11Y  881   5.764   5.601   7.254 -0.2484  1.2811 -0.8263
    7DOPE  C312  882   5.560   5.675   7.228 -0.0350 -1.1696  1.1405
    7DOPE  H12X  883   5.603   5.760   7.284  0.1273 -0.8158  0.4814
    7DOPE  H12Y  884   5.459   5.648   7.267 -0.6327  0.6912  0.9315
    7DOPE  C313  885   5.568   5.717   7.077 -0.9334 -1.0218 -0.0659
    7DOPE  H13X  886   5.544   5.634   7.007  1.1794 -0.6863 -1.3096
    7DOPE  H13Y  887   5.506   5.808   7.062  0.4506  0.1293  0.8878
    7DOPE  C314  888   5.712   5.760   7.030 -0.7074 -0.2750  1.5495
    7DOPE  H14X  889   5.769   5.664   7.029 -0.5291 -0.3218 -2.6960
    7DOPE  H14Y  890   5.765   5.826   7.102  0.1517  1.7389 -0.8071
    7DOPE  C315  891   5.737   5.826   6.889 -0.0347  0.2576 -0.0795
    7DOPE  H15X  892   5.672   5.776   6.814  2.3485 -0.8670 -1.5150
    7DOPE  H15Y  893   5.844   5.822   6.858 -0.1593  1.4010 -0.7164
    7DOPE  C316  894   5.692   5.970   6.889  0.0351 -0.0632  0.5828
    7DOPE  H16X  895   5.734   6.026   6.975  0.1421  2.6117 -1.0713
    7DOPE  H16Y  896   5.581   5.977   6.896 -0.4692 -2.7173 -2.5443
    7DOPE  C317  897   5.750   6.052   6.773 -0.0993  0.1248 -0.1329
    7DOPE  H17X  898   5.722   6.010   6.674 -0.0361  0.5192 -0.3178
    7DOPE  H17Y  899   5.693   6.146   6.783 -0.5857 -0.0133 -1.4634
    7DOPE  C318  900   5.899   6.080   6.777 -0.5582  0.9708  0.2621
    7DOPE  H18X  901   5.959   5.995   6.739 -0.7377  0.8572  0.2319
    7DOPE  H18Y  902   5.927   6.174   6.724 -0.7235  0.2269 -1.1858
    7DOPE  H18Z  903   5.927   6.101   6.882  0.4043  0.0886  0.1945
    8DOPE     N  904   5.891   5.485   8.061  0.1283  0.5666 -0.6660
    8DOPE   HN1  905   5.947   5.398   8.059 -3.3269 -1.8743 -2.4032
    8DOPE   HN2  906   5.805   5.473   8.003 -1.9957  0.3153  2.3113
    8DOPE   HN3  907   5.943   5.563   8.016  1.0336  0.7839  0.7194
    8DOPE   C12  908   5.842   5.515   8.198 -0.2207  0.3057 -0.4091
    8DOPE  H12A  909   5.785   5.611   8.197 -0.8328 -0.0137  1.0190
    8DOPE  H12B  910   5.931   5.538   8.260 -1.9454 -1.4051  3.0445
    8DOPE   C11  911   5.762   5.397   8.260  0.1353  0.0304  0.0559
    8DOPE  H11A  912   5.724   5.442   8.354  1.8111  1.8523 -0.0726
    8DOPE  H11B  913   5.832   5.315   8.285 -0.3390  0.1236  1.8040
    8DOPE     P  914   5.624   5.203   8.117  0.1706  0.1556  0.3225
    8DOPE   O13  915   5.487   5.216   8.061 -0.0592  0.1087  0.3621
    8DOPE   O14  916   5.635   5.109   8.231  0.0095  0.1110 -0.3111
    8DOPE   O11  917   5.736   5.164   8.019 -0.1466  0.2984  0.3331
    8DOPE   O12  918   5.655   5.352   8.169 -0.3164  0.4076  0.0337
    8DOPE    C1  919   5.751   5.203   7.882  0.8301  0.1076 -0.0325
    8DOPE    HA  920   5.837   5.273   7.875  0.7918  0.0553 -1.4380
    8DOPE    HB  921   5.659   5.258   7.852 -0.0999 -0.7309  1.2035
    8DOPE    C2  922   5.760   5.085   7.781 -0.2519 -0.0246 -0.3106
    8DOPE    HS  923   5.822   5.005   7.825  1.4490  1.8414  0.8796
    8DOPE   O21  924   5.818   5.136   7.665 -0.2197  0.2417 -0.2364
    8DOPE   C21  925   5.889   5.054   7.593 -0.3812  0.1663  0.1745
    8DOPE   O22  926   5.924   4.940   7.628 -0.4209 -0.4145 -0.1301
    8DOPE   C22  927   5.934   5.130   7.468  0.9625 -0.0173 -0.2545
    8DOPE   H2R  928   5.862   5.121   7.384  1.5904  0.9088 -0.9115
    8DOPE   H2S  929   6.027   5.089   7.425  3.3595  1.5573  2.9887
    8DOPE    C3  930   5.615   5.040   7.742  0.3174 -0.2793  0.0687
    8DOPE    HX  931   5.580   5.110   7.664  0.8490 -1.8135 -1.6311
    8DOPE    HY  932   5.543   5.049   7.826 -2.0842 -0.1746 -1.8953
    8DOPE   O31  933   5.610   4.911   7.684  0.0232 -0.6763 -0.1993
    8DOPE   C31  934   5.622   4.813   7.774  0.2314 -0.8377  0.6830
    8DOPE   O32  935   5.640   4.829   7.893 -0.2254 -0.7005  0.1214
    8DOPE   C32  936   5.617   4.671   7.713 -1.0817  0.0265 -0.2420
    8DOPE   H2X  937   5.709   4.624   7.754  0.1385  0.7362 -2.0576
    8DOPE   H2Y  938   5.522   4.623   7.746 -0.2480 -0.3708  1.7437
    8DOPE   C23  939   5.955   5.284   7.507  0.5785 -0.1711  0.2237
    8DOPE   H3R  940   6.035   5.305   7.581  1.8952 -1.0293 -0.9177
    8DOPE   H3S  941   5.858   5.323   7.546  0.8788 -1.1460  2.0638
    8DOPE   C24  942   5.994   5.370   7.379  0.0086  1.1242 -0.4236
    8DOPE   H4R  943   5.911   5.373   7.305 -1.4076  0.1793  1.0691
    8DOPE   H4S  944   6.084   5.324   7.331 -0.5234 -0.0374 -0.3446
    8DOPE   C25  945   6.031   5.517   7.397 -0.0461  0.5585 -0.3410
    8DOPE   H5R  946   6.083   5.519   7.495  0.4474  0.3134 -0.5981
    8DOPE   H5S  947   5.943   5.585   7.407 -1.1628 -0.4989 -2.3331
    8DOPE   C26  948   6.103   5.575   7.281 -0.4847 -0.3139  0.0507
    8DOPE   H6R  949   6.033   5.588   7.196 -2.7840  0.8183  1.9866
    8DOPE   H6S  950   6.188   5.510   7.250  0.2369  0.6386 -0.0247
    8DOPE   C27  951   6.151   5.714   7.323 -0.4278 -0.0931  0.3437
    8DOPE   H7R  952   6.221   5.736   7.240 -1.7995 -0.9121 -1.0904
    8DOPE   H7S  953   6.215   5.702   7.413 -0.1959 -1.0801  0.0614
    8DOPE   C28  954   6.038   5.821   7.337 -0.1655 -0.4575 -0.0869
    8DOPE   H8R  955   6.001   5.795   7.439 -0.8729  1.3679  0.1582
    8DOPE   H8S  956   5.952   5.811   7.267  0.1604 -0.2863 -0.5149
    8DOPE   C29  957   6.086   5.968   7.331  0.1891 -1.3539 -0.2550
    8DOPE   H9R  958   6.085   6.026   7.424 -1.5314 -1.0345 -0.4419
    8DOPE  C210  959   6.101   6.045   7.218 -0.2888  0.2821  0.0917
    8DOPE  H10R  960   6.115   6.154   7.217  1.3872  0.0944 -0.0704
    8DOPE  C211  961   6.096   5.985   7.077  0.3532 -0.1400  0.0878
    8DOPE  H11R  962   5.997   5.997   7.029  0.5171 -0.8487 -0.4434
    8DOPE  H11S  963   6.115   5.876   7.074 -1.3544 -0.5476  2.1219
    8DOPE  C212  964   6.194   6.054   6.978  0.4976  0.2626 -0.0930
    8DOPE  H12R  965   6.166   6.161   6.963  2.1261  0.8602  0.8771
    8DOPE  H12S  966   6.190   6.000   6.880 -0.5650  1.3498 -0.6803
    8DOPE  C213  967   6.339   6.047   7.017  0.2922  1.0558  0.1283
    8DOPE  H13R  968   6.381   5.944   7.020 -1.2045  0.4310  0.7151
    8DOPE  H13S  969   6.351   6.082   7.122  0.0791 -0.9397  0.8648
    8DOPE  C214  970   6.425   6.142   6.925 -0.4531  1.1337 -0.6947
    8DOPE  H14R  971   6.395   6.249   6.931  2.5699  2.3142 -3.4826
    8DOPE  H14S  972   6.397   6.114   6.822 -1.3368 -3.2227  0.5141
    8DOPE  C215  973   6.574   6.110   6.942 -0.2493 -0.3116 -0.2084
    8DOPE  H15R  974   6.592   6.002   6.925  1.5773  0.1387 -1.4171
    8DOPE  H15S  975   6.599   6.130   7.049 -2.6320  2.1600  0.0141
    8DOPE  C216  976   6.663   6.197   6.856 -0.3171  0.5219 -0.4866
    8DOPE  H16R  977   6.767   6.161   6.873 -0.9367 -1.2093 -0.0871
    8DOPE  H16S  978   6.664   6.296   6.905  3.4628  0.1941  0.4220
    8DOPE  C217  979   6.630   6.182   6.707  0.1149  0.3718 -0.3109
    8DOPE  H17R  980   6.527   6.217   6.683 -1.5173 -3.0269  1.1510
    8DOPE  H17S  981   6.621   6.075   6.681  0.5357  0.3086 -0.2065
    8DOPE  C218  982   6.721   6.256   6.609  0.4868 -0.1333  0.3146
    8DOPE  H18R  983   6.720   6.366   6.622  0.0902 -0.3063  1.9576
    8DOPE  H18S  984   6.686   6.228   6.507  0.0136  0.0230  0.4310
    8DOPE  H18T  985   6.827   6.227   6.624  0.2897 -1.4172 -0.5868
    8DOPE   C33  986   5.648   4.672   7.560 -0.7566  0.2733  0.3687
    8DOPE   H3X  987   5.751   4.711   7.549 -1.2974  1.1509 -2.1318
    8DOPE   H3Y  988   5.578   4.740   7.507 -0.3835  0.1692 -0.2660
    8DOPE   C34  989   5.641   4.529   7.502 -1.2437  0.3096  0.7283
    8DOPE   H4X  990   5.720   4.468   7.550  0.1573  1.0668 -0.5246
    8DOPE   H4Y  991   5.544   4.477   7.517 -1.9858  1.3579 -0.2296
    8DOPE   C35  992   5.673   4.528   7.352  0.2316  0.0681  0.0150
    8DOPE   H5X  993   5.771   4.576   7.328 -0.9630  1.6188 -2.0736
    8DOPE   H5Y  994   5.605   4.586   7.286 -0.0252 -0.4339 -0.1632
    8DOPE   C36  995   5.669   4.387   7.295  0.0701  0.1589  0.0472
    8DOPE   H6X  996   5.603   4.316   7.349 -0.6048  2.2410  2.1960
    8DOPE   H6Y  997   5.770   4.345   7.313  1.5427  3.1585 -0.4482
    8DOPE   C37  998   5.650   4.388   7.142  0.4529  0.5304  0.3596
    8DOPE   H7X  999   5.745   4.425   7.097 -0.0147  2.0940  0.6092
    8DOPE   H7Y 1000   5.639   4.279   7.125  1.2178  0.3214  1.1072
    8DOPE   C38 1001   5.530   4.459   7.082  0.1937 -1.0670  0.2608
    8DOPE   H8X 1002   5.538   4.434   6.974 -0.9254  0.0916 -0.1135
    8DOPE   H8Y 1003   5.552   4.568   7.084  0.0212 -1.0213 -0.2450
    8DOPE   C39 1004   5.396   4.431   7.139  0.7421  0.0970  0.2341
    8DOPE   H9X 1005   5.384   4.462   7.244 -1.0626 -1.8302  0.6931
    8DOPE  C310 1006   5.287   4.376   7.075  0.1453  0.4507  0.1221
    8DOPE  H10X 1007   5.201   4.354   7.140  0.4051  0.4450  0.4689
    8DOPE  C311 1008   5.280   4.324   6.931 -0.0259 -1.3360 -0.5784
    8DOPE  H11X 1009   5.380   4.278   6.914  0.6557 -0.1238  0.0450
    8DOPE  H11Y 1010   5.202   4.246   6.921 -1.5715  0.2769 -1.9694
    8DOPE  C312 1011   5.267   4.427   6.813  0.5438 -0.4343  0.9486
    8DOPE  H12X 1012   5.338   4.411   6.729  1.0642  0.7962  1.1360
    8DOPE  H12Y 1013   5.288   4.531   6.845 -0.0992  0.0799 -0.2692
    8DOPE  C313 1014   5.124   4.422   6.752  0.8832 -0.5559  0.5851
    8DOPE  H13X 1015   5.107   4.328   6.696 -2.7685  0.7834 -0.8567
    8DOPE  H13Y 1016   5.045   4.432   6.830  0.7725  0.1713  0.3912
    8DOPE  C314 1017   5.096   4.536   6.643  0.5641 -0.3921 -0.2624
    8DOPE  H14X 1018   5.136   4.628   6.691  1.7728 -0.7772 -0.4829
    8DOPE  H14Y 1019   4.987   4.549   6.626 -0.0305 -2.6885  1.4454
    8DOPE  C315 1020   5.188   4.517   6.517  0.4965 -0.4994 -0.0243
    8DOPE  H15X 1021   5.296   4.525   6.539  0.5840  2.0372 -1.0273
    8DOPE  H15Y 1022   5.167   4.596   6.441  1.6785  0.9180  1.0634
    8DOPE  C316 1023   5.164   4.385   6.445 -0.2093  0.0072  0.1327
    8DOPE  H16X 1024   5.061   4.374   6.407  0.6776  0.5824 -2.6644
    8DOPE  H16Y 1025   5.175   4.291   6.504  1.0611 -0.7391 -1.2223
    8DOPE  C317 1026   5.259   4.366   6.321 -0.3314 -0.0607  0.5907
    8DOPE  H17X 1027   5.247   4.460   6.263 -1.1315  0.8967  2.2241
    8DOPE  H17Y 1028   5.363   4.355   6.357  0.6636  2.3541 -1.2630
    8DOPE  C318 1029   5.212   4.239   6.238 -0.8715  0.4928 -0.0789
    8DOPE  H18X 1030   5.112   4.254   6.192 -0.6448  2.9873  0.0591
    8DOPE  H18Y 1031   5.235   4.147   6.296 -1.1928 -0.1271 -0.9335
    8DOPE  H18Z 1032   5.290   4.238   6.159  0.8801  2.4430  1.4936
    9DOPE     N 1033   1.796   4.611   7.407 -0.5244  0.7287 -0.2914
    9DOPE   HN1 1034   1.709   4.630   7.461 -1.2332  2.2241 -1.8521
    9DOPE   HN2 1035   1.772   4.549   7.327  0.2525  0.6347 -0.4628
    9DOPE   HN3 1036   1.867   4.554   7.457 -0.8852 -0.0103 -0.5953
    9DOPE   C12 1037   1.834   4.744   7.367  0.0164 -0.4279  0.3771
    9DOPE  H12A 1038   1.902   4.738   7.280 -0.0845  2.9688 -0.0428
    9DOPE  H12B 1039   1.893   4.795   7.445  1.5021  0.2102 -1.1169
    9DOPE   C11 1040   1.712   4.833   7.317 -0.3401  0.6013  0.1653
    9DOPE  H11A 1041   1.680   4.796   7.218  1.5374  2.1827 -1.0974
    9DOPE  H11B 1042   1.748   4.937   7.303 -0.0520  0.4135 -0.5196
    9DOPE     P 1043   1.493   4.940   7.391 -0.1484  0.6645 -0.0220
    9DOPE   O13 1044   1.547   5.075   7.427  0.4470  0.4360  0.3758
    9DOPE   O14 1045   1.366   4.906   7.466 -0.3153 -0.0601 -0.4642
    9DOPE   O11 1046   1.470   4.933   7.230 -0.2340  0.0537 -0.5007
    9DOPE   O12 1047   1.611   4.830   7.419 -0.0902 -0.5519 -0.1296
    9DOPE    C1 1048   1.415   4.813   7.174  0.1865  0.1575 -0.4246
    9DOPE    HA 1049   1.429   4.723   7.237 -0.6959  0.4241  0.1796
    9DOPE    HB 1050   1.459   4.785   7.076 -2.3763  0.3895 -1.7297
    9DOPE    C2 1051   1.260   4.817   7.163 -0.0201  0.4419 -0.2844
    9DOPE    HS 1052   1.214   4.801   7.263 -2.3606 -0.0221 -1.3763
    9DOPE   O21 1053   1.214   4.714   7.073 -0.5651  0.5086  0.1777
    9DOPE   C21 1054   1.093   4.682   7.077  0.2479  0.5881 -0.7678
    9DOPE   O22 1055   1.011   4.726   7.156  0.4829 -0.2186  0.6505
    9DOPE   C22 1056   1.066   4.576   6.968  0.1230 -0.2569  0.0163
    9DOPE   H2R 1057   0.956   4.562   6.959  0.2123 -0.4745 -0.8720
    9DOPE   H2S 1058   1.124   4.489   7.006 -0.2792 -0.3553  0.4137
    9DOPE    C3 1059   1.213   4.956   7.122 -0.6703  0.1928 -0.0995
    9DOPE    HX 1060   1.234   5.019   7.211 -0.4877 -0.8107  0.5739
    9DOPE    HY 1061   1.102   4.964   7.124 -0.5631  2.0273  0.7920
    9DOPE   O31 1062   1.286   5.005   7.001 -0.0126 -0.1711 -0.6152
    9DOPE   C31 1063   1.223   5.052   6.895 -0.3769 -0.3971 -0.4409
    9DOPE   O32 1064   1.107   5.063   6.888  0.1234  0.2444 -0.1612
    9DOPE   C32 1065   1.310   5.073   6.780 -0.0203 -0.3357 -0.0950
    9DOPE   H2X 1066   1.394   5.140   6.810  1.6951 -1.1089 -2.7746
    9DOPE   H2Y 1067   1.350   4.976   6.746  0.7447  0.5241 -1.7794
    9DOPE   C23 1068   1.105   4.634   6.831  0.3112  0.0175  1.4047
    9DOPE   H3R 1069   1.205   4.680   6.839  1.0515 -0.3545 -3.0175
    9DOPE   H3S 1070   1.034   4.712   6.799 -1.6006 -2.1441  0.0268
    9DOPE   C24 1071   1.109   4.530   6.718 -0.3324 -0.4034 -0.5479
    9DOPE   H4R 1072   1.006   4.490   6.708 -0.8415  0.8151 -0.3604
    9DOPE   H4S 1073   1.188   4.454   6.734  1.8348  1.7541 -0.3148
    9DOPE   C25 1074   1.134   4.588   6.579 -0.0317 -0.0851 -0.1178
    9DOPE   H5R 1075   1.241   4.616   6.571 -0.0546  0.6734  1.7324
    9DOPE   H5S 1076   1.062   4.673   6.571 -1.4159 -0.9508  2.1025
    9DOPE   C26 1077   1.104   4.490   6.465 -0.0071 -0.4026 -0.6034
    9DOPE   H6R 1078   1.007   4.437   6.481 -0.1098 -0.0893 -0.1824
    9DOPE   H6S 1079   1.178   4.408   6.473 -0.8375 -1.0278  1.3199
    9DOPE   C27 1080   1.108   4.567   6.335  0.0558  0.1852  0.2254
    9DOPE   H7R 1081   1.207   4.617   6.336  0.4704 -0.5575  2.8052
    9DOPE   H7S 1082   1.031   4.648   6.339 -0.6353 -0.4602  0.1576
    9DOPE   C28 1083   1.093   4.474   6.219  0.4811  0.8571  0.5571
    9DOPE   H8R 1084   0.989   4.436   6.217  0.3821  1.0857  1.1182
    9DOPE   H8S 1085   1.167   4.394   6.241  0.5793  1.0952  1.1378
    9DOPE   C29 1086   1.123   4.536   6.083 -0.5002 -0.1521  0.7250
    9DOPE   H9R 1087   1.216   4.595   6.083  0.7887 -2.0809  0.8494
    9DOPE  C210 1088   1.045   4.527   5.980 -0.2393 -0.1330 -0.1617
    9DOPE  H10R 1089   1.074   4.600   5.903  0.8149  1.9856  2.0817
    9DOPE  C211 1090   0.913   4.455   5.965 -0.6330 -0.5593 -0.4915
    9DOPE  H11R 1091   0.908   4.368   6.035 -1.3141 -0.9044 -0.9615
    9DOPE  H11S 1092   0.917   4.406   5.866 -0.0727  1.1372 -1.3537
    9DOPE  C212 1093   0.795   4.549   5.972  0.0928 -0.2286 -0.0257
    9DOPE  H12R 1094   0.786   4.590   6.075 -1.8995  0.5686 -0.4767
    9DOPE  H12S 1095   0.701   4.496   5.945 -0.5298  1.1899 -0.6839
    9DOPE  C213 1096   0.802   4.673   5.891  0.2402  0.0238 -0.0301
    9DOPE  H13R 1097   0.825   4.647   5.785 -1.0402  2.0611 -0.8713
    9DOPE  H13S 1098   0.885   4.733   5.934  3.5616 -0.6605 -4.6848
    9DOPE  C214 1099   0.672   4.759   5.899 -0.0806  0.2033  0.1210
    9DOPE  H14R 1100   0.668   4.801   6.002  0.7241 -0.0343  0.2503
    9DOPE  H14S 1101   0.577   4.703   5.884  1.5980 -2.2824 -1.9978
    9DOPE  C215 1102   0.665   4.878   5.801 -0.5040 -0.1784  0.1635
    9DOPE  H15R 1103   0.761   4.935   5.797  0.3132 -1.5604 -1.1150
    9DOPE  H15S 1104   0.595   4.950   5.848 -0.5459 -0.8300  1.1156
    9DOPE  C216 1105   0.623   4.836   5.657  0.4838 -0.3261 -0.2556
    9DOPE  H16R 1106   0.533   4.771   5.663  0.3717 -0.3531 -1.7218
    9DOPE  H16S 1107   0.709   4.786   5.608  0.2722  0.5197 -1.5454
    9DOPE  C217 1108   0.577   4.952   5.562 -0.2748 -0.3175  0.5287
    9DOPE  H17R 1109   0.656   5.030   5.568 -0.1540 -0.2378 -1.5042
    9DOPE  H17S 1110   0.483   4.989   5.609 -0.3504 -1.3507  1.2412
    9DOPE  C218 1111   0.570   4.910   5.411 -0.4623 -0.7681 -0.2421
    9DOPE  H18R 1112   0.528   4.979   5.335 -0.9160 -1.0017 -0.2095
    9DOPE  H18S 1113   0.514   4.814   5.404  0.4470 -1.2924 -0.5739
    9DOPE  H18T 1114   0.671   4.892   5.369  0.6049 -2.2390  2.6701
    9DOPE   C33 1115   1.240   5.139   6.656  0.4563 -0.4903 -0.5996
    9DOPE   H3X 1116   1.324   5.151   6.585  2.7876 -2.3215  1.6486
    9DOPE   H3Y 1117   1.196   5.237   6.684 -0.6249  0.2642 -4.3654
    9DOPE   C34 1118   1.130   5.054   6.586 -0.4062  0.0160  0.0283
    9DOPE   H4X 1119   1.169   4.950   6.584  0.2871  0.2772 -0.5602
    9DOPE   H4Y 1120   1.027   5.061   6.627 -0.6023  0.2817 -0.4944
    9DOPE   C35 1121   1.119   5.081   6.433  0.4713  0.7897  0.1725
    9DOPE   H5X 1122   1.213   5.126   6.394  0.4499  0.2876 -0.4617
    9DOPE   H5Y 1123   1.043   5.160   6.419  0.2365  0.4759 -0.3552
    9DOPE   C36 1124   1.078   4.956   6.346 -0.1963 -0.1960 -0.0365
    9DOPE   H6X 1125   1.010   4.890   6.404  0.9509 -0.1739  1.3782
    9DOPE   H6Y 1126   1.168   4.895   6.326 -0.1605 -0.1684  0.0432
    9DOPE   C37 1127   1.026   4.987   6.207 -0.9738  0.3787 -0.3759
    9DOPE   H7X 1128   1.086   5.063   6.153  2.9469 -1.4280  0.9776
    9DOPE   H7Y 1129   1.024   4.890   6.153  3.5923 -1.4047  2.0986
    9DOPE   C38 1130   0.880   5.045   6.208 -0.0249  0.4602  0.3597
    9DOPE   H8X 1131   0.843   5.032   6.104 -0.6815  0.4222  0.5927
    9DOPE   H8Y 1132   0.876   5.154   6.228  0.2434  0.1650  2.2359
    9DOPE   C39 1133   0.795   4.965   6.304 -0.2076  0.0669 -0.8584
    9DOPE   H9X 1134   0.814   4.861   6.277 -0.2726  0.2514 -1.6471
    9DOPE  C310 1135   0.720   5.001   6.410 -0.9436  0.4121  0.2598
    9DOPE  H10X 1136   0.654   4.928   6.460 -1.4122  0.6094 -0.0587
    9DOPE  C311 1137   0.717   5.136   6.470 -0.1141  0.3075  0.0036
    9DOPE  H11X 1138   0.818   5.179   6.453  0.8113 -1.7137  0.1249
    9DOPE  H11Y 1139   0.639   5.199   6.422  1.4762  1.2025 -1.5035
    9DOPE  C312 1140   0.690   5.144   6.623 -0.0955  0.3847 -0.6790
    9DOPE  H12X 1141   0.773   5.087   6.670 -0.1289 -1.2472 -2.4714
    9DOPE  H12Y 1142   0.594   5.093   6.647 -1.5085  2.3443 -1.8556
    9DOPE  C313 1143   0.686   5.293   6.675  0.1466  0.0291 -0.1902
    9DOPE  H13X 1144   0.661   5.287   6.783  0.3708  1.8226 -0.0078
    9DOPE  H13Y 1145   0.782   5.347   6.664  0.9256 -0.6724  2.4801
    9DOPE  C314 1146   0.576   5.383   6.609  1.1407  0.2705 -0.7577
    9DOPE  H14X 1147   0.607   5.410   6.506  0.3755  0.0981 -1.0449
    9DOPE  H14Y 1148   0.560   5.475   6.668  1.1903 -0.5354  0.5567
    9DOPE  C315 1149   0.445   5.308   6.587  0.4753 -0.2518 -0.4278
    9DOPE  H15X 1150   0.457   5.214   6.528 -0.8346  0.1546 -1.4037
    9DOPE  H15Y 1151   0.383   5.387   6.539 -1.0323 -0.3607  1.2257
    9DOPE  C316 1152   0.352   5.284   6.709  0.2895 -0.1049 -0.0120
    9DOPE  H16X 1153   0.356   5.379   6.766 -1.9078 -0.6926  1.2199
    9DOPE  H16Y 1154   0.410   5.208   6.767 -0.2228  0.7190  1.6402
    9DOPE  C317 1155   0.211   5.227   6.685 -0.0069 -0.1026 -0.2911
    9DOPE  H17X 1156   0.159   5.218   6.783  0.9815 -1.0779  0.1647
    9DOPE  H17Y 1157   0.159   5.309   6.631  0.0979  0.4042  0.3606
    9DOPE  C318 1158   0.204   5.089   6.615 -0.0024  0.0368  0.1380
    9DOPE  H18X 1159   0.099   5.056   6.605  0.3123 -2.3731  3.3542
    9DOPE  H18Y 1160   0.246   5.088   6.511 -0.3968  0.0431 -0.0225
    9DOPE  H18Z 1161   0.263   5.014   6.672 -0.1462 -0.8147 -0.8041
   10DOPE     N 1162   3.172   6.146   6.886 -0.1150  0.2605 -0.3551
   10DOPE   HN1 1163   3.104   6.094   6.945 -0.7885  1.1668 -0.3064
   10DOPE   HN2 1164   3.269   6.123   6.913 -0.1231  0.3568 -0.2392
   10DOPE   HN3 1165   3.164   6.241   6.928 -2.3547 -1.0921  2.6586
   10DOPE   C12 1166   3.139   6.137   6.736  0.0008  0.2555  0.0175
   10DOPE  H12A 1167   3.205   6.207   6.681 -1.6709  0.2138 -2.2040
   10DOPE  H12B 1168   3.033   6.169   6.728  0.3449  1.1826 -0.9644
   10DOPE   C11 1169   3.164   5.996   6.687  0.3232 -0.4132  0.5919
   10DOPE  H11A 1170   3.274   5.982   6.687  0.4178  0.3037  0.3823
   10DOPE  H11B 1171   3.140   5.987   6.578 -0.6304  1.3589  0.6244
   10DOPE     P 1172   3.143   5.747   6.763  0.4479  0.0489  0.0976
   10DOPE   O13 1173   3.057   5.686   6.870 -0.6703 -0.4223  0.0767
   10DOPE   O14 1174   3.285   5.744   6.784 -0.3795 -0.9202  0.4216
   10DOPE   O11 1175   3.103   5.684   6.624  0.0511  0.2983 -0.5711
   10DOPE   O12 1176   3.097   5.897   6.759 -0.4566 -0.0483  0.4535
   10DOPE    C1 1177   2.961   5.695   6.595 -0.6140  0.4827  0.1301
   10DOPE    HA 1178   2.951   5.761   6.506 -1.4266 -0.4073 -0.4553
   10DOPE    HB 1179   2.895   5.725   6.679 -0.2506  0.6809  0.3481
   10DOPE    C2 1180   2.922   5.546   6.550 -0.9672  0.2803  0.0658
   10DOPE    HS 1181   2.947   5.478   6.635  0.3316  0.4781 -0.1404
   10DOPE   O21 1182   3.002   5.513   6.435  0.6771 -0.1701 -0.0888
   10DOPE   C21 1183   3.009   5.382   6.396  0.2773 -0.7330  0.0364
   10DOPE   O22 1184   2.970   5.290   6.465  0.0302  0.2941 -0.4590
   10DOPE   C22 1185   3.066   5.381   6.253 -0.2795 -0.2849 -0.6379
   10DOPE   H2R 1186   3.137   5.296   6.252  0.9418  0.6849  0.4690
   10DOPE   H2S 1187   3.128   5.473   6.241 -0.0256 -0.1067  1.5798
   10DOPE    C3 1188   2.772   5.535   6.516  0.4794  0.0082 -0.0315
   10DOPE    HX 1189   2.721   5.572   6.608  3.1573 -0.0464  1.5838
   10DOPE    HY 1190   2.735   5.435   6.484 -1.8262  1.3796 -1.9172
   10DOPE   O31 1191   2.750   5.626   6.394 -0.4136 -0.0807 -0.6286
   10DOPE   C31 1192   2.629   5.676   6.391 -0.6246 -0.7297  0.0041
   10DOPE   O32 1193   2.530   5.641   6.457  0.4916  0.3684 -0.6272
   10DOPE   C32 1194   2.634   5.780   6.281 -0.1475 -0.4516  0.6237
   10DOPE   H2X 1195   2.532   5.821   6.267  0.3506  1.0882  1.2031
   10DOPE   H2Y 1196   2.709   5.857   6.311  0.7426 -0.3077 -1.7222
   10DOPE   C23 1197   2.941   5.367   6.158 -0.6338  0.5418 -0.0856
   10DOPE   H3R 1198   2.885   5.462   6.174  1.1723  1.2166  3.3011
   10DOPE   H3S 1199   2.880   5.282   6.195 -0.8931  0.1100 -1.4512
   10DOPE   C24 1200   2.994   5.341   6.011  0.1450 -0.0716  0.0737
   10DOPE   H4R 1201   3.030   5.236   6.000  0.2849 -0.0749  0.5385
   10DOPE   H4S 1202   3.071   5.411   5.971 -0.3137  0.0586 -0.5827
   10DOPE   C25 1203   2.880   5.366   5.918  0.8894 -0.6594 -0.1221
   10DOPE   H5R 1204   2.839   5.468   5.935  0.0885 -0.8651 -0.7284
   10DOPE   H5S 1205   2.797   5.300   5.951 -1.2266  2.3774  1.0220
   10DOPE   C26 1206   2.921   5.336   5.775 -0.0071  0.5114 -0.3806
   10DOPE   H6R 1207   2.963   5.235   5.759  0.5221  0.7448 -0.5004
   10DOPE   H6S 1208   3.014   5.395   5.758  0.8844 -0.6566  0.3231
   10DOPE   C27 1209   2.817   5.389   5.681 -0.3493 -0.1960  0.2321
   10DOPE   H7R 1210   2.786   5.492   5.712 -1.0782 -0.4240  0.2880
   10DOPE   H7S 1211   2.729   5.323   5.696  0.2931 -0.5762  2.6707
   10DOPE   C28 1212   2.871   5.389   5.537  0.1892  0.8427  0.9756
   10DOPE   H8R 1213   2.910   5.286   5.519  1.9753  1.4317  1.2367
   10DOPE   H8S 1214   2.954   5.463   5.535  2.1395 -1.2253  1.3562
   10DOPE   C29 1215   2.766   5.416   5.437  0.9495 -0.0659 -0.7994
   10DOPE   H9R 1216   2.718   5.515   5.448 -0.7216 -0.9023 -0.2004
   10DOPE  C210 1217   2.701   5.338   5.353  0.2695 -0.0456 -0.6193
   10DOPE  H10R 1218   2.624   5.382   5.287  2.2958  0.2870 -2.9343
   10DOPE  C211 1219   2.706   5.187   5.340 -0.4047 -0.5852 -0.0794
   10DOPE  H11R 1220   2.619   5.140   5.392  0.6243 -1.9477  0.4969
   10DOPE  H11S 1221   2.799   5.160   5.393 -0.3029  0.8853  0.5125
   10DOPE  C212 1222   2.703   5.144   5.196  0.2276 -0.3118  0.5472
   10DOPE  H12R 1223   2.707   5.034   5.182  2.2376  0.0077 -2.0942
   10DOPE  H12S 1224   2.777   5.197   5.132 -0.2581 -0.0042  0.2287
   10DOPE  C213 1225   2.564   5.171   5.136  0.1978  0.2431 -0.3492
   10DOPE  H13R 1226   2.539   5.279   5.136  0.5822  0.3345  0.0758
   10DOPE  H13S 1227   2.488   5.122   5.202 -0.7047  0.0457 -1.4999
   10DOPE  C214 1228   2.545   5.130   4.987 -0.4379 -0.3306 -0.1645
   10DOPE  H14R 1229   2.447   5.163   4.948  0.0956  0.6420 -0.7107
   10DOPE  H14S 1230   2.544   5.019   4.977 -1.6716 -0.3553  0.0841
   10DOPE  C215 1231   2.654   5.192   4.892  0.5873 -0.3950 -0.0064
   10DOPE  H15R 1232   2.740   5.124   4.872  1.7475  0.8638  0.5103
   10DOPE  H15S 1233   2.688   5.288   4.935 -1.2934  0.1369  0.3371
   10DOPE  C216 1234   2.592   5.244   4.762  0.3402  0.1343 -0.4732
   10DOPE  H16R 1235   2.503   5.307   4.782  1.2796  1.3190  0.1407
   10DOPE  H16S 1236   2.550   5.163   4.699 -1.5770  1.2599 -0.7140
   10DOPE  C217 1237   2.689   5.320   4.675  0.3120  0.3393  0.3296
   10DOPE  H17R 1238   2.727   5.412   4.726 -2.3022  1.7858 -0.1687
   10DOPE  H17S 1239   2.633   5.358   4.587 -0.4172  0.1688  0.7152
   10DOPE  C218 1240   2.803   5.233   4.621 -0.1956 -0.0931  0.1273
   10DOPE  H18R 1241   2.858   5.303   4.555  1.7819 -0.7064  1.0348
   10DOPE  H18S 1242   2.755   5.157   4.556  0.4113  0.0818 -0.5343
   10DOPE  H18T 1243   2.860   5.198   4.710  0.1705  1.6695  0.6182
   10DOPE   C33 1244   2.684   5.719   6.146  0.0227  0.4441  0.2098
   10DOPE   H3X 1245   2.631   5.622   6.132 -0.9322  0.7076  1.7678
   10DOPE   H3Y 1246   2.793   5.699   6.147 -0.2672 -1.4149 -0.6818
   10DOPE   C34 1247   2.664   5.821   6.034  0.4280  0.1976 -0.1632
   10DOPE   H4X 1248   2.554   5.834   6.024  0.2074 -0.1185  1.5503
   10DOPE   H4Y 1249   2.711   5.920   6.051  2.4141 -0.7443  0.0825
   10DOPE   C35 1250   2.710   5.770   5.899  0.0151  0.5120  0.5184
   10DOPE   H5X 1251   2.701   5.660   5.897 -0.6164  0.5029  1.9281
   10DOPE   H5Y 1252   2.820   5.780   5.887 -0.0756 -0.3963 -1.3889
   10DOPE   C36 1253   2.639   5.838   5.779  0.3676  0.4449 -0.7090
   10DOPE   H6X 1254   2.685   5.938   5.764 -0.3630  0.9780  0.4553
   10DOPE   H6Y 1255   2.532   5.836   5.809 -0.0371 -2.5335 -1.9874
   10DOPE   C37 1256   2.664   5.761   5.645 -0.1914 -0.0292  0.6758
   10DOPE   H7X 1257   2.767   5.773   5.606 -0.7083 -1.3151 -1.2066
   10DOPE   H7Y 1258   2.650   5.650   5.647 -0.4644 -0.0667 -1.3468
   10DOPE   C38 1259   2.569   5.821   5.535  0.4568 -0.2164 -0.5459
   10DOPE   H8X 1260   2.577   5.931   5.540  1.5820 -0.3204  1.4068
   10DOPE   H8Y 1261   2.469   5.808   5.581  1.0926  1.5889  1.5512
   10DOPE   C39 1262   2.579   5.766   5.400  0.4484  0.3328  0.9034
   10DOPE   H9X 1263   2.513   5.684   5.367  1.5391  0.0540 -0.7485
   10DOPE  C310 1264   2.644   5.825   5.297 -0.2192 -0.4347  0.8350
   10DOPE  H10X 1265   2.657   5.771   5.202 -3.0738 -0.0983  0.1699
   10DOPE  C311 1266   2.736   5.945   5.302 -0.8285 -0.1315  0.3850
   10DOPE  H11X 1267   2.759   5.974   5.407  0.2041 -1.3322  0.5269
   10DOPE  H11Y 1268   2.836   5.927   5.257  0.4566  0.8087  2.7013
   10DOPE  C312 1269   2.689   6.078   5.244  0.2300  0.2319 -0.1091
   10DOPE  H12X 1270   2.593   6.115   5.285 -0.0739 -0.9885  0.3431
   10DOPE  H12Y 1271   2.661   6.068   5.137  1.4467 -1.8549 -0.3017
   10DOPE  C313 1272   2.797   6.185   5.257 -0.4084  0.0535  0.5170
   10DOPE  H13X 1273   2.824   6.200   5.364  0.4519 -2.8998  0.8146
   10DOPE  H13Y 1274   2.884   6.148   5.198 -1.3180 -0.3966 -0.5644
   10DOPE  C314 1275   2.751   6.327   5.204  0.1760 -0.0960 -0.5478
   10DOPE  H14X 1276   2.733   6.316   5.095  0.7583 -0.0251 -0.6511
   10DOPE  H14Y 1277   2.832   6.398   5.229 -0.1877 -0.6862  2.8908
   10DOPE  C315 1278   2.623   6.387   5.275  0.5225  0.0609  0.1312
   10DOPE  H15X 1279   2.639   6.374   5.385  1.7401 -0.4276 -0.0926
   10DOPE  H15Y 1280   2.537   6.328   5.237  2.2522 -0.9627 -2.4247
   10DOPE  C316 1281   2.595   6.538   5.230 -0.3527  0.4006  0.1344
   10DOPE  H16X 1282   2.508   6.567   5.292 -0.0705 -0.0212  0.7350
   10DOPE  H16Y 1283   2.574   6.544   5.121 -1.0296 -1.2182  0.1434
   10DOPE  C317 1284   2.704   6.641   5.277  0.2584  0.0899 -0.2481
   10DOPE  H17X 1285   2.781   6.628   5.197  0.9377 -1.5062  0.6136
   10DOPE  H17Y 1286   2.647   6.736   5.274 -0.4339 -0.3160 -0.1358
   10DOPE  C318 1287   2.767   6.617   5.411 -0.0416  0.0429  0.3302
   10DOPE  H18X 1288   2.822   6.521   5.417  0.6804  0.4169 -0.1532
   10DOPE  H18Y 1289   2.828   6.705   5.442 -0.3264  0.0890  0.7627
   10DOPE  H18Z 1290   2.680   6.609   5.479 -0.8835 -0.0796 -0.7354
   11DOPE     N 1291   0.116   3.469   7.575 -0.5859 -0.1593 -0.1327
   11DOPE   HN1 1292   0.055   3.537   7.625 -0.5830 -0.8911  0.8917
   11DOPE   HN2 1293   0.070   3.443   7.485 -2.5269 -1.5859  1.2150
   11DOPE   HN3 1294   0.100   3.389   7.638 -1.2128  0.0563 -0.0120
   11DOPE   C12 1295   0.261   3.508   7.583  0.4884  0.1002  0.3717
   11DOPE  H12A 1296   0.286   3.553   7.484 -0.2172 -0.3083 -0.0067
   11DOPE  H12B 1297   0.320   3.413   7.584  0.4277  0.0616  1.5019
   11DOPE   C11 1298   0.291   3.589   7.710 -0.1692  0.7470 -1.0268
   11DOPE  H11A 1299   0.400   3.582   7.731 -0.2432 -1.6788 -1.2253
   11DOPE  H11B 1300   0.250   3.533   7.796  0.5023  1.2789 -0.3468
   11DOPE     P 1301   0.326   3.830   7.636  0.2438 -0.0188  0.0495
   11DOPE   O13 1302   0.470   3.785   7.636  0.4374 -0.0933 -0.1820
   11DOPE   O14 1303   0.296   3.957   7.701 -0.5432 -0.2274  0.5728
   11DOPE   O11 1304   0.260   3.832   7.491 -0.7701  0.1541  0.2900
   11DOPE   O12 1305   0.241   3.722   7.713 -0.4423 -0.4444 -0.3662
   11DOPE    C1 1306   0.318   3.928   7.406 -0.5635 -0.6786  0.1267
   11DOPE    HA 1307   0.429   3.916   7.406 -0.4180  0.4036  1.5810
   11DOPE    HB 1308   0.291   4.032   7.435  2.3639  0.1026  0.3692
   11DOPE    C2 1309   0.271   3.906   7.262  0.0221  0.6418 -0.2926
   11DOPE    HS 1310   0.160   3.919   7.262 -0.0288  0.3016 -1.2614
   11DOPE   O21 1311   0.316   3.771   7.218  0.6650  0.3688  0.3408
   11DOPE   C21 1312   0.225   3.707   7.150  0.0941  0.1114 -0.9686
   11DOPE   O22 1313   0.110   3.742   7.134 -0.0163  0.0459  0.7734
   11DOPE   C22 1314   0.266   3.559   7.106 -0.1321 -0.2210 -0.7346
   11DOPE   H2R 1315   0.299   3.501   7.194 -1.0191  1.3719  0.6909
   11DOPE   H2S 1316   0.357   3.568   7.043  0.5851  1.2097  0.4528
   11DOPE    C3 1317   0.334   4.012   7.167 -0.3964 -0.2358 -0.4595
   11DOPE    HX 1318   0.438   4.030   7.201 -0.7461  3.0116 -0.7271
   11DOPE    HY 1319   0.295   4.115   7.186  1.8274  0.2146  2.2718
   11DOPE   O31 1320   0.336   3.974   7.030 -0.2943 -0.0042  0.9597
   11DOPE   C31 1321   0.221   3.988   6.961  0.0999 -0.2921 -0.2274
   11DOPE   O32 1322   0.117   4.020   7.018  0.6460  0.8072 -0.3642
   11DOPE   C32 1323   0.231   3.960   6.816  0.2088 -0.6951 -0.1811
   11DOPE   H2X 1324   0.151   4.019   6.767 -1.4618 -3.9992 -1.7528
   11DOPE   H2Y 1325   0.327   3.994   6.772 -0.8729  0.8513 -1.4679
   11DOPE   C23 1326   0.146   3.485   7.039  0.2830  0.4760 -0.0216
   11DOPE   H3R 1327   0.137   3.530   6.937 -0.2572  1.6800  0.5409
   11DOPE   H3S 1328   0.048   3.509   7.085 -0.2121  0.9778 -1.2720
   11DOPE   C24 1329   0.158   3.326   7.032 -0.3485 -0.6221 -0.2981
   11DOPE   H4R 1330   0.059   3.286   7.002 -1.1560  0.3324  0.9893
   11DOPE   H4S 1331   0.180   3.278   7.129 -0.7277  1.6608  0.9900
   11DOPE   C25 1332   0.262   3.281   6.928  0.0525  0.6557 -0.4301
   11DOPE   H5R 1333   0.356   3.307   6.981 -0.7500 -0.3657  1.5949
   11DOPE   H5S 1334   0.254   3.345   6.837 -0.6628  3.5701  1.5357
   11DOPE   C26 1335   0.262   3.132   6.909  0.3579 -0.4652 -0.0561
   11DOPE   H6R 1336   0.295   3.113   6.805 -1.0404  0.8061 -0.7731
   11DOPE   H6S 1337   0.164   3.079   6.917  0.5046 -0.5335  1.9335
   11DOPE   C27 1338   0.365   3.066   7.001 -0.0338 -0.0071 -0.5328
   11DOPE   H7R 1339   0.361   3.130   7.092  0.5649  2.1232 -1.9179
   11DOPE   H7S 1340   0.463   3.076   6.948  1.0168 -2.2786  0.8203
   11DOPE   C28 1341   0.325   2.921   7.048 -0.2153 -0.5987  0.2968
   11DOPE   H8R 1342   0.277   2.866   6.964 -1.9211 -2.0990  2.1432
   11DOPE   H8S 1343   0.245   2.915   7.124 -0.3106 -1.5949  0.1357
   11DOPE   C29 1344   0.445   2.848   7.108  1.2441  0.2201 -0.4604
   11DOPE   H9R 1345   0.452   2.842   7.217 -2.5960 -0.9586 -0.1223
   11DOPE  C210 1346   0.516   2.749   7.044  0.1932  0.0213 -0.3265
   11DOPE  H10R 1347   0.595   2.692   7.096  2.2656 -0.4723 -3.7357
   11DOPE  C211 1348   0.502   2.708   6.903  0.3925 -0.1944  0.7585
   11DOPE  H11R 1349   0.546   2.779   6.830  1.2342 -0.6294  0.8324
   11DOPE  H11S 1350   0.392   2.701   6.886  0.3203 -0.3182  1.2576
   11DOPE  C212 1351   0.558   2.563   6.886 -0.7947 -0.2312 -0.1446
   11DOPE  H12R 1352   0.486   2.494   6.935 -1.6606  0.6304 -0.2017
   11DOPE  H12S 1353   0.659   2.544   6.930  0.0830  0.1648 -1.8976
   11DOPE  C213 1354   0.593   2.538   6.740  0.1438  0.3835  0.4877
   11DOPE  H13R 1355   0.655   2.446   6.733 -0.5588 -0.0848  0.3569
   11DOPE  H13S 1356   0.645   2.629   6.702  0.0029  0.0233 -0.6031
   11DOPE  C214 1357   0.465   2.509   6.661 -0.2797  0.1317  0.3227
   11DOPE  H14R 1358   0.391   2.592   6.669  0.9316  1.4461 -1.4064
   11DOPE  H14S 1359   0.419   2.423   6.716  1.4771 -0.1468  1.4306
   11DOPE  C215 1360   0.478   2.461   6.507  0.0905  0.5145 -1.4342
   11DOPE  H15R 1361   0.541   2.534   6.452  0.0348  1.1295 -0.7030
   11DOPE  H15S 1362   0.375   2.462   6.464 -0.6093 -0.4381  0.1328
   11DOPE  C216 1363   0.547   2.319   6.499 -0.0529 -0.2765  0.8726
   11DOPE  H16R 1364   0.547   2.268   6.598  0.3398 -0.3778  0.8213
   11DOPE  H16S 1365   0.653   2.316   6.467 -0.3431 -2.3588 -0.0691
   11DOPE  C217 1366   0.466   2.229   6.401 -0.2515  0.3162 -0.2198
   11DOPE  H17R 1367   0.481   2.264   6.296 -0.7864  0.3007 -0.3072
   11DOPE  H17S 1368   0.358   2.224   6.426 -0.0621 -1.4637  0.3785
   11DOPE  C218 1369   0.517   2.083   6.418  0.5488 -1.0349  0.2403
   11DOPE  H18R 1370   0.628   2.084   6.416  0.5773 -2.7317 -0.6646
   11DOPE  H18S 1371   0.488   2.017   6.333 -1.0111 -0.7022  0.4676
   11DOPE  H18T 1372   0.472   2.037   6.508 -1.5821  0.6281  0.1255
   11DOPE   C33 1373   0.200   3.814   6.783  0.6631  0.2212  0.1375
   11DOPE   H3X 1374   0.090   3.802   6.793  1.0074 -2.0655  2.0884
   11DOPE   H3Y 1375   0.246   3.743   6.856  1.0575  1.3014  0.9724
   11DOPE   C34 1376   0.235   3.761   6.642 -0.1094  0.4057 -0.0542
   11DOPE   H4X 1377   0.159   3.798   6.570  1.3205  0.3575 -1.6505
   11DOPE   H4Y 1378   0.336   3.802   6.620 -0.3261 -0.6414 -3.5844
   11DOPE   C35 1379   0.227   3.612   6.636  0.0652 -0.3479  0.3603
   11DOPE   H5X 1380   0.133   3.576   6.682 -0.4110 -0.3180 -0.5641
   11DOPE   H5Y 1381   0.302   3.562   6.700  0.1741 -1.4829 -0.6203
   11DOPE   C36 1382   0.244   3.563   6.492 -0.1445 -0.1254 -0.3585
   11DOPE   H6X 1383   0.344   3.602   6.464  0.7551 -0.8568  1.7173
   11DOPE   H6Y 1384   0.171   3.613   6.424  0.5010 -0.1947 -1.1197
   11DOPE   C37 1385   0.229   3.413   6.472  0.5213  0.2944  0.0246
   11DOPE   H7X 1386   0.251   3.386   6.366 -0.3121  0.6054 -0.2360
   11DOPE   H7Y 1387   0.313   3.356   6.516 -0.7329 -0.5302  1.4048
   11DOPE   C38 1388   0.097   3.363   6.524  1.0919 -0.4309  0.3083
   11DOPE   H8X 1389   0.023   3.442   6.498 -1.3632 -2.7590 -0.2599
   11DOPE   H8Y 1390   0.101   3.354   6.635 -2.2681 -0.2247  0.5528
   11DOPE   C39 1391   0.042   3.236   6.462  0.2768  0.7086 -0.2041
   11DOPE   H9X 1392   0.027   3.154   6.534 -1.1353  0.0786 -1.1781
   11DOPE  C310 1393  -0.011   3.219   6.341 -0.0708 -0.6392  0.3739
   11DOPE  H10X 1394  -0.043   3.120   6.308  0.4515  0.2455 -3.1536
   11DOPE  C311 1395  -0.047   3.324   6.240 -0.4574 -0.3877  0.0196
   11DOPE  H11X 1396  -0.140   3.375   6.271  0.7951  0.8267  1.9643
   11DOPE  H11Y 1397   0.037   3.395   6.226 -0.4531 -0.5614 -0.9107
   11DOPE  C312 1398  -0.071   3.262   6.101 -0.3538  0.5240 -0.2036
   11DOPE  H12X 1399  -0.112   3.339   6.032 -0.9613 -0.3228 -0.8242
   11DOPE  H12Y 1400  -0.142   3.176   6.101  1.8164 -1.3778  0.9369
   11DOPE  C313 1401   0.060   3.218   6.030 -0.5779 -0.6187 -0.9410
   11DOPE  H13X 1402   0.120   3.305   5.995 -1.3824  0.9362  1.3126
   11DOPE  H13Y 1403   0.135   3.173   6.099  0.6993  1.0641 -1.1693
   11DOPE  C314 1404   0.041   3.127   5.910  0.3528  0.0143  0.3395
   11DOPE  H14X 1405  -0.021   3.181   5.835 -1.6769 -1.0840  1.1486
   11DOPE  H14Y 1406  -0.013   3.038   5.949 -0.3938  0.0489 -0.5783
   11DOPE  C315 1407   0.172   3.065   5.864 -0.0198  0.3200  0.0564
   11DOPE  H15X 1408   0.233   3.037   5.953 -0.6796 -0.4384  0.2769
   11DOPE  H15Y 1409   0.234   3.139   5.809  1.1326  0.3885  1.4036
   11DOPE  C316 1410   0.157   2.945   5.770  0.4044  0.2041 -0.0084
   11DOPE  H16X 1411   0.079   2.970   5.694  1.1938  0.3276 -0.8003
   11DOPE  H16Y 1412   0.118   2.858   5.827 -0.3049  1.3846  1.3772
   11DOPE  C317 1413   0.286   2.916   5.705 -0.1179 -0.4484  0.1222
   11DOPE  H17X 1414   0.262   2.828   5.642 -1.3801  0.1577 -0.2857
   11DOPE  H17Y 1415   0.305   3.003   5.638 -0.4701 -1.4026 -1.2647
   11DOPE  C318 1416   0.400   2.886   5.806  0.3881 -0.1416  0.2846
   11DOPE  H18X 1417   0.360   2.875   5.909  2.8904 -1.0100  1.2319
   11DOPE  H18Y 1418   0.456   2.795   5.779  1.7981  0.6718  0.3822
   11DOPE  H18Z 1419   0.461   2.978   5.818  0.9501 -0.3622 -0.8423
   12DOPE     N 1420   3.226   7.104   6.702  0.3874 -0.3943 -0.7214
   12DOPE   HN1 1421   3.260   7.070   6.610 -1.2150 -1.4103 -0.9774
   12DOPE   HN2 1422   3.126   7.130   6.695 -0.0519 -0.5304  2.9489
   12DOPE   HN3 1423   3.286   7.185   6.729  0.6896 -1.1612  1.0716
   12DOPE   C12 1424   3.220   6.990   6.808 -0.0091 -0.2619 -0.3435
   12DOPE  H12A 1425   3.155   7.022   6.892 -1.7760 -1.9002 -1.0242
   12DOPE  H12B 1426   3.319   6.972   6.855 -0.7001 -1.1949  0.8119
   12DOPE   C11 1427   3.165   6.866   6.751 -0.4302 -0.5389 -0.0379
   12DOPE  H11A 1428   3.063   6.887   6.712 -0.8014 -1.6008  0.3182
   12DOPE  H11B 1429   3.141   6.784   6.823 -0.0850  1.2267  2.2044
   12DOPE     P 1430   3.327   6.679   6.665  0.0227  0.1695  0.1169
   12DOPE   O13 1431   3.223   6.575   6.655 -0.0737  0.5076  0.3089
   12DOPE   O14 1432   3.406   6.684   6.793 -0.2123  1.0914  0.5118
   12DOPE   O11 1433   3.424   6.659   6.543 -0.4839 -0.1786  0.2355
   12DOPE   O12 1434   3.257   6.821   6.651 -0.0626 -0.3349  0.5842
   12DOPE    C1 1435   3.413   6.754   6.429  0.1490  0.5105 -0.3273
   12DOPE    HA 1436   3.307   6.782   6.410 -0.3751 -0.9029  0.4186
   12DOPE    HB 1437   3.465   6.705   6.343  1.1741  0.8660  0.0747
   12DOPE    C2 1438   3.482   6.890   6.442 -0.3383 -1.0728 -0.3029
   12DOPE    HS 1439   3.443   6.945   6.530 -1.6662  2.4547 -2.8438
   12DOPE   O21 1440   3.444   6.976   6.332  0.9043 -0.2510  0.0073
   12DOPE   C21 1441   3.321   7.029   6.339 -0.0279  0.5293  0.4610
   12DOPE   O22 1442   3.252   7.022   6.436 -0.5647  0.9662 -0.1583
   12DOPE   C22 1443   3.299   7.100   6.210  0.0984  0.6412 -0.2392
   12DOPE   H2R 1444   3.398   7.131   6.170 -0.2319  0.9057 -0.8774
   12DOPE   H2S 1445   3.249   7.198   6.226 -1.1006  0.4909 -2.6231
   12DOPE    C3 1446   3.635   6.877   6.458  0.4209  0.4705 -0.4115
   12DOPE    HX 1447   3.653   6.814   6.548 -1.8636  1.2270  0.6551
   12DOPE    HY 1448   3.669   6.978   6.492  0.5559  0.5845 -0.8775
   12DOPE   O31 1449   3.703   6.842   6.336  0.5478 -0.2576  0.1736
   12DOPE   C31 1450   3.781   6.738   6.336  0.4977  0.0101  1.1909
   12DOPE   O32 1451   3.798   6.663   6.432  0.3931 -0.3199 -0.4573
   12DOPE   C32 1452   3.851   6.725   6.196 -1.0994 -0.0666 -0.3008
   12DOPE   H2X 1453   3.808   6.799   6.125 -1.5098  0.8769  0.8861
   12DOPE   H2Y 1454   3.956   6.740   6.227 -0.9597 -1.3077 -0.1279
   12DOPE   C23 1455   3.232   7.024   6.088 -0.4537  0.5899  0.3071
   12DOPE   H3R 1456   3.225   7.094   6.001  0.3353  1.0959  0.6402
   12DOPE   H3S 1457   3.128   7.002   6.120 -0.1091  1.1835  1.9134
   12DOPE   C24 1458   3.301   6.900   6.040  0.4890  0.2602 -0.0591
   12DOPE   H4R 1459   3.292   6.833   6.128  0.7307  1.8307  1.2315
   12DOPE   H4S 1460   3.408   6.925   6.021  0.0011  1.6895 -1.1171
   12DOPE   C25 1461   3.243   6.852   5.910 -0.3909 -0.0118 -0.3101
   12DOPE   H5R 1462   3.134   6.867   5.922 -0.2352  1.0100 -0.1082
   12DOPE   H5S 1463   3.256   6.742   5.913  0.1238  0.0153 -1.1924
   12DOPE   C26 1464   3.312   6.895   5.788 -0.3608 -0.2006 -0.6965
   12DOPE   H6R 1465   3.415   6.855   5.800 -1.0277 -1.6419  0.5742
   12DOPE   H6S 1466   3.314   7.006   5.783  0.4210 -0.0544  1.7039
   12DOPE   C27 1467   3.252   6.835   5.660 -0.3163 -0.1521 -0.4757
   12DOPE   H7R 1468   3.233   6.728   5.681 -2.8683  0.7257  2.3697
   12DOPE   H7S 1469   3.317   6.844   5.570 -0.1306  1.3859 -0.2161
   12DOPE   C28 1470   3.117   6.907   5.623 -1.3254 -0.3077  0.5257
   12DOPE   H8R 1471   3.148   7.013   5.631  3.8521 -1.5577  0.1224
   12DOPE   H8S 1472   3.049   6.880   5.707 -2.2572  0.9104  0.1832
   12DOPE   C29 1473   3.058   6.867   5.486 -0.0937  0.0755 -0.0662
   12DOPE   H9R 1474   2.987   6.784   5.501  2.0017 -1.9230 -0.5503
   12DOPE  C210 1475   3.101   6.918   5.372 -0.1342 -0.1079  0.6724
   12DOPE  H10R 1476   3.058   6.886   5.276  2.1455  1.8607 -1.1494
   12DOPE  C211 1477   3.199   7.026   5.350  0.0119  0.3367 -0.2743
   12DOPE  H11R 1478   3.280   6.998   5.280 -1.1121  0.1290 -1.5130
   12DOPE  H11S 1479   3.243   7.051   5.449  0.7502 -0.0966 -0.4884
   12DOPE  C212 1480   3.122   7.142   5.294 -0.0632 -0.5667  0.3966
   12DOPE  H12R 1481   3.170   7.236   5.330  2.0850 -1.2153 -0.5900
   12DOPE  H12S 1482   3.017   7.153   5.329  0.2800  0.4542  1.1659
   12DOPE  C213 1483   3.130   7.157   5.140 -0.6531 -0.0350 -0.1100
   12DOPE  H13R 1484   3.079   7.068   5.097 -0.3649 -0.1701 -0.1728
   12DOPE  H13S 1485   3.236   7.151   5.108 -1.1776  0.2962 -1.9850
   12DOPE  C214 1486   3.063   7.285   5.089 -0.4312  0.7690 -0.1814
   12DOPE  H14R 1487   3.125   7.376   5.105  1.3698 -0.2501 -0.9270
   12DOPE  H14S 1488   2.975   7.309   5.152  0.2574  1.1213  0.6708
   12DOPE  C215 1489   3.043   7.281   4.937 -0.2149  0.5112 -0.3524
   12DOPE  H15R 1490   2.980   7.192   4.916  0.3630  0.2330 -0.9475
   12DOPE  H15S 1491   3.139   7.268   4.882 -0.5460  0.9197 -1.0460
   12DOPE  C216 1492   2.977   7.409   4.883  0.0501 -0.0815  0.3687
   12DOPE  H16R 1493   3.051   7.492   4.890 -0.0607 -0.0112  0.7104
   12DOPE  H16S 1494   2.889   7.418   4.951 -0.3508  0.6977 -0.2375
   12DOPE  C217 1495   2.920   7.381   4.741 -0.3237  0.5887 -0.5482
   12DOPE  H17R 1496   3.006   7.356   4.675 -2.1534 -0.7460 -2.5934
   12DOPE  H17S 1497   2.872   7.472   4.699  1.9494  1.5873 -1.1318
   12DOPE  C218 1498   2.824   7.256   4.717  0.3793  0.1368  0.7176
   12DOPE  H18R 1499   2.726   7.259   4.771 -0.5340  0.7522 -0.9116
   12DOPE  H18S 1500   2.873   7.160   4.744 -0.0905 -0.1684  0.4928
   12DOPE  H18T 1501   2.800   7.259   4.609 -1.8764  2.8884  1.1889
   12DOPE   C33 1502   3.842   6.582   6.143  0.2357  0.0968  0.1219
   12DOPE   H3X 1503   3.737   6.545   6.138 -1.0150  3.5378 -3.2417
   12DOPE   H3Y 1504   3.899   6.514   6.210 -1.4370 -0.7445  0.7609
   12DOPE   C34 1505   3.891   6.581   5.995 -0.1937  0.1951  0.1089
   12DOPE   H4X 1506   3.992   6.627   6.003  0.3620 -1.1806  1.7602
   12DOPE   H4Y 1507   3.904   6.478   5.955 -4.0534 -0.6199  0.5864
   12DOPE   C35 1508   3.810   6.668   5.896  0.1456  0.0916 -0.2622
   12DOPE   H5X 1509   3.813   6.775   5.925 -0.4095  0.0730 -0.1216
   12DOPE   H5Y 1510   3.705   6.630   5.897  0.2569 -0.2094  0.0867
   12DOPE   C36 1511   3.859   6.660   5.755 -1.2322  0.0973  0.2343
   12DOPE   H6X 1512   3.861   6.551   5.734  1.8791  0.7258 -4.1768
   12DOPE   H6Y 1513   3.957   6.708   5.735 -1.4168 -0.3332 -1.9656
   12DOPE   C37 1514   3.765   6.724   5.646  0.4350  0.0983  0.7377
   12DOPE   H7X 1515   3.672   6.664   5.652  0.1349  0.5022  0.1790
   12DOPE   H7Y 1516   3.739   6.829   5.674 -3.4881 -0.5032 -0.1084
   12DOPE   C38 1517   3.837   6.713   5.510  0.0515 -0.2659 -0.1358
   12DOPE   H8X 1518   3.942   6.740   5.532  0.7144 -1.9319 -1.0710
   12DOPE   H8Y 1519   3.784   6.790   5.450  0.4093 -0.1147 -0.2597
   12DOPE   C39 1520   3.814   6.574   5.440 -0.8522 -0.2176 -0.6320
   12DOPE   H9X 1521   3.714   6.530   5.452 -1.4692  1.5784  1.5633
   12DOPE  C310 1522   3.907   6.494   5.379  0.1113 -0.3338 -0.6642
   12DOPE  H10X 1523   3.867   6.409   5.321 -0.5331 -0.4030 -0.1307
   12DOPE  C311 1524   4.051   6.542   5.355 -0.1001 -0.2098  0.3970
   12DOPE  H11X 1525   4.058   6.652   5.343 -0.6677 -0.3284 -1.3955
   12DOPE  H11Y 1526   4.106   6.539   5.451 -0.6711  1.7810  0.8275
   12DOPE  C312 1527   4.131   6.468   5.248 -0.2069  0.1281 -1.1877
   12DOPE  H12X 1528   4.116   6.358   5.245  0.7211  0.0117 -2.6118
   12DOPE  H12Y 1529   4.241   6.484   5.254 -0.2299 -0.3596  1.7070
   12DOPE  C313 1530   4.095   6.527   5.114  0.6160 -0.5642  0.6518
   12DOPE  H13X 1531   3.986   6.513   5.098  0.4796  2.3000 -1.6710
   12DOPE  H13Y 1532   4.109   6.636   5.131 -2.0696 -0.0361  0.0588
   12DOPE  C314 1533   4.191   6.476   5.008  0.6668 -0.2476  0.6540
   12DOPE  H14X 1534   4.198   6.366   4.992  2.7831 -0.0011 -0.3938
   12DOPE  H14Y 1535   4.295   6.502   5.035  1.0525 -0.7545 -0.3051
   12DOPE  C315 1536   4.154   6.527   4.866 -0.4026 -0.4652  0.1948
   12DOPE  H15X 1537   4.139   6.637   4.855  1.9722 -0.2488 -1.6158
   12DOPE  H15Y 1538   4.060   6.475   4.836 -0.3369 -1.7956  2.0655
   12DOPE  C316 1539   4.273   6.498   4.775 -0.8341  0.3914  0.7753
   12DOPE  H16X 1540   4.288   6.388   4.769 -0.2008  0.3952  1.8902
   12DOPE  H16Y 1541   4.366   6.550   4.807  0.6589 -0.7166 -1.5221
   12DOPE  C317 1542   4.242   6.529   4.626  0.5931  0.0129 -0.5494
   12DOPE  H17X 1543   4.154   6.470   4.592 -1.6272  1.5267  2.1251
   12DOPE  H17Y 1544   4.217   6.637   4.627  1.6178  0.2948  1.8817
   12DOPE  C318 1545   4.356   6.502   4.531 -0.4073 -0.0322  0.0324
   12DOPE  H18X 1546   4.324   6.533   4.430 -0.9764 -1.1630 -0.1437
   12DOPE  H18Y 1547   4.443   6.555   4.576 -0.2561 -0.2834  0.0358
   12DOPE  H18Z 1548   4.386   6.395   4.536 -1.4451 -0.3000  1.0383
   13DOPE     N 1549   2.014   0.597   6.789 -0.0139  0.6143 -0.8577
   13DOPE   HN1 1550   2.026   0.700   6.790 -0.4027  0.6627 -0.8903
   13DOPE   HN2 1551   2.106   0.557   6.815 -1.0422  0.2020  2.5874
   13DOPE   HN3 1552   1.975   0.564   6.698  1.0608 -1.1380 -0.7488
   13DOPE   C12 1553   1.909   0.561   6.892  0.6830  0.0223  0.7646
   13DOPE  H12A 1554   1.931   0.462   6.937 -0.6879 -0.5427  0.2490
   13DOPE  H12B 1555   1.806   0.569   6.851  1.4713  2.7385 -0.9916
   13DOPE   C11 1556   1.919   0.662   7.016  0.3099 -0.3596 -0.0378
   13DOPE  H11A 1557   2.010   0.628   7.071  0.5492 -0.9543 -0.7809
   13DOPE  H11B 1558   1.823   0.640   7.067 -0.6474 -1.2187 -2.1236
   13DOPE     P 1559   1.855   0.913   7.035  0.5644  0.0724 -0.0279
   13DOPE   O13 1560   1.949   1.027   7.058  0.1702  0.6836  0.3399
   13DOPE   O14 1561   1.785   0.866   7.159  0.5604  0.0044 -0.4740
   13DOPE   O11 1562   1.740   0.951   6.927 -0.1752 -0.1488  0.0125
   13DOPE   O12 1563   1.932   0.794   6.975  0.6294 -0.5971  0.4739
   13DOPE    C1 1564   1.655   0.856   6.863  0.7920  0.4419 -0.2200
   13DOPE    HA 1565   1.553   0.898   6.851  0.7742  0.2315 -0.8489
   13DOPE    HB 1566   1.651   0.762   6.922 -1.2026  0.2594 -0.6017
   13DOPE    C2 1567   1.704   0.830   6.719 -0.5990 -0.2335  0.3886
   13DOPE    HS 1568   1.814   0.815   6.731 -0.7935 -1.0132  1.3163
   13DOPE   O21 1569   1.675   0.942   6.633 -0.0064 -0.3133  0.2948
   13DOPE   C21 1570   1.761   1.050   6.638  0.3084 -0.6993  0.3261
   13DOPE   O22 1571   1.870   1.036   6.691 -0.3690  0.5083  0.5176
   13DOPE   C22 1572   1.699   1.174   6.578  0.4309 -0.6061 -0.8717
   13DOPE   H2R 1573   1.666   1.245   6.656 -0.3881 -1.3203 -0.5599
   13DOPE   H2S 1574   1.606   1.142   6.526  0.8405  0.8749 -2.6510
   13DOPE    C3 1575   1.643   0.707   6.650  0.3324 -0.1679  0.6068
   13DOPE    HX 1576   1.537   0.741   6.648  1.0139  2.0839 -0.5824
   13DOPE    HY 1577   1.651   0.621   6.721 -1.7644  0.2646  1.4461
   13DOPE   O31 1578   1.684   0.680   6.509 -0.5510 -0.5126  0.3117
   13DOPE   C31 1579   1.784   0.602   6.496  0.6102  0.2908  0.0261
   13DOPE   O32 1580   1.851   0.552   6.584  0.1687  0.2369  0.5044
   13DOPE   C32 1581   1.808   0.579   6.348 -0.4143 -0.2063 -0.5105
   13DOPE   H2X 1582   1.911   0.540   6.341 -0.8977 -2.0932  1.5026
   13DOPE   H2Y 1583   1.744   0.496   6.311 -0.0748 -0.2554 -0.9924
   13DOPE   C23 1584   1.784   1.255   6.475 -0.8535  0.0877  0.6589
   13DOPE   H3R 1585   1.894   1.253   6.491 -0.2667  1.1020 -2.5298
   13DOPE   H3S 1586   1.756   1.363   6.480 -1.0842  0.1354 -1.0054
   13DOPE   C24 1587   1.748   1.216   6.327  0.6258 -0.1012 -0.3332
   13DOPE   H4R 1588   1.639   1.224   6.304  0.6393  1.4009  0.0092
   13DOPE   H4S 1589   1.769   1.108   6.309 -0.1480 -0.0026 -2.1056
   13DOPE   C25 1590   1.819   1.303   6.228 -0.2075  0.0026 -0.2396
   13DOPE   H5R 1591   1.929   1.290   6.225  0.0141  1.5572 -0.0567
   13DOPE   H5S 1592   1.807   1.409   6.259 -0.5779  0.2370 -1.1684
   13DOPE   C26 1593   1.768   1.282   6.088  0.1647  0.0044 -0.2629
   13DOPE   H6R 1594   1.663   1.317   6.078  0.7247  1.0805 -3.4424
   13DOPE   H6S 1595   1.757   1.176   6.060  1.9424 -0.6268  1.2235
   13DOPE   C27 1596   1.861   1.358   5.981 -0.1045 -0.7245  0.3995
   13DOPE   H7R 1597   1.965   1.319   5.977  0.6887  1.3628 -1.7636
   13DOPE   H7S 1598   1.864   1.463   6.018  0.6328 -0.7730  0.4845
   13DOPE   C28 1599   1.797   1.363   5.836 -0.2636  0.2282  0.4301
   13DOPE   H8R 1600   1.858   1.435   5.778  0.0750 -0.5932 -0.2535
   13DOPE   H8S 1601   1.698   1.408   5.856 -1.6039 -3.2426  2.5545
   13DOPE   C29 1602   1.788   1.234   5.758  0.0609 -0.6587 -0.5957
   13DOPE   H9R 1603   1.888   1.190   5.750  0.7378  0.7184  0.0085
   13DOPE  C210 1604   1.676   1.175   5.724  0.4169 -0.1972 -0.0697
   13DOPE  H10R 1605   1.691   1.076   5.678  0.5273 -0.6344  0.8826
   13DOPE  C211 1606   1.541   1.229   5.712  0.2145 -0.1049  0.9553
   13DOPE  H11R 1607   1.502   1.267   5.809  2.9640 -0.7187  2.4059
   13DOPE  H11S 1608   1.467   1.153   5.678 -0.3294  1.2451 -1.0649
   13DOPE  C212 1609   1.530   1.338   5.602 -0.5725 -0.2070  0.4714
   13DOPE  H12R 1610   1.575   1.298   5.509  0.7666 -1.0172  1.4258
   13DOPE  H12S 1611   1.582   1.430   5.638 -1.5439  0.6889 -0.3584
   13DOPE  C213 1612   1.382   1.379   5.579 -0.0306 -0.4413  0.0177
   13DOPE  H13R 1613   1.381   1.488   5.557 -1.6105  0.0812  2.3207
   13DOPE  H13S 1614   1.310   1.366   5.663 -0.2011 -0.2024 -0.0903
   13DOPE  C214 1615   1.323   1.314   5.453 -0.1518  0.1700 -0.9835
   13DOPE  H14R 1616   1.320   1.209   5.487  0.2882  0.4048 -0.1950
   13DOPE  H14S 1617   1.392   1.328   5.367 -0.7315  0.2397 -1.4378
   13DOPE  C215 1618   1.191   1.375   5.410  0.2060 -0.0695  0.1346
   13DOPE  H15R 1619   1.206   1.482   5.384  1.8061 -0.4487 -0.6341
   13DOPE  H15S 1620   1.117   1.383   5.492 -0.2515  1.7590 -0.4135
   13DOPE  C216 1621   1.117   1.305   5.289 -0.6806 -0.0990  0.5649
   13DOPE  H16R 1622   1.055   1.223   5.332  0.3044 -0.4318  1.3944
   13DOPE  H16S 1623   1.179   1.255   5.212  0.5749  0.9798  0.8345
   13DOPE  C217 1624   1.023   1.385   5.207  0.0413 -0.1991  0.2526
   13DOPE  H17R 1625   0.966   1.310   5.148  1.7243 -4.1270  3.1562
   13DOPE  H17S 1626   1.073   1.437   5.123  0.1007 -1.1869 -0.3507
   13DOPE  C218 1627   0.936   1.474   5.286  0.1673 -1.0422 -0.2669
   13DOPE  H18R 1628   0.879   1.539   5.216  1.4788 -0.4410 -0.8163
   13DOPE  H18S 1629   0.994   1.541   5.353 -2.0593 -0.4475  1.1627
   13DOPE  H18T 1630   0.864   1.411   5.342  1.3568 -1.5052  0.7968
   13DOPE   C33 1631   1.808   0.698   6.257 -0.6319  0.1255 -0.0050
   13DOPE   H3X 1632   1.888   0.767   6.294  0.6833 -0.8977 -0.8405
   13DOPE   H3Y 1633   1.708   0.745   6.273 -1.3873 -1.7708  1.0866
   13DOPE   C34 1634   1.853   0.664   6.115  0.0053 -0.3818  0.1557
   13DOPE   H4X 1635   1.958   0.630   6.130 -0.2221 -1.0987  0.1659
   13DOPE   H4Y 1636   1.806   0.584   6.054 -0.3739  0.6134 -0.9110
   13DOPE   C35 1637   1.858   0.781   6.011 -0.5376 -0.0545  0.1253
   13DOPE   H5X 1638   1.908   0.861   6.070 -2.6697  2.3386 -1.0753
   13DOPE   H5Y 1639   1.758   0.824   5.988 -1.6216 -2.7691 -0.5800
   13DOPE   C36 1640   1.934   0.748   5.872  0.8187 -0.6603 -0.5554
   13DOPE   H6X 1641   1.865   0.692   5.806 -0.3648  2.1169 -1.8658
   13DOPE   H6Y 1642   2.027   0.702   5.911 -0.7682 -1.2116  3.0207
   13DOPE   C37 1643   1.970   0.866   5.791 -0.3453  0.8268 -0.3670
   13DOPE   H7X 1644   1.873   0.900   5.749 -0.1811  0.5640 -0.9636
   13DOPE   H7Y 1645   2.015   0.942   5.858  1.3166 -0.7795  0.4404
   13DOPE   C38 1646   2.063   0.822   5.678 -0.0984  0.0110 -0.5267
   13DOPE   H8X 1647   2.013   0.748   5.612  0.7650 -0.7148 -0.3889
   13DOPE   H8Y 1648   2.141   0.755   5.722 -1.0379 -1.3835 -0.9005
   13DOPE   C39 1649   2.147   0.930   5.612  0.0989  0.2518 -0.0504
   13DOPE   H9X 1650   2.217   0.980   5.680  0.2572  1.8978 -1.3577
   13DOPE  C310 1651   2.164   0.936   5.481 -0.2857 -0.2560  0.2742
   13DOPE  H10X 1652   2.233   1.008   5.433 -1.6304 -0.5293 -2.2566
   13DOPE  C311 1653   2.105   0.844   5.374  0.1796  0.4798  0.2011
   13DOPE  H11X 1654   2.031   0.773   5.417 -0.8904  1.8388  0.6861
   13DOPE  H11Y 1655   2.048   0.905   5.300  0.2363 -0.0760 -0.3164
   13DOPE  C312 1656   2.198   0.763   5.293 -0.2537 -0.1486 -0.2807
   13DOPE  H12X 1657   2.260   0.836   5.236  0.1713  0.3564  0.7923
   13DOPE  H12Y 1658   2.141   0.697   5.224 -1.5747 -0.9148  1.4661
   13DOPE  C313 1659   2.287   0.674   5.373  0.6276  0.9880  0.8424
   13DOPE  H13X 1660   2.352   0.729   5.444  0.2170  1.5199  0.8132
   13DOPE  H13Y 1661   2.223   0.606   5.433  2.6564 -1.3476  0.4922
   13DOPE  C314 1662   2.367   0.588   5.275  0.1363 -0.6416  0.4709
   13DOPE  H14X 1663   2.438   0.533   5.341  0.6468 -0.5050  0.0470
   13DOPE  H14Y 1664   2.436   0.649   5.212  0.9047 -1.1058  0.8436
   13DOPE  C315 1665   2.277   0.489   5.193 -0.0550  0.5225  0.9180
   13DOPE  H15X 1666   2.175   0.504   5.234 -0.4354  1.4062 -0.3033
   13DOPE  H15Y 1667   2.299   0.383   5.218  1.0040  0.5879  0.3376
   13DOPE  C316 1668   2.275   0.493   5.037  0.0637 -0.2947  0.0795
   13DOPE  H16X 1669   2.247   0.596   5.006 -0.8010 -0.4920  0.1906
   13DOPE  H16Y 1670   2.194   0.427   5.000  0.0533  0.7901 -1.9584
   13DOPE  C317 1671   2.403   0.444   4.972 -0.5126 -0.8309  0.1903
   13DOPE  H17X 1672   2.493   0.496   5.010  1.7373 -2.3189 -2.7139
   13DOPE  H17Y 1673   2.415   0.334   4.985 -4.0084 -1.8049 -3.0147
   13DOPE  C318 1674   2.385   0.462   4.822 -0.1749 -0.0925  0.0009
   13DOPE  H18X 1675   2.448   0.379   4.783  1.9742  0.8093  1.3579
   13DOPE  H18Y 1676   2.279   0.457   4.791  0.1679 -1.8772 -1.0431
   13DOPE  H18Z 1677   2.438   0.553   4.787 -0.4954 -0.1669 -0.7013
   14DOPE     N 1678   6.286   3.513   7.878 -0.5817 -0.2133  0.4041
   14DOPE   HN1 1679   6.366   3.471   7.930 -0.5865 -1.7171 -0.7442
   14DOPE   HN2 1680   6.214   3.550   7.943 -0.9759  0.2869 -0.3042
   14DOPE   HN3 1681   6.242   3.428   7.838 -0.3267 -0.1931  0.0714
   14DOPE   C12 1682   6.325   3.595   7.759 -0.3637 -0.2517 -0.3781
   14DOPE  H12A 1683   6.392   3.549   7.683  0.1783  0.8092 -0.5636
   14DOPE  H12B 1684   6.370   3.690   7.795  0.6201 -0.1054 -1.9032
   14DOPE   C11 1685   6.192   3.644   7.687  0.3093  0.0918  0.3622
   14DOPE  H11A 1686   6.128   3.709   7.751 -0.9728 -1.9521  1.2702
   14DOPE  H11B 1687   6.136   3.551   7.663  1.3883  0.0638 -2.3532
   14DOPE     P 1688   6.244   3.867   7.559  0.2470 -0.1704 -0.1935
   14DOPE   O13 1689   6.231   3.924   7.694 -0.2750  0.2563 -0.0791
   14DOPE   O14 1690   6.157   3.911   7.448 -0.1073  0.6735  0.1518
   14DOPE   O11 1691   6.389   3.872   7.508  0.3410 -0.3234 -0.7196
   14DOPE   O12 1692   6.216   3.714   7.565  0.3454  0.3343  0.1289
   14DOPE    C1 1693   6.447   3.783   7.408 -0.2144 -0.2553  0.4613
   14DOPE    HA 1694   6.362   3.729   7.360 -0.4074  1.1899 -0.8968
   14DOPE    HB 1695   6.514   3.712   7.462 -1.8456 -2.2381  0.0144
   14DOPE    C2 1696   6.524   3.870   7.310 -0.4949 -0.1393  0.2925
   14DOPE    HS 1697   6.602   3.922   7.370  2.3330 -0.2023 -3.0403
   14DOPE   O21 1698   6.432   3.954   7.238 -0.4906  0.3837 -0.5710
   14DOPE   C21 1699   6.418   4.069   7.289  1.3321 -0.4406  0.3137
   14DOPE   O22 1700   6.456   4.112   7.397  0.1932 -0.4568  0.0656
   14DOPE   C22 1701   6.322   4.150   7.202 -0.1371 -0.0611  0.5746
   14DOPE   H2R 1702   6.296   4.241   7.261 -0.6223  1.2683 -1.5762
   14DOPE   H2S 1703   6.237   4.088   7.169 -0.6727  2.4081 -3.3395
   14DOPE    C3 1704   6.613   3.796   7.207 -0.2437  0.0580  0.2540
   14DOPE    HX 1705   6.545   3.723   7.159  0.8528 -1.0127  0.2958
   14DOPE    HY 1706   6.685   3.730   7.261 -0.3871  0.2242  0.6546
   14DOPE   O31 1707   6.672   3.874   7.100  0.0784  0.4515 -0.1140
   14DOPE   C31 1708   6.780   3.941   7.128 -0.3333  0.9065 -0.5513
   14DOPE   O32 1709   6.825   3.946   7.242  0.0701  0.5512 -0.4041
   14DOPE   C32 1710   6.836   4.002   7.000  0.6579  0.2183 -0.2070
   14DOPE   H2X 1711   6.859   3.922   6.927  0.6740  0.6097 -0.6328
   14DOPE   H2Y 1712   6.761   4.069   6.954 -0.8915 -1.6472 -0.5252
   14DOPE   C23 1713   6.380   4.191   7.066  0.2563 -0.4796 -0.0354
   14DOPE   H3R 1714   6.371   4.104   6.997 -0.8319  0.3427 -0.9854
   14DOPE   H3S 1715   6.481   4.236   7.072  0.6858 -1.2480 -1.1765
   14DOPE   C24 1716   6.291   4.305   6.994 -0.8105  0.1092  0.1981
   14DOPE   H4R 1717   6.315   4.312   6.886 -0.1272 -2.4772  0.1193
   14DOPE   H4S 1718   6.331   4.401   7.033 -1.3814  1.1743 -1.7300
   14DOPE   C25 1719   6.136   4.293   7.006 -0.1881  0.0518 -0.0747
   14DOPE   H5R 1720   6.106   4.302   7.112  0.8232 -0.6805  0.2943
   14DOPE   H5S 1721   6.113   4.195   6.959  0.5565 -0.5159  0.7006
   14DOPE   C26 1722   6.063   4.401   6.911  0.2068  0.1640  0.2301
   14DOPE   H6R 1723   5.954   4.378   6.908  0.5063 -1.7262  1.7977
   14DOPE   H6S 1724   6.108   4.384   6.811 -0.0272  0.2670  0.1087
   14DOPE   C27 1725   6.068   4.539   6.975 -0.2380 -0.5700 -0.1236
   14DOPE   H7R 1726   6.175   4.567   6.977  0.1318 -1.9074 -0.0099
   14DOPE   H7S 1727   6.035   4.524   7.079  1.0367 -0.4212  0.3206
   14DOPE   C28 1728   5.965   4.635   6.903  0.1373 -0.3272  0.8436
   14DOPE   H8R 1729   5.863   4.597   6.923 -0.0254  0.2691  1.1671
   14DOPE   H8S 1730   5.989   4.635   6.794 -0.3363  0.6452  0.7296
   14DOPE   C29 1731   5.974   4.775   6.964 -0.0962 -0.4528  0.3222
   14DOPE   H9R 1732   6.060   4.830   6.923 -0.2343 -0.8304 -0.4981
   14DOPE  C210 1733   5.897   4.829   7.060 -0.0704  0.6945 -0.8442
   14DOPE  H10R 1734   5.922   4.930   7.097  3.0072 -1.1244  2.6814
   14DOPE  C211 1735   5.775   4.771   7.122  0.1297 -0.6336  0.8851
   14DOPE  H11R 1736   5.780   4.765   7.233 -0.3411  0.1488  0.9565
   14DOPE  H11S 1737   5.755   4.672   7.078 -0.2054 -0.0893 -0.2335
   14DOPE  C212 1738   5.643   4.851   7.093 -0.5548  0.5257 -0.0457
   14DOPE  H12R 1739   5.665   4.959   7.098  0.8188  0.2961 -0.6449
   14DOPE  H12S 1740   5.568   4.826   7.171 -1.9198  0.8733 -1.1950
   14DOPE  C213 1741   5.582   4.828   6.948 -0.2883  0.0626 -0.7244
   14DOPE  H13R 1742   5.584   4.719   6.925  1.2436  0.5753 -3.4348
   14DOPE  H13S 1743   5.649   4.875   6.874 -1.4706  1.4461 -0.9617
   14DOPE  C214 1744   5.444   4.886   6.939  0.5332  0.3686 -0.4511
   14DOPE  H14R 1745   5.414   4.880   6.832  1.1264  0.3371 -0.6193
   14DOPE  H14S 1746   5.442   4.992   6.970 -0.1371  0.5952 -1.2413
   14DOPE  C215 1747   5.341   4.810   7.027 -0.2692  0.1968 -0.0954
   14DOPE  H15R 1748   5.376   4.803   7.132 -3.3219  0.0528  1.0145
   14DOPE  H15S 1749   5.346   4.706   6.990  0.5309  0.5911 -1.1400
   14DOPE  C216 1750   5.195   4.863   7.018 -0.2310  0.4011  0.6923
   14DOPE  H16R 1751   5.183   4.972   7.041 -1.8395  0.8577 -1.9144
   14DOPE  H16S 1752   5.134   4.817   7.098 -1.3028 -1.5632 -1.1587
   14DOPE  C217 1753   5.131   4.837   6.877  0.0172 -0.0602  0.6352
   14DOPE  H17R 1754   5.135   4.727   6.862 -0.4751  0.1480 -1.3122
   14DOPE  H17S 1755   5.191   4.886   6.798 -2.8194 -1.8429 -2.9507
   14DOPE  C218 1756   4.995   4.897   6.860 -0.6595  0.0132  0.1038
   14DOPE  H18R 1757   4.960   4.923   6.758 -1.9788  1.2596  0.8369
   14DOPE  H18S 1758   4.985   4.993   6.915 -1.1816  1.1554 -1.8929
   14DOPE  H18T 1759   4.919   4.821   6.885  2.8231 -3.3427  1.4233
   14DOPE   C33 1760   6.963   4.081   7.037  0.5428  0.4456 -0.5927
   14DOPE   H3X 1761   7.024   4.101   6.946 -0.0565 -1.3953 -1.4599
   14DOPE   H3Y 1762   7.030   4.025   7.105 -0.3947  0.1722  0.1198
   14DOPE   C34 1763   6.930   4.219   7.094  0.0160  0.5823 -0.0771
   14DOPE   H4X 1764   6.871   4.208   7.188  1.1646 -3.1759  0.3849
   14DOPE   H4Y 1765   7.029   4.260   7.124  0.9940 -1.7016  0.0546
   14DOPE   C35 1766   6.873   4.313   6.987  0.8046 -0.4387 -0.1330
   14DOPE   H5X 1767   6.779   4.271   6.946  1.1853 -0.8579 -0.5950
   14DOPE   H5Y 1768   6.950   4.313   6.907 -0.4799 -0.4441 -1.4106
   14DOPE   C36 1769   6.843   4.456   7.049  0.6442  0.2231  0.4546
   14DOPE   H6X 1770   6.821   4.527   6.967  1.3851 -0.0310  0.0168
   14DOPE   H6Y 1771   6.932   4.500   7.099  0.8274 -0.7817  1.0353
   14DOPE   C37 1772   6.721   4.466   7.131 -0.2275 -0.3532 -0.8525
   14DOPE   H7X 1773   6.636   4.421   7.075 -1.4779  0.9193 -0.0425
   14DOPE   H7Y 1774   6.729   4.414   7.229  1.2407  0.7261 -0.3554
   14DOPE   C38 1775   6.672   4.612   7.168  0.5672  0.2402  0.2954
   14DOPE   H8X 1776   6.573   4.611   7.218  0.5701 -0.6765  0.2903
   14DOPE   H8Y 1777   6.667   4.667   7.071  2.7554  1.2954  0.6984
   14DOPE   C39 1778   6.758   4.695   7.263 -0.5133 -0.1152  0.0345
   14DOPE   H9X 1779   6.761   4.661   7.367 -0.6088  0.7548  0.3350
   14DOPE  C310 1780   6.834   4.792   7.217 -1.0900  0.8339  0.0562
   14DOPE  H10X 1781   6.886   4.862   7.285  1.0033 -0.3587 -0.2195
   14DOPE  C311 1782   6.852   4.837   7.079  0.2800 -0.1945  0.1783
   14DOPE  H11X 1783   6.954   4.883   7.077 -0.2632  1.0335 -0.5020
   14DOPE  H11Y 1784   6.844   4.763   6.997 -2.3265  0.7165 -0.4741
   14DOPE  C312 1785   6.752   4.945   7.042 -0.4327 -0.0720  0.4181
   14DOPE  H12X 1786   6.756   5.035   7.107 -0.8596 -0.0907  0.4714
   14DOPE  H12Y 1787   6.649   4.912   7.066 -1.3178  1.1043 -1.5365
   14DOPE  C313 1788   6.766   4.990   6.901 -0.1174  0.1369 -0.0985
   14DOPE  H13X 1789   6.869   5.031   6.898 -0.3525  0.6822 -1.0663
   14DOPE  H13Y 1790   6.745   4.913   6.825  1.3285  0.1663 -0.5579
   14DOPE  C314 1791   6.668   5.102   6.873  0.1114 -0.1288  0.3024
   14DOPE  H14X 1792   6.684   5.179   6.952  0.4830 -0.6144  0.7026
   14DOPE  H14Y 1793   6.571   5.054   6.895 -0.3967  0.2960 -0.9136
   14DOPE  C315 1794   6.670   5.154   6.723 -0.4039  0.3658 -0.8684
   14DOPE  H15X 1795   6.676   5.059   6.665 -0.8408 -1.3242  1.6875
   14DOPE  H15Y 1796   6.758   5.221   6.709  0.2012  0.1340  1.3747
   14DOPE  C316 1797   6.548   5.246   6.691  0.2127 -0.1704 -0.4028
   14DOPE  H16X 1798   6.564   5.345   6.738  0.0961 -0.4845  0.3013
   14DOPE  H16Y 1799   6.456   5.202   6.736  1.4661 -2.0515  0.4244
   14DOPE  C317 1800   6.523   5.275   6.544  0.2188  0.3546 -0.6337
   14DOPE  H17X 1801   6.500   5.183   6.487 -0.4353  0.4172 -0.4793
   14DOPE  H17Y 1802   6.425   5.327   6.541  1.3186  2.5986  0.4125
   14DOPE  C318 1803   6.633   5.365   6.472  0.5871  0.1665 -0.8465
   14DOPE  H18X 1804   6.728   5.308   6.459 -0.6235 -2.0246 -0.7399
   14DOPE  H18Y 1805   6.587   5.390   6.374 -1.3685 -0.4608 -0.1382
   14DOPE  H18Z 1806   6.652   5.465   6.516  0.8837 -0.4855  0.5674
   15DOPE     N 1807   1.831   1.294   7.447  0.3248 -0.3098 -0.5667
   15DOPE   HN1 1808   1.804   1.257   7.540 -0.9519  0.7785 -0.4659
   15DOPE   HN2 1809   1.916   1.251   7.406  1.7125  1.1397  0.7032
   15DOPE   HN3 1810   1.843   1.396   7.462 -1.1001  0.1639 -2.2875
   15DOPE   C12 1811   1.721   1.277   7.351  0.0632  0.0227 -0.0431
   15DOPE  H12A 1812   1.752   1.298   7.246 -2.2607 -1.0137 -1.0128
   15DOPE  H12B 1813   1.649   1.354   7.388  0.1824 -0.1232  0.4988
   15DOPE   C11 1814   1.665   1.133   7.360 -0.5519  0.4102 -0.6784
   15DOPE  H11A 1815   1.736   1.050   7.336 -1.0601 -0.8322  1.7521
   15DOPE  H11B 1816   1.582   1.117   7.288 -0.9786  2.0027 -0.5573
   15DOPE     P 1817   1.474   1.149   7.536 -0.3466 -0.2226  0.5637
   15DOPE   O13 1818   1.457   1.290   7.516 -0.0633  0.0570 -0.9090
   15DOPE   O14 1819   1.437   1.094   7.667 -0.5399  0.3030 -0.1045
   15DOPE   O11 1820   1.388   1.088   7.421  0.2844  0.1193  0.4110
   15DOPE   O12 1821   1.620   1.107   7.493 -0.3076  0.0201  0.2988
   15DOPE    C1 1822   1.392   0.950   7.391 -0.5576 -0.0228  0.1257
   15DOPE    HA 1823   1.329   0.904   7.470 -1.5106 -0.8338 -1.0755
   15DOPE    HB 1824   1.492   0.909   7.418  0.6126  0.7314 -2.6289
   15DOPE    C2 1825   1.355   0.922   7.247 -0.0553  0.0187 -0.2594
   15DOPE    HS 1826   1.448   0.914   7.186 -1.1676  0.3673 -2.0880
   15DOPE   O21 1827   1.259   1.012   7.193  0.1514 -0.1143  0.0763
   15DOPE   C21 1828   1.310   1.109   7.119 -0.0796  0.6940  0.4206
   15DOPE   O22 1829   1.427   1.119   7.078 -0.7790  0.5628 -0.5600
   15DOPE   C22 1830   1.204   1.208   7.082  0.0126 -0.4391 -0.0547
   15DOPE   H2R 1831   1.257   1.306   7.085 -1.7096  0.5088  0.8306
   15DOPE   H2S 1832   1.115   1.206   7.149 -0.7012 -2.8007 -0.9829
   15DOPE    C3 1833   1.289   0.779   7.252 -0.1995 -0.2562 -0.5926
   15DOPE    HX 1834   1.193   0.778   7.307 -0.0698  0.3081 -0.3387
   15DOPE    HY 1835   1.369   0.718   7.301 -0.4244 -0.3666 -0.3607
   15DOPE   O31 1836   1.281   0.726   7.122  0.1553  0.0007  0.1138
   15DOPE   C31 1837   1.158   0.710   7.071  0.4635 -0.9682  0.0468
   15DOPE   O32 1838   1.053   0.746   7.123  0.6464  0.7906 -0.4872
   15DOPE   C32 1839   1.166   0.628   6.940  0.1141 -0.8339 -1.1431
   15DOPE   H2X 1840   1.251   0.659   6.875  0.1925  1.1964 -0.1432
   15DOPE   H2Y 1841   1.168   0.522   6.975  0.8858 -0.9962 -1.6420
   15DOPE   C23 1842   1.152   1.183   6.940 -0.2737  0.7728  0.2807
   15DOPE   H3R 1843   1.073   1.105   6.938 -0.3299  0.8170  0.6620
   15DOPE   H3S 1844   1.240   1.160   6.877 -0.2684  3.5364 -0.8810
   15DOPE   C24 1845   1.097   1.309   6.873 -0.3861  0.1655  0.3799
   15DOPE   H4R 1846   1.183   1.378   6.858 -0.9752  0.7376 -0.4998
   15DOPE   H4S 1847   1.030   1.370   6.938 -1.3636 -0.6341  0.1490
   15DOPE   C25 1848   1.037   1.285   6.735 -0.7043  0.5105  0.1098
   15DOPE   H5R 1849   0.940   1.231   6.742 -0.5340  0.2565  0.4701
   15DOPE   H5S 1850   1.113   1.220   6.687 -2.1326  0.0103 -1.6023
   15DOPE   C26 1851   1.000   1.411   6.648 -0.2462  0.3625  0.0761
   15DOPE   H6R 1852   1.096   1.466   6.658 -0.8875  1.8853 -1.6621
   15DOPE   H6S 1853   0.915   1.464   6.697 -0.9584  0.5989 -1.3603
   15DOPE   C27 1854   0.962   1.400   6.501 -0.4386 -0.4111 -0.2981
   15DOPE   H7R 1855   1.011   1.313   6.452 -0.1666 -0.0918 -0.6005
   15DOPE   H7S 1856   0.993   1.499   6.460 -0.2584  0.2748  1.4124
   15DOPE   C28 1857   0.809   1.382   6.474 -0.7168 -0.7120 -0.1948
   15DOPE   H8R 1858   0.803   1.405   6.365 -0.2533 -2.5205 -0.6413
   15DOPE   H8S 1859   0.753   1.468   6.516  0.9310  0.7621 -0.8652
   15DOPE   C29 1860   0.745   1.251   6.509  0.4471 -0.5662 -0.5690
   15DOPE   H9R 1861   0.708   1.249   6.612 -1.1956  1.1319 -1.0763
   15DOPE  C210 1862   0.713   1.147   6.429  0.2567 -0.2796  0.8531
   15DOPE  H10R 1863   0.652   1.063   6.465  1.8151 -1.4032  0.9665
   15DOPE  C211 1864   0.744   1.141   6.276  0.4782  0.2076 -0.6573
   15DOPE  H11R 1865   0.699   1.230   6.226 -1.1576 -0.5376 -0.5814
   15DOPE  H11S 1866   0.681   1.062   6.229  0.4939  0.2348 -0.7255
   15DOPE  C212 1867   0.890   1.120   6.227 -0.3423  0.1559 -0.5810
   15DOPE  H12R 1868   0.946   1.060   6.303  0.9736  1.8812 -0.1022
   15DOPE  H12S 1869   0.955   1.211   6.229 -0.5481  0.3539 -1.9486
   15DOPE  C213 1870   0.911   1.043   6.101  0.1538  0.0056 -0.1322
   15DOPE  H13R 1871   0.879   0.940   6.127 -2.1671 -0.0024 -2.5959
   15DOPE  H13S 1872   1.020   1.052   6.077  0.5991 -0.5519  1.5598
   15DOPE  C214 1873   0.829   1.098   5.989  0.1611 -0.6719  0.5347
   15DOPE  H14R 1874   0.724   1.123   6.015  0.4487  0.8352  0.3312
   15DOPE  H14S 1875   0.828   1.024   5.907  2.0940 -3.1839  2.6164
   15DOPE  C215 1876   0.887   1.236   5.943  0.2274  0.2689  0.8396
   15DOPE  H15R 1877   0.995   1.226   5.920  0.0697 -0.5899  0.4173
   15DOPE  H15S 1878   0.868   1.314   6.020 -1.3917  2.9783 -2.0793
   15DOPE  C216 1879   0.809   1.301   5.823 -0.2396 -0.2800 -0.3392
   15DOPE  H16R 1880   0.699   1.308   5.832  0.0305  2.2550  1.8670
   15DOPE  H16S 1881   0.833   1.236   5.736  1.0771  0.0165 -0.2113
   15DOPE  C217 1882   0.869   1.428   5.760 -0.4571 -0.0908  0.2335
   15DOPE  H17R 1883   0.976   1.401   5.743 -0.0548  0.2330  2.0744
   15DOPE  H17S 1884   0.858   1.511   5.833  1.6832 -0.0466  0.5866
   15DOPE  C218 1885   0.797   1.466   5.634 -0.1967  0.5473  0.0882
   15DOPE  H18R 1886   0.839   1.558   5.589  0.0679 -0.3485 -1.5498
   15DOPE  H18S 1887   0.687   1.479   5.643  0.0672  2.7591  0.5223
   15DOPE  H18T 1888   0.828   1.393   5.556  3.1072  1.1805  0.6495
   15DOPE   C33 1889   1.031   0.657   6.858 -0.2828  0.6055 -0.3603
   15DOPE   H3X 1890   0.942   0.654   6.925  0.1335  3.7086  0.4829
   15DOPE   H3Y 1891   1.021   0.587   6.773 -0.2273 -0.1027  0.2022
   15DOPE   C34 1892   1.049   0.795   6.800 -0.0499 -0.3709  0.6335
   15DOPE   H4X 1893   1.058   0.874   6.878  0.9449 -0.8009  0.9681
   15DOPE   H4Y 1894   1.140   0.806   6.739 -1.1252  2.2486 -0.6323
   15DOPE   C35 1895   0.942   0.845   6.706  0.4069 -0.8212 -0.0462
   15DOPE   H5X 1896   0.935   0.952   6.675  0.7592 -0.6398  0.4923
   15DOPE   H5Y 1897   0.853   0.817   6.766 -0.7836 -0.3400 -1.5396
   15DOPE   C36 1898   0.934   0.766   6.571 -0.0625  0.0727 -0.0513
   15DOPE   H6X 1899   1.002   0.679   6.561  0.5074  0.3586  1.1527
   15DOPE   H6Y 1900   0.974   0.835   6.494  0.3296  0.2998  0.3535
   15DOPE   C37 1901   0.788   0.724   6.539  0.0508  0.3418 -0.1362
   15DOPE   H7X 1902   0.765   0.638   6.605  1.1563  0.1142 -0.0162
   15DOPE   H7Y 1903   0.722   0.808   6.570  1.6375  1.5526  0.1536
   15DOPE   C38 1904   0.770   0.695   6.385  0.0716  0.4400 -0.6953
   15DOPE   H8X 1905   0.856   0.633   6.354 -2.0734 -1.7628 -2.6217
   15DOPE   H8Y 1906   0.775   0.793   6.332 -0.2889  2.3460  2.5410
   15DOPE   C39 1907   0.655   0.607   6.353 -0.3308  0.4482 -0.4605
   15DOPE   H9X 1908   0.681   0.501   6.337 -2.8334  0.0189 -2.0998
   15DOPE  C310 1909   0.525   0.632   6.367 -0.5955  0.0464  0.2652
   15DOPE  H10X 1910   0.460   0.548   6.340  0.9105 -1.3507  0.8184
   15DOPE  C311 1911   0.462   0.770   6.392  0.2212 -0.1130  0.0682
   15DOPE  H11X 1912   0.409   0.768   6.490  2.4738 -1.2703  1.3323
   15DOPE  H11Y 1913   0.537   0.850   6.405 -1.7877  1.7853  0.5035
   15DOPE  C312 1914   0.373   0.809   6.272 -0.2970  0.3816 -0.0034
   15DOPE  H12X 1915   0.329   0.910   6.288 -0.5825  0.5054 -1.4163
   15DOPE  H12Y 1916   0.296   0.733   6.245 -1.1485  1.0342  0.5220
   15DOPE  C313 1917   0.454   0.818   6.140  0.0330 -0.2613 -0.5749
   15DOPE  H13X 1918   0.557   0.854   6.161 -0.2464 -0.1298  0.6059
   15DOPE  H13Y 1919   0.477   0.718   6.098  1.1479  0.0084 -0.6590
   15DOPE  C314 1920   0.392   0.905   6.032  0.2366  0.0745 -0.7479
   15DOPE  H14X 1921   0.355   0.995   6.085  2.4331  2.4822 -2.9885
   15DOPE  H14Y 1922   0.304   0.853   5.989  0.1698 -0.4180 -0.0283
   15DOPE  C315 1923   0.470   0.969   5.921  0.4012  0.0015  0.7055
   15DOPE  H15X 1924   0.516   0.888   5.860  1.2424  0.7346  0.3435
   15DOPE  H15Y 1925   0.556   1.024   5.967  0.6129  0.7316 -0.5045
   15DOPE  C316 1926   0.402   1.059   5.816  0.3687 -0.0197 -0.1528
   15DOPE  H16X 1927   0.338   1.003   5.744  0.1190  1.5995 -1.2622
   15DOPE  H16Y 1928   0.473   1.113   5.749  0.0602 -1.5923 -1.8401
   15DOPE  C317 1929   0.293   1.161   5.868  0.5523  0.1888 -0.6332
   15DOPE  H17X 1930   0.228   1.198   5.785  0.9210  0.9294 -0.5952
   15DOPE  H17Y 1931   0.225   1.109   5.939  1.3524  1.3814  1.0604
   15DOPE  C318 1932   0.355   1.278   5.949 -0.0346  0.5017 -0.1126
   15DOPE  H18X 1933   0.298   1.270   6.044  1.3164 -1.4796  0.5780
   15DOPE  H18Y 1934   0.461   1.254   5.970 -0.7767 -1.5839  1.5468
   15DOPE  H18Z 1935   0.341   1.380   5.908  1.1398 -0.0805 -2.0765
   16DOPE     N 1936   0.097   3.179   8.254 -0.1761 -0.5983 -0.4789
   16DOPE   HN1 1937   0.094   3.167   8.357  2.3392  2.3118  0.1088
   16DOPE   HN2 1938   0.123   3.280   8.245  0.0655 -0.5201  0.8924
   16DOPE   HN3 1939   0.000   3.174   8.215 -0.0137  0.0920 -1.0091
   16DOPE   C12 1940   0.178   3.086   8.171 -0.2706  0.0139  0.2011
   16DOPE  H12A 1941   0.202   2.995   8.230 -0.0005 -0.0072  0.0618
   16DOPE  H12B 1942   0.274   3.136   8.146 -0.1580 -0.3780 -0.1617
   16DOPE   C11 1943   0.105   3.047   8.037 -0.1611  0.4770 -0.0678
   16DOPE  H11A 1944   0.005   3.013   8.072 -0.2388 -0.7194 -1.3762
   16DOPE  H11B 1945   0.170   2.970   7.991 -1.1831  0.1278 -0.9546
   16DOPE     P 1946  -0.014   3.161   7.831  0.1566 -0.1037 -0.0547
   16DOPE   O13 1947   0.011   3.270   7.726  0.2237 -0.0007  0.4115
   16DOPE   O14 1948  -0.151   3.147   7.892 -0.4794 -0.8285  0.3798
   16DOPE   O11 1949   0.013   3.019   7.767 -0.3714  0.0913 -0.1298
   16DOPE   O12 1950   0.092   3.161   7.951 -0.2655  0.1681  0.2075
   16DOPE    C1 1951   0.100   3.007   7.656  0.1887  0.1321  0.0141
   16DOPE    HA 1952   0.157   2.912   7.649  0.1420  0.1441 -0.6443
   16DOPE    HB 1953   0.169   3.093   7.646  0.1457  0.0336 -1.2645
   16DOPE    C2 1954   0.014   2.996   7.519 -0.2853  0.0928 -0.1563
   16DOPE    HS 1955   0.080   3.022   7.434  0.9884  0.7091  0.9903
   16DOPE   O21 1956  -0.109   3.078   7.525 -0.5522  0.6580  0.2246
   16DOPE   C21 1957  -0.101   3.190   7.452 -0.0759 -0.2070  0.4550
   16DOPE   O22 1958  -0.001   3.245   7.422 -0.0275 -0.5566  1.0001
   16DOPE   C22 1959  -0.247   3.246   7.437 -0.1435 -0.3138 -0.2053
   16DOPE   H2R 1960  -0.255   3.291   7.539 -0.4129  2.9889 -1.5667
   16DOPE   H2S 1961  -0.313   3.160   7.412 -0.8991  0.4857 -1.0227
   16DOPE    C3 1962  -0.032   2.856   7.497  0.6440 -0.0360  0.2155
   16DOPE    HX 1963  -0.092   2.824   7.584 -0.0537 -2.4369 -1.0721
   16DOPE    HY 1964   0.051   2.783   7.504 -1.0271 -1.8511  2.4189
   16DOPE   O31 1965  -0.113   2.848   7.378  0.5641 -0.9863  0.0045
   16DOPE   C31 1966  -0.049   2.820   7.267  0.4286  0.1781  0.6293
   16DOPE   O32 1967   0.071   2.795   7.257 -0.8226  0.2257  0.1341
   16DOPE   C32 1968  -0.142   2.827   7.146  0.2533 -0.3357 -0.2861
   16DOPE   H2X 1969  -0.082   2.839   7.053  1.8504 -0.9385  0.6406
   16DOPE   H2Y 1970  -0.201   2.732   7.150  2.6631 -1.8781  0.3082
   16DOPE   C23 1971  -0.262   3.364   7.339  0.9145 -0.1700 -1.1995
   16DOPE   H3R 1972  -0.201   3.450   7.374 -0.1933  0.5839 -1.0844
   16DOPE   H3S 1973  -0.371   3.383   7.343  1.0857  0.7897 -0.9324
   16DOPE   C24 1974  -0.241   3.322   7.189  0.0422  0.1566  0.4789
   16DOPE   H4R 1975  -0.313   3.239   7.180  2.2136 -1.8844  0.8371
   16DOPE   H4S 1976  -0.138   3.282   7.174 -0.5503 -1.6773  1.1482
   16DOPE   C25 1977  -0.277   3.426   7.080  0.0303  0.3175  0.3849
   16DOPE   H5R 1978  -0.197   3.503   7.080 -0.0456  0.4024 -0.0392
   16DOPE   H5S 1979  -0.370   3.482   7.105 -1.6088 -1.0503 -2.1385
   16DOPE   C26 1980  -0.301   3.362   6.939  1.1866 -0.5057 -0.3926
   16DOPE   H6R 1981  -0.336   3.438   6.865  1.0244  0.4033  0.6008
   16DOPE   H6S 1982  -0.387   3.293   6.947 -0.8041  1.3526 -3.4316
   16DOPE   C27 1983  -0.180   3.291   6.874 -0.2724  0.6545  0.3950
   16DOPE   H7R 1984  -0.134   3.229   6.955 -0.1269 -1.5659 -1.2786
   16DOPE   H7S 1985  -0.098   3.359   6.844 -1.6106  2.2148  0.1417
   16DOPE   C28 1986  -0.212   3.197   6.759  0.3862  0.0856 -0.1781
   16DOPE   H8R 1987  -0.288   3.123   6.794  1.0963 -0.8491 -0.5573
   16DOPE   H8S 1988  -0.115   3.146   6.740 -1.2866 -2.5858 -2.4905
   16DOPE   C29 1989  -0.261   3.267   6.644  0.5069 -1.0567  0.7378
   16DOPE   H9R 1990  -0.223   3.367   6.618 -0.2299 -0.2350  2.6267
   16DOPE  C210 1991  -0.327   3.201   6.548 -0.6300 -0.8382 -0.6936
   16DOPE  H10R 1992  -0.366   3.270   6.471 -2.0398  1.7832  2.1404
   16DOPE  C211 1993  -0.370   3.061   6.525 -0.2284  0.2495  0.4369
   16DOPE  H11R 1994  -0.474   3.051   6.487 -0.1413  0.0392  0.2552
   16DOPE  H11S 1995  -0.390   3.009   6.620  0.9583  0.7790  1.0000
   16DOPE  C212 1996  -0.289   2.960   6.434  0.2566 -0.3759  0.1442
   16DOPE  H12R 1997  -0.202   2.921   6.491  1.8390  1.6456 -0.7446
   16DOPE  H12S 1998  -0.253   3.015   6.344  0.9953 -1.3827 -0.1913
   16DOPE  C213 1999  -0.386   2.849   6.374  0.0045 -0.3324  0.2116
   16DOPE  H13R 2000  -0.461   2.903   6.313  0.7263 -1.5132 -1.8292
   16DOPE  H13S 2001  -0.431   2.785   6.454 -0.2502  0.1100  0.4301
   16DOPE  C214 2002  -0.319   2.752   6.282  0.0317 -0.1155 -0.4400
   16DOPE  H14R 2003  -0.277   2.813   6.199 -1.4275  2.0834  0.3356
   16DOPE  H14S 2004  -0.397   2.683   6.243  1.2731 -1.4061 -0.7052
   16DOPE  C215 2005  -0.209   2.662   6.346 -0.6045  0.3235  0.0048
   16DOPE  H15R 2006  -0.259   2.601   6.424  1.7716 -2.8322 -0.7388
   16DOPE  H15S 2007  -0.137   2.728   6.399  1.6432 -1.0548 -1.1899
   16DOPE  C216 2008  -0.130   2.578   6.243 -0.1923  0.7548 -0.2144
   16DOPE  H16R 2009  -0.091   2.658   6.176  1.0986  1.1618  0.9989
   16DOPE  H16S 2010  -0.190   2.511   6.177 -0.4126  0.1746  0.5591
   16DOPE  C217 2011  -0.019   2.498   6.303 -0.2656  0.3024  0.2610
   16DOPE  H17R 2012  -0.047   2.441   6.394  0.1675 -1.1231 -0.4584
   16DOPE  H17S 2013   0.046   2.576   6.349  2.1468 -1.9609  1.0073
   16DOPE  C218 2014   0.058   2.401   6.214  0.4420 -0.3401  0.2687
   16DOPE  H18R 2015  -0.005   2.340   6.146  0.6386  0.0748 -0.2979
   16DOPE  H18S 2016   0.116   2.336   6.282  1.3702  2.8878  2.8074
   16DOPE  H18T 2017   0.125   2.454   6.143 -1.4492  0.0716 -1.3145
   16DOPE   C33 2018  -0.222   2.957   7.143 -0.4325 -0.7697  0.2070
   16DOPE   H3X 2019  -0.160   3.049   7.133 -0.4497 -0.6111  1.4507
   16DOPE   H3Y 2020  -0.282   2.969   7.236 -2.0204 -0.6406 -0.7938
   16DOPE   C34 2021  -0.313   2.962   7.017 -0.3024  0.0583 -0.1668
   16DOPE   H4X 2022  -0.351   3.065   6.999 -0.9613 -0.5126 -2.2724
   16DOPE   H4Y 2023  -0.245   2.949   6.931 -0.9641  0.0285 -0.6938
   16DOPE   C35 2024  -0.425   2.859   7.014 -0.6914  0.5890  0.3647
   16DOPE   H5X 2025  -0.494   2.860   7.102 -0.3136  0.3668  0.6682
   16DOPE   H5Y 2026  -0.367   2.765   7.019  0.8248  1.3016 -2.0878
   16DOPE   C36 2027  -0.504   2.872   6.880 -0.4111 -0.3613  0.3486
   16DOPE   H6X 2028  -0.540   2.768   6.861  1.8250 -1.3514  1.1349
   16DOPE   H6Y 2029  -0.438   2.894   6.794  1.1937 -0.1894  1.5722
   16DOPE   C37 2030  -0.626   2.963   6.897 -0.7865  0.0516 -0.1162
   16DOPE   H7X 2031  -0.689   2.928   6.982 -1.5077 -1.8286 -1.3729
   16DOPE   H7Y 2032  -0.582   3.057   6.938 -2.1956  0.3368  0.8349
   16DOPE   C38 2033  -0.724   2.983   6.788  0.5461 -0.1872  0.8864
   16DOPE   H8X 2034  -0.796   2.899   6.782  1.1679 -0.7124  0.6346
   16DOPE   H8Y 2035  -0.664   2.979   6.695 -1.6063 -0.1545 -0.5654
   16DOPE   C39 2036  -0.796   3.114   6.791 -0.0983  1.0281 -0.1856
   16DOPE   H9X 2037  -0.820   3.143   6.894 -0.4620 -2.2881  0.7731
   16DOPE  C310 2038  -0.849   3.174   6.680 -0.4931  0.2404 -0.0707
   16DOPE  H10X 2039  -0.891   3.275   6.695 -0.3878  0.1382  0.9803
   16DOPE  C311 2040  -0.839   3.132   6.539 -0.2441  0.8102 -0.4332
   16DOPE  H11X 2041  -0.772   3.043   6.536  2.1963  2.5302 -0.0419
   16DOPE  H11Y 2042  -0.943   3.123   6.501 -0.5144  1.1110  0.2201
   16DOPE  C312 2043  -0.769   3.235   6.450 -0.2870  0.4566  0.4274
   16DOPE  H12X 2044  -0.676   3.272   6.499  0.4037  0.2940 -0.7242
   16DOPE  H12Y 2045  -0.829   3.328   6.436  1.2301  1.1753 -1.9145
   16DOPE  C313 2046  -0.756   3.180   6.308 -0.8579  0.0837 -0.1033
   16DOPE  H13X 2047  -0.701   3.083   6.311  0.9462  1.0862  0.5110
   16DOPE  H13Y 2048  -0.857   3.161   6.266 -1.5438  1.1471  0.9922
   16DOPE  C314 2049  -0.660   3.255   6.218 -0.0013  0.1054 -0.0204
   16DOPE  H14X 2050  -0.554   3.222   6.227 -0.7962 -2.1293  2.5503
   16DOPE  H14Y 2051  -0.648   3.361   6.247  0.5669  0.5339 -1.6870
   16DOPE  C315 2052  -0.696   3.249   6.071  0.0825  0.2390 -0.5500
   16DOPE  H15X 2053  -0.704   3.142   6.039 -3.0872 -0.0345  0.8232
   16DOPE  H15Y 2054  -0.623   3.298   6.003 -0.2612 -0.6630 -1.6221
   16DOPE  C316 2055  -0.828   3.325   6.041  0.6981 -0.0898  0.0986
   16DOPE  H16X 2056  -0.835   3.419   6.100 -0.9373  0.5094 -0.9730
   16DOPE  H16Y 2057  -0.914   3.267   6.082 -0.1018 -0.7870 -2.4201
   16DOPE  C317 2058  -0.870   3.345   5.892  0.5290 -0.1552  0.1114
   16DOPE  H17X 2059  -0.777   3.365   5.835  0.5097 -2.7138 -0.9532
   16DOPE  H17Y 2060  -0.917   3.254   5.849 -0.3659  1.4778 -2.6395
   16DOPE  C318 2061  -0.974   3.459   5.876  0.4571  0.5699 -0.5097
   16DOPE  H18X 2062  -0.966   3.491   5.769  1.6442 -2.0671 -1.2867
   16DOPE  H18Y 2063  -1.072   3.409   5.890  0.4838 -0.0920 -2.3503
   16DOPE  H18Z 2064  -0.965   3.543   5.948 -1.3645 -0.4001  0.9149
   17DOPE     N 2065   2.228   6.328   6.557 -0.0812  0.1270  0.0133
   17DOPE   HN1 2066   2.136   6.303   6.515  0.9587 -1.0863 -1.6704
   17DOPE   HN2 2067   2.282   6.241   6.569 -0.9905 -0.3950  0.4393
   17DOPE   HN3 2068   2.214   6.375   6.649  1.1872  3.9506 -1.5480
   17DOPE   C12 2069   2.313   6.413   6.464 -0.3815 -0.1621 -0.6921
   17DOPE  H12A 2070   2.254   6.491   6.412 -0.6938  2.0023  2.6682
   17DOPE  H12B 2071   2.351   6.344   6.385 -2.1350 -1.1081 -0.7608
   17DOPE   C11 2072   2.421   6.473   6.548 -0.9014 -0.1278 -0.0668
   17DOPE  H11A 2073   2.496   6.510   6.474  0.2645 -0.9380  0.6815
   17DOPE  H11B 2074   2.477   6.397   6.606  1.7057 -0.1895 -2.4172
   17DOPE     P 2075   2.477   6.653   6.728  0.1304 -0.0046 -0.0106
   17DOPE   O13 2076   2.485   6.564   6.847 -0.3821  0.2644 -0.6723
   17DOPE   O14 2077   2.430   6.793   6.759  0.0757 -0.6818 -0.1397
   17DOPE   O11 2078   2.615   6.651   6.650  0.1917  0.2661  0.4575
   17DOPE   O12 2079   2.378   6.580   6.628  0.0026  0.4260 -0.1335
   17DOPE    C1 2080   2.689   6.770   6.617  0.3142 -0.1234  0.0037
   17DOPE    HA 2081   2.798   6.756   6.628  0.3879 -0.7417 -1.3465
   17DOPE    HB 2082   2.675   6.846   6.697  0.2544 -2.0528  1.8926
   17DOPE    C2 2083   2.659   6.826   6.478 -0.5504 -0.0476 -0.0531
   17DOPE    HS 2084   2.550   6.810   6.464 -0.3220 -3.5013  1.1744
   17DOPE   O21 2085   2.730   6.736   6.394  0.3820  0.2471  0.4577
   17DOPE   C21 2086   2.688   6.736   6.268  0.0301 -1.2775 -0.1516
   17DOPE   O22 2087   2.594   6.798   6.222 -0.1439 -0.1665 -0.2682
   17DOPE   C22 2088   2.786   6.646   6.188  0.1829 -0.3040  0.5861
   17DOPE   H2R 2089   2.799   6.557   6.253 -2.6978 -0.8257  0.5753
   17DOPE   H2S 2090   2.878   6.700   6.160  1.2353 -1.6987  1.2134
   17DOPE    C3 2091   2.712   6.971   6.457 -0.4656 -0.8207 -0.5496
   17DOPE    HX 2092   2.820   6.960   6.482 -0.3188  1.4148 -0.0265
   17DOPE    HY 2093   2.671   7.033   6.539  0.7858  0.6690 -1.0081
   17DOPE   O31 2094   2.685   7.030   6.329 -0.0974  0.3961  0.1016
   17DOPE   C31 2095   2.791   7.040   6.255  0.2461  0.0996 -0.4887
   17DOPE   O32 2096   2.905   6.996   6.284  0.1178 -0.3370  0.0075
   17DOPE   C32 2097   2.739   7.092   6.120 -0.3474  0.8738  0.4997
   17DOPE   H2X 2098   2.650   7.032   6.093 -0.4617  0.9936  0.6078
   17DOPE   H2Y 2099   2.703   7.197   6.126 -1.3960  0.7346 -2.2030
   17DOPE   C23 2100   2.714   6.597   6.062  0.1126  0.1130  0.2747
   17DOPE   H3R 2101   2.695   6.683   5.994  1.6521  1.0642  0.9734
   17DOPE   H3S 2102   2.621   6.543   6.088  1.6709 -2.3081  1.2085
   17DOPE   C24 2103   2.795   6.496   5.967  0.4534 -0.0107  0.6396
   17DOPE   H4R 2104   2.825   6.404   6.021 -0.1574  0.0533  1.1068
   17DOPE   H4S 2105   2.887   6.551   5.937  0.6365 -0.9631 -0.5836
   17DOPE   C25 2106   2.724   6.464   5.832 -0.6496  0.4211  0.5850
   17DOPE   H5R 2107   2.684   6.559   5.792 -1.9480 -0.1662  0.4276
   17DOPE   H5S 2108   2.636   6.404   5.863 -1.2240  0.2304 -1.2801
   17DOPE   C26 2109   2.797   6.380   5.723  0.5144 -0.0153  0.1072
   17DOPE   H6R 2110   2.879   6.439   5.676  0.9083 -0.7298 -0.1148
   17DOPE   H6S 2111   2.726   6.364   5.638  0.5989 -0.7088  0.1630
   17DOPE   C27 2112   2.839   6.242   5.768 -0.4219  0.6054  0.0203
   17DOPE   H7R 2113   2.754   6.181   5.805 -0.2843  1.7802  2.4857
   17DOPE   H7S 2114   2.907   6.261   5.854 -0.4655 -0.5439  0.3252
   17DOPE   C28 2115   2.917   6.166   5.657  0.2964 -0.0277  0.1807
   17DOPE   H8R 2116   2.994   6.240   5.625 -0.8150  0.5569 -1.2602
   17DOPE   H8S 2117   2.849   6.147   5.571 -0.5252 -1.8989  1.1648
   17DOPE   C29 2118   2.969   6.037   5.715 -0.3698 -0.1410 -0.0879
   17DOPE   H9R 2119   2.950   6.021   5.822  0.9861  1.4761  0.4330
   17DOPE  C210 2120   3.039   5.950   5.639 -0.0931  0.3214 -0.9158
   17DOPE  H10R 2121   3.080   5.868   5.700  0.5147  0.7493 -0.7464
   17DOPE  C211 2122   3.075   5.958   5.496 -0.1150 -0.0402  0.6369
   17DOPE  H11R 2123   3.182   5.989   5.495 -0.5136  1.6291 -2.7697
   17DOPE  H11S 2124   3.019   6.040   5.445 -2.2004 -0.5743  1.9373
   17DOPE  C212 2125   3.057   5.824   5.422  0.2838  0.8145  0.4189
   17DOPE  H12R 2126   3.067   5.847   5.314 -1.3051 -0.0890  0.0518
   17DOPE  H12S 2127   2.953   5.785   5.432  0.4289  0.1202 -0.6857
   17DOPE  C213 2128   3.162   5.711   5.468  0.2354  0.1160 -0.0904
   17DOPE  H13R 2129   3.127   5.630   5.401  0.1866  1.0187 -1.1906
   17DOPE  H13S 2130   3.146   5.684   5.574 -2.5580 -1.5018 -0.8202
   17DOPE  C214 2131   3.302   5.745   5.444  0.4604 -0.1506  0.5255
   17DOPE  H14R 2132   3.376   5.669   5.479  2.6008  2.0337  0.9811
   17DOPE  H14S 2133   3.335   5.833   5.503  0.1018 -0.7245  1.6156
   17DOPE  C215 2134   3.328   5.756   5.290  0.1165 -0.1388 -0.5577
   17DOPE  H15R 2135   3.250   5.804   5.226  1.1186  0.2679 -1.5123
   17DOPE  H15S 2136   3.338   5.655   5.244 -2.5502 -0.4653 -0.5986
   17DOPE  C216 2137   3.455   5.837   5.251  0.4924  0.3818 -0.2133
   17DOPE  H16R 2138   3.543   5.787   5.296  0.8046  0.1110 -1.1118
   17DOPE  H16S 2139   3.444   5.940   5.292 -3.2318  0.4537 -1.0122
   17DOPE  C217 2140   3.482   5.853   5.103  0.8042  0.7990 -0.7724
   17DOPE  H17R 2141   3.487   5.748   5.068  1.4127 -0.0390  1.6554
   17DOPE  H17S 2142   3.582   5.894   5.076  1.3715  0.4251  0.6875
   17DOPE  C218 2143   3.372   5.926   5.018 -0.5738 -0.6215  0.1625
   17DOPE  H18R 2144   3.277   5.872   4.999 -1.3635  1.5154 -2.7212
   17DOPE  H18S 2145   3.411   5.941   4.915  0.1237 -0.4244  0.4510
   17DOPE  H18T 2146   3.349   6.025   5.062 -0.3587 -0.6466  0.3326
   17DOPE   C33 2147   2.840   7.100   5.998  0.1088  0.2631 -0.4235
   17DOPE   H3X 2148   2.905   7.010   5.999 -2.5116 -1.7423 -0.0274
   17DOPE   H3Y 2149   2.903   7.192   6.002  1.8417 -0.8540 -0.6948
   17DOPE   C34 2150   2.757   7.100   5.869  0.7195  0.6258  0.4407
   17DOPE   H4X 2151   2.821   7.118   5.780  0.4666 -1.6479 -0.2718
   17DOPE   H4Y 2152   2.706   7.003   5.848 -1.0799  1.6529 -0.1632
   17DOPE   C35 2153   2.649   7.199   5.874 -0.3167 -0.2232 -0.0032
   17DOPE   H5X 2154   2.688   7.300   5.899  1.1149 -0.9071  0.6764
   17DOPE   H5Y 2155   2.575   7.176   5.955  0.7655  2.2116  1.8112
   17DOPE   C36 2156   2.576   7.218   5.738  0.0666 -0.1995  0.4329
   17DOPE   H6X 2157   2.503   7.297   5.768  0.3491 -0.4476  1.8304
   17DOPE   H6Y 2158   2.526   7.124   5.706 -0.4510  0.3110 -0.3041
   17DOPE   C37 2159   2.658   7.282   5.622 -0.0508  0.2458 -0.3158
   17DOPE   H7X 2160   2.717   7.373   5.646  0.6433 -0.9219  2.8822
   17DOPE   H7Y 2161   2.733   7.202   5.604  0.6171  0.3147  1.9004
   17DOPE   C38 2162   2.567   7.298   5.505  0.5609  0.0166 -0.4737
   17DOPE   H8X 2163   2.506   7.390   5.519  1.6771  0.6498  0.3432
   17DOPE   H8Y 2164   2.491   7.218   5.487  1.3331 -0.5632 -1.2685
   17DOPE   C39 2165   2.648   7.300   5.387 -0.1287 -0.1974 -0.1575
   17DOPE   H9X 2166   2.722   7.219   5.379  1.5462  1.0568  1.5064
   17DOPE  C310 2167   2.635   7.385   5.283 -0.6791  0.4065  0.0078
   17DOPE  H10X 2168   2.710   7.382   5.203  0.1651  0.3142  0.7737
   17DOPE  C311 2169   2.537   7.490   5.269  0.7018  1.2957 -0.2710
   17DOPE  H11X 2170   2.481   7.508   5.364  2.3962  1.5948  0.7213
   17DOPE  H11Y 2171   2.592   7.586   5.255  2.4641  0.1904 -1.3033
   17DOPE  C312 2172   2.442   7.474   5.154  0.5351 -0.2027 -0.2492
   17DOPE  H12X 2173   2.364   7.553   5.158 -0.1450 -0.8239 -0.8921
   17DOPE  H12Y 2174   2.378   7.383   5.157  2.6700 -1.7482  0.2503
   17DOPE  C313 2175   2.511   7.473   5.012 -0.6252  0.1745  0.1855
   17DOPE  H13X 2176   2.578   7.562   5.003 -0.2146 -0.0807  0.6769
   17DOPE  H13Y 2177   2.566   7.377   4.999  0.6971  1.0092 -0.7387
   17DOPE  C314 2178   2.403   7.479   4.904  0.2141 -0.2887 -0.0454
   17DOPE  H14X 2179   2.448   7.519   4.811 -0.7475  1.0871  0.0630
   17DOPE  H14Y 2180   2.334   7.557   4.942  0.0407 -0.2468 -0.4349
   17DOPE  C315 2181   2.331   7.345   4.874 -0.3936  0.1305 -0.2880
   17DOPE  H15X 2182   2.265   7.320   4.960 -0.9755 -1.1751 -1.0617
   17DOPE  H15Y 2183   2.413   7.270   4.867 -0.2105  0.3909 -1.0703
   17DOPE  C316 2184   2.252   7.344   4.736  0.0237  0.1891  0.3672
   17DOPE  H16X 2185   2.290   7.431   4.677 -0.4315 -0.4732 -0.9406
   17DOPE  H16Y 2186   2.148   7.366   4.767  0.2321  1.0572  0.4899
   17DOPE  C317 2187   2.250   7.194   4.679 -0.1845  0.2296  0.2240
   17DOPE  H17X 2188   2.194   7.199   4.582  0.3598  0.0167 -0.1041
   17DOPE  H17Y 2189   2.353   7.162   4.651 -0.8951  0.1410 -2.6780
   17DOPE  C318 2190   2.189   7.077   4.764  0.5264  0.9808 -0.2012
   17DOPE  H18X 2191   2.249   7.040   4.849 -0.4471  1.2445  0.6177
   17DOPE  H18Y 2192   2.089   7.105   4.804  1.0141  1.5430  0.6435
   17DOPE  H18Z 2193   2.177   6.987   4.700  1.1817  0.2121  0.7419
   18DOPE     N 2194   5.679   3.174   7.822  0.1217  0.3397 -0.7623
   18DOPE   HN1 2195   5.637   3.264   7.851 -0.7460 -0.7528  1.6541
   18DOPE   HN2 2196   5.612   3.098   7.846  0.1197  0.5352 -0.1201
   18DOPE   HN3 2197   5.757   3.161   7.889 -2.0193  2.1304  2.3081
   18DOPE   C12 2198   5.727   3.163   7.687 -0.2909  0.0915  1.4726
   18DOPE  H12A 2199   5.665   3.213   7.609  0.8043 -0.5797  0.1295
   18DOPE  H12B 2200   5.736   3.058   7.653  0.5299  0.5916  0.0267
   18DOPE   C11 2201   5.874   3.212   7.676  0.5665  1.1135 -0.3673
   18DOPE  H11A 2202   5.876   3.322   7.695  0.6864  1.1525 -0.6002
   18DOPE  H11B 2203   5.903   3.186   7.572 -0.1857 -0.2254 -0.2651
   18DOPE     P 2204   6.110   3.168   7.774 -0.0035  0.1703 -0.0422
   18DOPE   O13 2205   6.169   3.067   7.866  0.0556 -0.5395  0.4216
   18DOPE   O14 2206   6.132   3.312   7.798 -0.2362  0.0939  0.3530
   18DOPE   O11 2207   6.151   3.156   7.620 -0.0098  0.4090  0.6332
   18DOPE   O12 2208   5.959   3.140   7.766 -0.4533 -0.2586 -0.4679
   18DOPE    C1 2209   6.140   3.026   7.557  0.6319  0.3905 -0.4646
   18DOPE    HA 2210   6.035   2.994   7.539  0.1252  1.9481 -0.4442
   18DOPE    HB 2211   6.186   2.945   7.618  1.1093  1.9288  1.3012
   18DOPE    C2 2212   6.210   3.034   7.413 -0.1900  0.8019  0.5612
   18DOPE    HS 2213   6.321   3.040   7.410 -0.1772  0.4645 -2.0845
   18DOPE   O21 2214   6.157   3.138   7.332 -0.6166  0.4045  0.1328
   18DOPE   C21 2215   6.202   3.258   7.351 -0.8544  0.4695 -0.0137
   18DOPE   O22 2216   6.316   3.284   7.394  0.2314  0.5457  0.4138
   18DOPE   C22 2217   6.103   3.354   7.301  0.7143  0.6182  0.4128
   18DOPE   H2R 2218   6.025   3.368   7.379  2.7906  1.7389  2.4268
   18DOPE   H2S 2219   6.049   3.302   7.219 -1.3032  0.8629  1.5158
   18DOPE    C3 2220   6.197   2.890   7.344  0.7016  0.6856  0.0942
   18DOPE    HX 2221   6.098   2.848   7.372  0.1588  1.0817 -1.1658
   18DOPE    HY 2222   6.280   2.822   7.372  1.3488  1.2744 -0.3893
   18DOPE   O31 2223   6.191   2.905   7.206  0.0642  0.0084  0.0413
   18DOPE   C31 2224   6.309   2.915   7.143 -0.1242  0.1233  0.2866
   18DOPE   O32 2225   6.414   2.922   7.198 -0.5199 -0.5694  0.1549
   18DOPE   C32 2226   6.292   2.939   6.992  0.2878  0.3824 -0.1241
   18DOPE   H2X 2227   6.319   2.844   6.940 -2.1990  0.2332 -1.3084
   18DOPE   H2Y 2228   6.184   2.949   6.969 -0.2582 -0.6051  1.8087
   18DOPE   C23 2229   6.161   3.488   7.266 -0.1529 -0.3284 -0.6752
   18DOPE   H3R 2230   6.250   3.465   7.203  0.7056  0.7916  0.0879
   18DOPE   H3S 2231   6.212   3.546   7.346  0.9859 -3.1345  0.7665
   18DOPE   C24 2232   6.070   3.567   7.175  0.4544 -0.1012  0.7093
   18DOPE   H4R 2233   5.968   3.580   7.217 -0.7890  1.4360 -2.4529
   18DOPE   H4S 2234   6.048   3.512   7.081 -1.9363  1.2954  0.3773
   18DOPE   C25 2235   6.121   3.698   7.122 -0.4144 -0.1972  0.6046
   18DOPE   H5R 2236   6.200   3.687   7.044 -0.9393 -1.8063  0.2680
   18DOPE   H5S 2237   6.158   3.753   7.211 -1.6623 -1.2260  1.7788
   18DOPE   C26 2238   6.009   3.778   7.052  0.4533  0.3452 -0.2803
   18DOPE   H6R 2239   5.942   3.814   7.132 -0.4983 -0.1036 -0.8548
   18DOPE   H6S 2240   5.951   3.700   6.997  1.3032 -0.6501  0.1956
   18DOPE   C27 2241   6.057   3.894   6.970  0.5565  0.2674  0.4765
   18DOPE   H7R 2242   6.130   3.859   6.894 -0.3551  1.2574 -0.9029
   18DOPE   H7S 2243   6.113   3.972   7.025 -1.1052  2.5874 -0.9688
   18DOPE   C28 2244   5.944   3.962   6.889 -0.8218 -0.0572 -0.0039
   18DOPE   H8R 2245   5.881   4.028   6.953 -0.7747  0.0723 -0.0893
   18DOPE   H8S 2246   5.869   3.886   6.859  0.6079 -1.2117 -0.7627
   18DOPE   C29 2247   5.992   4.033   6.764 -0.1514 -0.7539 -0.0774
   18DOPE   H9R 2248   6.096   4.024   6.729 -0.3016 -0.2926 -0.6514
   18DOPE  C210 2249   5.919   4.138   6.709 -0.1098  0.0062 -0.0835
   18DOPE  H10R 2250   5.964   4.199   6.630 -1.4788 -1.7103 -2.3193
   18DOPE  C211 2251   5.778   4.184   6.739 -0.0179 -0.4288  0.2991
   18DOPE  H11R 2252   5.774   4.287   6.780 -1.5519  0.2239 -1.3393
   18DOPE  H11S 2253   5.737   4.108   6.809 -1.0778  0.6084  0.8335
   18DOPE  C212 2254   5.690   4.185   6.614  0.2521 -0.2210  0.2144
   18DOPE  H12R 2255   5.740   4.244   6.535 -1.5420  0.2264 -0.6423
   18DOPE  H12S 2256   5.589   4.227   6.636  0.2854 -1.2754  2.7086
   18DOPE  C213 2257   5.666   4.042   6.558 -0.0379 -0.4887 -0.3384
   18DOPE  H13R 2258   5.631   3.970   6.635  0.0303 -0.7274 -0.5292
   18DOPE  H13S 2259   5.763   4.000   6.524 -0.5648 -2.2775  0.2449
   18DOPE  C214 2260   5.583   4.053   6.433 -0.1737 -0.2056 -0.8094
   18DOPE  H14R 2261   5.636   4.126   6.368 -2.4722  0.2164 -2.3380
   18DOPE  H14S 2262   5.486   4.105   6.452 -0.4980 -1.0649 -0.0810
   18DOPE  C215 2263   5.577   3.921   6.357 -0.1597  0.3563  0.1609
   18DOPE  H15R 2264   5.542   3.847   6.432 -2.2083  1.6430  0.5573
   18DOPE  H15S 2265   5.675   3.887   6.315 -0.6026  0.8268 -1.3322
   18DOPE  C216 2266   5.479   3.909   6.240 -0.7398 -0.1364  0.5330
   18DOPE  H16R 2267   5.372   3.923   6.268 -1.8756  1.6914 -3.8815
   18DOPE  H16S 2268   5.486   3.811   6.188  2.4758 -1.0496  2.3929
   18DOPE  C217 2269   5.509   4.016   6.128 -0.0729 -0.6316  0.1246
   18DOPE  H17R 2270   5.615   4.032   6.099 -0.7322  0.8567 -1.6469
   18DOPE  H17S 2271   5.472   4.107   6.180  1.2433  0.8776 -1.4574
   18DOPE  C218 2272   5.443   3.984   5.994 -0.0220 -0.0006 -0.0324
   18DOPE  H18R 2273   5.468   4.058   5.914  0.3883 -0.1452 -0.0429
   18DOPE  H18S 2274   5.334   3.983   6.016  0.0375  0.9655  0.3358
   18DOPE  H18T 2275   5.482   3.887   5.957  0.7615  0.9166 -1.7256
   18DOPE   C33 2276   6.385   3.047   6.942 -0.5269  0.1279  0.8355
   18DOPE   H3X 2277   6.487   3.032   6.984  0.8011  0.5729 -1.9248
   18DOPE   H3Y 2278   6.344   3.138   6.991 -1.0757 -0.0311  0.6785
   18DOPE   C34 2279   6.388   3.063   6.789  0.6501  0.5217 -0.0318
   18DOPE   H4X 2280   6.442   2.979   6.740 -0.2039 -0.7381  1.1216
   18DOPE   H4Y 2281   6.286   3.048   6.747  1.3310  1.2846 -2.0938
   18DOPE   C35 2282   6.441   3.193   6.727 -0.6774 -0.1184 -0.2982
   18DOPE   H5X 2283   6.549   3.206   6.752 -0.4026 -1.8664 -0.4656
   18DOPE   H5Y 2284   6.391   3.281   6.773  1.0471 -0.2472  2.0099
   18DOPE   C36 2285   6.437   3.177   6.580 -0.6190 -0.6375  0.2647
   18DOPE   H6X 2286   6.333   3.154   6.546 -0.9809 -0.1995  1.0339
   18DOPE   H6Y 2287   6.502   3.092   6.551  0.0706 -0.3530  0.9528
   18DOPE   C37 2288   6.490   3.310   6.510  1.2617 -0.5598 -0.2334
   18DOPE   H7X 2289   6.401   3.372   6.533 -0.1045 -3.5977  3.8440
   18DOPE   H7Y 2290   6.578   3.357   6.559  1.1756  1.1974 -1.6506
   18DOPE   C38 2291   6.530   3.288   6.366  0.2060  0.7733  0.3167
   18DOPE   H8X 2292   6.442   3.238   6.321 -0.7285  0.4481  2.3898
   18DOPE   H8Y 2293   6.613   3.214   6.364 -0.2942  0.1649  1.4408
   18DOPE   C39 2294   6.588   3.411   6.291 -0.4841  0.6802 -0.4162
   18DOPE   H9X 2295   6.696   3.395   6.276 -0.4870  0.4834 -0.2243
   18DOPE  C310 2296   6.526   3.515   6.230  0.5044  0.2322  0.0471
   18DOPE  H10X 2297   6.585   3.584   6.168  1.1746 -0.7533 -0.4440
   18DOPE  C311 2298   6.377   3.534   6.228 -0.1454 -0.3930  0.5856
   18DOPE  H11X 2299   6.336   3.501   6.326  1.5653 -1.0545  1.1256
   18DOPE  H11Y 2300   6.357   3.642   6.210  0.7566 -0.4712 -1.0940
   18DOPE  C312 2301   6.297   3.447   6.131  0.4375  0.0288 -0.4469
   18DOPE  H12X 2302   6.190   3.444   6.161  0.6853 -0.7311  0.4147
   18DOPE  H12Y 2303   6.320   3.341   6.154 -1.0765  0.4012  3.7685
   18DOPE  C313 2304   6.306   3.485   5.982  0.3787 -0.2447  0.3453
   18DOPE  H13X 2305   6.303   3.597   5.980  0.1964 -0.2528 -0.8465
   18DOPE  H13Y 2306   6.403   3.446   5.944  0.0101 -0.5906 -0.2633
   18DOPE  C314 2307   6.187   3.423   5.906  0.4417 -0.3203 -0.1361
   18DOPE  H14X 2308   6.094   3.466   5.948 -0.3434 -2.7991  0.8375
   18DOPE  H14Y 2309   6.176   3.312   5.910 -0.4857 -0.2074  0.7096
   18DOPE  C315 2310   6.196   3.445   5.753 -0.3601  0.1959 -0.0357
   18DOPE  H15X 2311   6.247   3.359   5.704  0.4783  1.5096 -1.5727
   18DOPE  H15Y 2312   6.274   3.521   5.735  2.7068 -2.5061  0.9482
   18DOPE  C316 2313   6.073   3.481   5.670  0.5122 -0.7233 -0.5940
   18DOPE  H16X 2314   6.013   3.564   5.714 -0.4539 -1.5551 -0.2894
   18DOPE  H16Y 2315   6.006   3.393   5.676 -0.7281  0.2669  1.1172
   18DOPE  C317 2316   6.098   3.495   5.522 -0.1548 -0.4878  0.8934
   18DOPE  H17X 2317   6.162   3.584   5.505 -1.7425  0.4303 -0.5618
   18DOPE  H17Y 2318   6.140   3.403   5.476 -2.5768 -0.3323 -1.8751
   18DOPE  C318 2319   5.967   3.520   5.450  0.4740  0.7286  0.2564
   18DOPE  H18X 2320   5.929   3.604   5.510  1.6657  1.9039 -0.5743
   18DOPE  H18Y 2321   5.977   3.558   5.346 -1.4921 -1.0232 -0.6507
   18DOPE  H18Z 2322   5.903   3.429   5.443  0.2731  0.8373  0.7215
   19DOPE     N 2323   5.246   3.136   7.869 -0.2292 -0.1032 -0.6538
   19DOPE   HN1 2324   5.234   3.233   7.833 -2.7865 -1.2903 -3.3909
   19DOPE   HN2 2325   5.169   3.128   7.938  0.2888 -1.3213 -0.1760
   19DOPE   HN3 2326   5.332   3.133   7.928 -0.6066  3.3047  0.2823
   19DOPE   C12 2327   5.243   3.027   7.762 -0.5384  1.0036 -0.4247
   19DOPE  H12A 2328   5.168   3.046   7.683 -0.3352 -1.6772 -1.3488
   19DOPE  H12B 2329   5.210   2.936   7.817 -0.8090  1.5916  0.4232
   19DOPE   C11 2330   5.383   3.011   7.699 -0.2496 -0.6443  0.1884
   19DOPE  H11A 2331   5.417   3.111   7.665 -0.7524  1.2596  4.6082
   19DOPE  H11B 2332   5.375   2.940   7.614  1.4166  0.7581 -1.2285
   19DOPE     P 2333   5.520   2.830   7.813  0.1552  0.0998  0.0777
   19DOPE   O13 2334   5.415   2.765   7.895  0.0648 -0.3473  0.4177
   19DOPE   O14 2335   5.658   2.817   7.866 -0.2137 -0.2784  0.1255
   19DOPE   O11 2336   5.517   2.751   7.675  0.0865  0.4879 -0.3238
   19DOPE   O12 2337   5.486   2.980   7.790 -0.6210  0.3965 -0.3607
   19DOPE    C1 2338   5.554   2.614   7.655 -0.5499 -0.3841 -0.0454
   19DOPE    HA 2339   5.464   2.549   7.646  0.6287 -2.2330  0.9364
   19DOPE    HB 2340   5.607   2.572   7.743 -0.8165 -0.8027 -0.0797
   19DOPE    C2 2341   5.646   2.596   7.535 -0.1861  0.3263 -1.3433
   19DOPE    HS 2342   5.748   2.617   7.573  0.0987 -1.9955 -0.6258
   19DOPE   O21 2343   5.616   2.672   7.421 -0.2727  0.2554  0.3528
   19DOPE   C21 2344   5.672   2.785   7.403  0.0567 -0.2013  0.1959
   19DOPE   O22 2345   5.750   2.841   7.479 -0.7433  0.3521 -0.1805
   19DOPE   C22 2346   5.601   2.848   7.284 -0.7663 -0.4632  0.2828
   19DOPE   H2R 2347   5.493   2.825   7.297 -0.9360 -0.4932 -0.9909
   19DOPE   H2S 2348   5.617   2.790   7.190  0.1871 -2.8613  1.8361
   19DOPE    C3 2349   5.659   2.445   7.496 -0.4830  0.2107  0.4346
   19DOPE    HX 2350   5.578   2.415   7.426  0.1896  2.8117 -1.6502
   19DOPE    HY 2351   5.657   2.381   7.586  0.2712  0.6864  0.7994
   19DOPE   O31 2352   5.784   2.430   7.419  0.4753  0.0619 -0.5337
   19DOPE   C31 2353   5.840   2.315   7.408 -0.2365 -0.1037 -0.3721
   19DOPE   O32 2354   5.794   2.207   7.444 -0.2301 -0.2103  0.2523
   19DOPE   C32 2355   5.974   2.325   7.342  0.1146  0.4506  0.0841
   19DOPE   H2X 2356   6.009   2.428   7.364  3.4001 -0.4073 -0.6125
   19DOPE   H2Y 2357   6.046   2.258   7.392 -1.4251 -0.4560  1.1746
   19DOPE   C23 2358   5.623   3.002   7.275  0.0976  0.5335  0.8157
   19DOPE   H3R 2359   5.610   3.061   7.368  0.0474  2.0977 -0.1394
   19DOPE   H3S 2360   5.542   3.033   7.206  2.3232 -0.5226 -2.5452
   19DOPE   C24 2361   5.761   3.042   7.227 -0.3592  0.3476 -0.5316
   19DOPE   H4R 2362   5.838   2.971   7.262 -0.9904 -0.5820 -0.9932
   19DOPE   H4S 2363   5.785   3.147   7.255 -2.3576  0.5537  0.6178
   19DOPE   C25 2364   5.776   3.039   7.074 -0.4152 -0.5167  0.1927
   19DOPE   H5R 2365   5.708   3.103   7.014 -1.0405 -1.2176  0.1497
   19DOPE   H5S 2366   5.755   2.938   7.033  1.1340  0.0721 -2.2793
   19DOPE   C26 2367   5.918   3.071   7.016  0.2114  0.0262 -0.1114
   19DOPE   H6R 2368   5.988   2.987   6.996 -0.4443 -0.0967 -2.2012
   19DOPE   H6S 2369   5.966   3.145   7.083 -0.3482  2.1594 -1.9409
   19DOPE   C27 2370   5.905   3.146   6.881 -0.7116 -0.7550  0.2453
   19DOPE   H7R 2371   5.848   3.238   6.906 -2.7043 -1.3403 -1.8190
   19DOPE   H7S 2372   5.843   3.081   6.815 -0.4311 -0.9307  0.1542
   19DOPE   C28 2373   6.035   3.185   6.809  0.7098 -0.1756  0.0408
   19DOPE   H8R 2374   6.007   3.204   6.703 -0.9854 -2.8388 -0.0850
   19DOPE   H8S 2375   6.108   3.102   6.816  0.6513 -0.3322 -1.0473
   19DOPE   C29 2376   6.108   3.310   6.861 -0.6763  0.2815 -0.5587
   19DOPE   H9R 2377   6.145   3.304   6.964  2.6442 -1.1016 -1.7021
   19DOPE  C210 2378   6.127   3.421   6.788 -0.0455  0.5526  0.1134
   19DOPE  H10R 2379   6.196   3.497   6.827  1.0554  1.3961 -3.1567
   19DOPE  C211 2380   6.080   3.444   6.647  0.1331 -0.2573 -0.6191
   19DOPE  H11R 2381   5.969   3.451   6.640  0.2045 -0.6195 -2.7902
   19DOPE  H11S 2382   6.121   3.372   6.574  0.9016 -0.1802 -0.2666
   19DOPE  C212 2383   6.111   3.588   6.597  0.8632 -0.0277  0.5283
   19DOPE  H12R 2384   6.216   3.618   6.616  1.3282  0.2256 -1.9780
   19DOPE  H12S 2385   6.046   3.664   6.644  0.1471 -0.4063  0.1854
   19DOPE  C213 2386   6.077   3.597   6.443 -0.4849 -0.7458  0.1346
   19DOPE  H13R 2387   5.968   3.586   6.425 -0.6295 -0.9041  1.0345
   19DOPE  H13S 2388   6.139   3.518   6.396 -0.1787  0.1780 -1.0852
   19DOPE  C214 2389   6.111   3.738   6.377 -0.6856  0.5673  0.4143
   19DOPE  H14R 2390   6.219   3.761   6.390 -0.3596 -0.0628 -1.0207
   19DOPE  H14S 2391   6.061   3.815   6.440  0.4784  0.6190  1.3059
   19DOPE  C215 2392   6.064   3.748   6.234 -0.2416 -0.3051 -0.0571
   19DOPE  H15R 2393   6.064   3.648   6.186 -1.0210  0.9445 -2.8895
   19DOPE  H15S 2394   6.126   3.805   6.161 -0.3139 -1.0859 -0.7481
   19DOPE  C216 2395   5.919   3.796   6.215  0.7674  0.2265 -1.0686
   19DOPE  H16R 2396   5.917   3.907   6.213 -1.3319  0.3549  1.7625
   19DOPE  H16S 2397   5.873   3.778   6.314  0.3882 -0.8429 -1.4186
   19DOPE  C217 2398   5.843   3.734   6.098  0.3253 -0.3727  0.3612
   19DOPE  H17R 2399   5.739   3.773   6.102  1.4394  3.1345 -0.5150
   19DOPE  H17S 2400   5.828   3.626   6.116 -2.4454  0.3619  3.5162
   19DOPE  C218 2401   5.911   3.769   5.971 -0.7005 -0.1926  0.3651
   19DOPE  H18R 2402   5.865   3.720   5.883  2.3152  2.4613 -3.0048
   19DOPE  H18S 2403   6.009   3.717   5.969  0.7415  2.3301  0.3463
   19DOPE  H18T 2404   5.917   3.879   5.955 -0.6234  0.2086  2.6929
   19DOPE   C33 2405   5.964   2.299   7.194 -0.0400 -0.2578  0.0299
   19DOPE   H3X 2406   5.889   2.364   7.144 -2.4993 -1.4166  2.0118
   19DOPE   H3Y 2407   5.921   2.198   7.177 -0.9631 -0.0144  0.8296
   19DOPE   C34 2408   6.096   2.316   7.121  0.0345  0.5671 -0.1078
   19DOPE   H4X 2409   6.117   2.425   7.123 -0.7790  0.7614  3.4259
   19DOPE   H4Y 2410   6.176   2.257   7.170 -0.9615  0.0591  0.9491
   19DOPE   C35 2411   6.076   2.274   6.970  0.5591  0.1725 -0.8712
   19DOPE   H5X 2412   5.986   2.316   6.921 -0.0508 -0.9059 -0.7082
   19DOPE   H5Y 2413   6.067   2.164   6.958 -1.4602  0.1466  0.3794
   19DOPE   C36 2414   6.190   2.317   6.882 -0.0924  0.2138  0.3908
   19DOPE   H6X 2415   6.278   2.264   6.923  1.6801  0.7710 -2.4244
   19DOPE   H6Y 2416   6.203   2.428   6.880 -1.2910  0.3944  1.2719
   19DOPE   C37 2417   6.170   2.260   6.742  0.2092 -0.4261 -0.2543
   19DOPE   H7X 2418   6.149   2.152   6.750 -0.7572 -0.4115 -2.1150
   19DOPE   H7Y 2419   6.081   2.319   6.710  1.4010  0.1767 -2.6783
   19DOPE   C38 2420   6.286   2.283   6.647 -0.8361 -0.3741  0.5641
   19DOPE   H8X 2421   6.255   2.219   6.562 -0.0492  1.7793 -1.4461
   19DOPE   H8Y 2422   6.382   2.242   6.686 -0.8763 -2.2987 -1.1932
   19DOPE   C39 2423   6.302   2.428   6.607 -0.5073  0.1981 -0.4784
   19DOPE   H9X 2424   6.330   2.499   6.686 -0.5900  1.6061 -1.6734
   19DOPE  C310 2425   6.277   2.478   6.482 -0.6603  0.5687 -0.1783
   19DOPE  H10X 2426   6.315   2.574   6.445  1.5406 -1.1554 -2.7180
   19DOPE  C311 2427   6.238   2.402   6.355 -0.1179  0.5438 -0.1350
   19DOPE  H11X 2428   6.328   2.377   6.295 -0.5214 -0.0514 -0.5062
   19DOPE  H11Y 2429   6.195   2.308   6.395 -1.2232  2.7079  4.4846
   19DOPE  C312 2430   6.144   2.489   6.265  0.4963 -0.4346 -0.4288
   19DOPE  H12X 2431   6.078   2.555   6.326 -0.0234 -0.5071 -0.9002
   19DOPE  H12Y 2432   6.071   2.430   6.206 -0.2549  0.6628 -0.6322
   19DOPE  C313 2433   6.228   2.581   6.172  0.4073 -0.1836  0.0101
   19DOPE  H13X 2434   6.303   2.639   6.231 -1.2116  0.7925  1.2209
   19DOPE  H13Y 2435   6.279   2.519   6.096 -1.6295 -0.0582 -1.5458
   19DOPE  C314 2436   6.143   2.664   6.080  0.8909 -0.4341  0.4295
   19DOPE  H14X 2437   6.086   2.743   6.132  2.0957  2.1856 -1.9862
   19DOPE  H14Y 2438   6.069   2.589   6.046  0.1710  0.6222 -0.3867
   19DOPE  C315 2439   6.217   2.724   5.958  0.9282  0.5556 -0.5196
   19DOPE  H15X 2440   6.256   2.637   5.901 -2.5191 -0.6782 -1.1990
   19DOPE  H15Y 2441   6.295   2.798   5.986  2.4660 -2.1424  3.1479
   19DOPE  C316 2442   6.115   2.794   5.872 -0.4612 -0.8284  0.6068
   19DOPE  H16X 2443   6.019   2.739   5.865 -0.1488 -1.2897 -0.0564
   19DOPE  H16Y 2444   6.175   2.827   5.784  1.9233 -1.4145  1.9182
   19DOPE  C317 2445   6.087   2.933   5.939 -0.0533 -0.5463  0.3325
   19DOPE  H17X 2446   6.032   2.915   6.034  0.1710 -0.5987  0.4517
   19DOPE  H17Y 2447   6.178   2.990   5.968  0.4966 -1.3951  0.3189
   19DOPE  C318 2448   6.016   3.030   5.844  0.1461 -0.1752  0.2481
   19DOPE  H18X 2449   6.074   3.069   5.757 -1.0322  0.5835 -0.2325
   19DOPE  H18Y 2450   5.921   2.980   5.815 -0.7688 -0.1089  2.8902
   19DOPE  H18Z 2451   5.988   3.121   5.902 -2.4072  1.0939 -2.6384
   20DOPE     N 2452   5.624   6.538   7.683 -0.8590  0.2415  0.2718
   20DOPE   HN1 2453   5.537   6.514   7.734 -2.2202 -0.2814 -2.1610
   20DOPE   HN2 2454   5.613   6.497   7.588 -1.2939  1.0698 -0.0453
   20DOPE   HN3 2455   5.698   6.485   7.733 -1.2554 -0.9485 -0.3714
   20DOPE   C12 2456   5.651   6.681   7.679 -0.1939  1.2299 -0.8098
   20DOPE  H12A 2457   5.742   6.693   7.617  0.3122  0.2266 -0.2818
   20DOPE  H12B 2458   5.669   6.722   7.781 -0.6413  1.2399 -0.7333
   20DOPE   C11 2459   5.532   6.757   7.619  0.1033 -0.4531 -0.2443
   20DOPE  H11A 2460   5.567   6.862   7.619  1.1124 -0.7703  0.3628
   20DOPE  H11B 2461   5.438   6.749   7.679  1.1614 -1.6609  1.3601
   20DOPE     P 2462   5.393   6.805   7.410  0.3290  0.3243 -0.3266
   20DOPE   O13 2463   5.286   6.833   7.511  0.3435 -0.2901  0.4024
   20DOPE   O14 2464   5.347   6.745   7.281 -0.4280 -0.5703  0.0424
   20DOPE   O11 2465   5.469   6.940   7.380  0.3575  0.1424 -0.0606
   20DOPE   O12 2466   5.502   6.714   7.481 -0.1052  0.1691  0.0136
   20DOPE    C1 2467   5.604   6.934   7.341 -0.1065  0.0567  0.2806
   20DOPE    HA 2468   5.635   6.846   7.280 -0.7155 -0.8330  1.2305
   20DOPE    HB 2469   5.668   6.937   7.431 -0.4577  0.0441  0.5308
   20DOPE    C2 2470   5.631   7.048   7.242 -0.3472 -0.0690  0.9727
   20DOPE    HS 2471   5.593   7.146   7.278 -0.7252 -0.6154  2.0976
   20DOPE   O21 2472   5.575   7.025   7.110 -0.3399  0.2528  0.6556
   20DOPE   C21 2473   5.447   7.064   7.097 -0.5991 -0.1903 -0.1624
   20DOPE   O22 2474   5.386   7.137   7.181  0.2671 -0.5801  0.7203
   20DOPE   C22 2475   5.385   7.015   6.971  0.4797  0.3004 -0.3007
   20DOPE   H2R 2476   5.466   6.958   6.921  0.8298  0.3388  0.2125
   20DOPE   H2S 2477   5.345   7.101   6.913  1.2052  1.5932  1.0253
   20DOPE    C3 2478   5.780   7.076   7.221 -0.0662  0.2626  0.1393
   20DOPE    HX 2479   5.806   7.110   7.324 -1.8363  1.0622  0.3530
   20DOPE    HY 2480   5.782   7.163   7.152 -0.6998  0.3011  0.1647
   20DOPE   O31 2481   5.863   6.961   7.181  0.2502 -0.7963 -0.0652
   20DOPE   C31 2482   5.950   6.980   7.088 -0.0962 -0.3288  0.3671
   20DOPE   O32 2483   5.972   7.079   7.022  0.1291 -0.4854 -0.2566
   20DOPE   C32 2484   6.041   6.856   7.087 -0.1386 -0.6918  0.2104
   20DOPE   H2X 2485   6.113   6.871   7.003 -0.7097  0.6584 -0.0759
   20DOPE   H2Y 2486   6.095   6.870   7.183 -0.7282  1.2386  0.3091
   20DOPE   C23 2487   5.268   6.920   6.994  0.5388 -0.0448 -0.1924
   20DOPE   H3R 2488   5.185   6.959   7.057  1.2624 -0.1757  0.8664
   20DOPE   H3S 2489   5.300   6.827   7.045  0.5230  0.4205  0.6987
   20DOPE   C24 2490   5.208   6.889   6.857  1.1044  0.2512  0.6165
   20DOPE   H4R 2491   5.164   6.787   6.855  0.3649  0.5736  0.1119
   20DOPE   H4S 2492   5.296   6.895   6.788 -0.2647  0.9263 -1.1540
   20DOPE   C25 2493   5.088   6.976   6.808  0.3889 -0.0905 -0.0267
   20DOPE   H5R 2494   5.109   7.084   6.792 -2.3306  0.5752  0.4090
   20DOPE   H5S 2495   5.011   6.973   6.889  0.6866 -1.7110  0.2325
   20DOPE   C26 2496   5.032   6.918   6.676 -0.0494 -0.1116  0.9214
   20DOPE   H6R 2497   4.991   6.815   6.687 -0.3253  0.1209  2.2391
   20DOPE   H6S 2498   5.122   6.904   6.612  0.1404 -0.4233  1.2500
   20DOPE   C27 2499   4.930   7.014   6.604  0.1229  0.6108  0.1208
   20DOPE   H7R 2500   4.971   7.113   6.577 -1.2362  1.4028  0.9132
   20DOPE   H7S 2501   4.855   7.040   6.681  1.1181 -0.1597  1.3967
   20DOPE   C28 2502   4.850   6.959   6.484 -0.1916 -1.4095 -0.0133
   20DOPE   H8R 2503   4.809   7.053   6.442 -0.1538 -2.2336 -1.9858
   20DOPE   H8S 2504   4.763   6.903   6.526 -0.3392 -0.9489  0.3042
   20DOPE   C29 2505   4.932   6.887   6.389 -0.0821 -0.0560 -0.3968
   20DOPE   H9R 2506   5.038   6.915   6.393 -0.0177  0.0305 -2.1039
   20DOPE  C210 2507   4.894   6.780   6.311 -0.2093 -0.1349 -0.2337
   20DOPE  H10R 2508   4.973   6.729   6.254 -0.2455 -2.2170  1.4665
   20DOPE  C211 2509   4.769   6.700   6.306  0.8334  0.2834  0.6791
   20DOPE  H11R 2510   4.719   6.679   6.403 -0.6651 -1.3501 -0.3698
   20DOPE  H11S 2511   4.790   6.600   6.264  0.4076 -0.3594  1.9471
   20DOPE  C212 2512   4.656   6.768   6.214 -0.4130 -0.6862 -0.6861
   20DOPE  H12R 2513   4.630   6.869   6.251 -0.9227 -0.4878 -1.5481
   20DOPE  H12S 2514   4.563   6.710   6.236 -1.5286  0.3644 -2.3760
   20DOPE  C213 2515   4.687   6.768   6.070  0.6139  0.4695  0.2966
   20DOPE  H13R 2516   4.680   6.662   6.039  0.7525  1.1154 -2.1863
   20DOPE  H13S 2517   4.785   6.816   6.048  1.2195  0.4325  2.6540
   20DOPE  C214 2518   4.587   6.840   5.972 -1.1763 -0.1076 -0.0184
   20DOPE  H14R 2519   4.595   6.949   5.992  1.9851  0.3218 -2.6167
   20DOPE  H14S 2520   4.490   6.794   5.999  0.2611 -2.5595  1.3012
   20DOPE  C215 2521   4.624   6.817   5.824  0.1081 -0.3693  0.8366
   20DOPE  H15R 2522   4.556   6.868   5.753  1.5110  1.7525  0.9558
   20DOPE  H15S 2523   4.611   6.710   5.794 -0.4812  0.6372 -3.0427
   20DOPE  C216 2524   4.766   6.857   5.779  0.4693 -0.5416  0.0211
   20DOPE  H16R 2525   4.838   6.808   5.848  0.9444  0.4424  0.2388
   20DOPE  H16S 2526   4.777   6.965   5.800 -1.4511 -0.4239  0.6285
   20DOPE  C217 2527   4.808   6.843   5.632 -0.3393 -0.7489 -0.2208
   20DOPE  H17R 2528   4.721   6.879   5.573 -2.1341 -6.2693 -1.5104
   20DOPE  H17S 2529   4.816   6.739   5.594 -1.3804 -1.5238  1.5794
   20DOPE  C218 2530   4.941   6.915   5.601  0.2068  0.0829  0.1826
   20DOPE  H18R 2531   4.948   6.947   5.494 -1.7055  0.4070  0.1296
   20DOPE  H18S 2532   5.012   6.831   5.616 -1.5510 -1.5786 -0.3255
   20DOPE  H18T 2533   4.959   6.994   5.676 -0.5743  1.1682 -0.7333
   20DOPE   C33 2534   5.972   6.719   7.086 -0.2572 -0.0684 -0.0430
   20DOPE   H3X 2535   5.888   6.736   7.157 -0.0690 -0.2048  0.2166
   20DOPE   H3Y 2536   6.045   6.642   7.121 -0.5919  0.0950  1.0468
   20DOPE   C34 2537   5.923   6.681   6.948 -0.5340  0.0957 -0.2214
   20DOPE   H4X 2538   5.858   6.766   6.919 -1.1861  0.3841  1.9546
   20DOPE   H4Y 2539   6.005   6.665   6.875 -0.3568  1.6076 -0.3692
   20DOPE   C35 2540   5.838   6.556   6.949 -0.3006 -0.0054  0.6017
   20DOPE   H5X 2541   5.756   6.578   7.021  0.8618  1.5219  1.5151
   20DOPE   H5Y 2542   5.909   6.480   6.987  1.6960  1.1985 -0.5603
   20DOPE   C36 2543   5.776   6.525   6.820  0.0014  0.3097 -0.0680
   20DOPE   H6X 2544   5.710   6.436   6.824  0.2446  0.0659 -1.0461
   20DOPE   H6Y 2545   5.859   6.491   6.754 -0.0517  1.5467 -0.8049
   20DOPE   C37 2546   5.681   6.639   6.760 -0.3746  0.1949  0.1028
   20DOPE   H7X 2547   5.598   6.666   6.829  0.5807 -1.0352  1.8229
   20DOPE   H7Y 2548   5.745   6.725   6.731  2.1065 -1.4384  0.5075
   20DOPE   C38 2549   5.624   6.589   6.619  0.6215 -0.2864 -0.5279
   20DOPE   H8X 2550   5.549   6.509   6.639 -0.1731  0.6312  0.3234
   20DOPE   H8Y 2551   5.709   6.547   6.562  2.4949  2.5492 -0.0099
   20DOPE   C39 2552   5.555   6.704   6.544  0.1802 -0.0366  0.6725
   20DOPE   H9X 2553   5.455   6.730   6.581 -0.1645  2.2936 -1.5903
   20DOPE  C310 2554   5.605   6.769   6.432 -0.5741  0.0118 -0.1239
   20DOPE  H10X 2555   5.538   6.846   6.393  0.6433  0.7052 -0.9078
   20DOPE  C311 2556   5.731   6.742   6.348  0.1252  0.2027 -0.7207
   20DOPE  H11X 2557   5.780   6.839   6.324  3.0701 -1.0552 -0.2622
   20DOPE  H11Y 2558   5.802   6.681   6.408 -3.9059 -0.9654  3.4309
   20DOPE  C312 2559   5.695   6.659   6.222 -0.3836 -0.7534  0.2972
   20DOPE  H12X 2560   5.783   6.619   6.167  0.1254 -0.8083  1.1251
   20DOPE  H12Y 2561   5.636   6.716   6.147  1.1729  2.9491  1.6684
   20DOPE  C313 2562   5.608   6.534   6.249 -0.1082 -0.3756  1.1783
   20DOPE  H13X 2563   5.642   6.483   6.342  0.0458 -2.1837  0.1683
   20DOPE  H13Y 2564   5.502   6.559   6.267 -0.2076  1.3362 -1.2421
   20DOPE  C314 2565   5.612   6.452   6.118 -0.0636  1.0690  0.5408
   20DOPE  H14X 2566   5.716   6.430   6.084 -1.2817 -2.6891 -1.4269
   20DOPE  H14Y 2567   5.550   6.502   6.040 -1.6086  0.0208  1.0428
   20DOPE  C315 2568   5.546   6.313   6.139  0.4590  0.4998  0.0152
   20DOPE  H15X 2569   5.444   6.340   6.171  0.5247 -0.4103  1.0786
   20DOPE  H15Y 2570   5.581   6.267   6.234 -0.2744 -0.3750 -0.1216
   20DOPE  C316 2571   5.564   6.226   6.018 -0.0856 -0.0989 -1.4579
   20DOPE  H16X 2572   5.609   6.280   5.931 -1.7023  1.7529 -1.2068
   20DOPE  H16Y 2573   5.465   6.189   5.984 -1.4330  1.4581  0.5746
   20DOPE  C317 2574   5.651   6.100   6.052 -0.1315  0.8583 -0.5239
   20DOPE  H17X 2575   5.748   6.133   6.094 -0.0821 -0.9590  0.9515
   20DOPE  H17Y 2576   5.590   6.042   6.126  0.5906  2.3212  1.3140
   20DOPE  C318 2577   5.668   6.018   5.925  0.2104  0.6804  0.1471
   20DOPE  H18X 2578   5.716   5.920   5.948  1.8329  1.1300 -1.1413
   20DOPE  H18Y 2579   5.573   6.014   5.868  0.4031  1.0089 -0.2035
   20DOPE  H18Z 2580   5.732   6.072   5.853 -0.5059  1.1847 -0.1203
   21DOPE     N 2581   2.070   7.288   6.747 -0.5040 -0.1290 -0.2883
   21DOPE   HN1 2582   2.039   7.379   6.706 -1.8790 -0.0293  0.8999
   21DOPE   HN2 2583   1.994   7.218   6.753  1.1156 -1.8688  1.4539
   21DOPE   HN3 2584   2.097   7.304   6.847 -0.8774 -1.1155 -0.0208
   21DOPE   C12 2585   2.186   7.234   6.673  0.5447 -0.4875  0.3153
   21DOPE  H12A 2586   2.142   7.195   6.579  2.1594  0.9786 -1.1172
   21DOPE  H12B 2587   2.218   7.149   6.736 -0.2387 -0.7272  0.4041
   21DOPE   C11 2588   2.297   7.338   6.655 -0.4078 -0.0322 -0.2661
   21DOPE  H11A 2589   2.250   7.425   6.605 -0.4483  0.3960  0.4896
   21DOPE  H11B 2590   2.376   7.295   6.589 -0.1591  1.5204 -1.0162
   21DOPE     P 2591   2.491   7.326   6.839  0.3499 -0.2639 -0.1563
   21DOPE   O13 2592   2.498   7.181   6.805 -0.0243 -0.3164 -0.7367
   21DOPE   O14 2593   2.507   7.365   6.977 -0.5693 -0.2012  0.1720
   21DOPE   O11 2594   2.596   7.403   6.755 -0.2673  0.0682 -0.0243
   21DOPE   O12 2595   2.353   7.380   6.783  0.0532 -0.1322  0.1082
   21DOPE    C1 2596   2.617   7.536   6.748  0.3483 -0.2088 -0.4301
   21DOPE    HA 2597   2.724   7.563   6.741 -0.2624  3.2632  1.2017
   21DOPE    HB 2598   2.585   7.578   6.847  2.0926 -2.0497  0.9950
   21DOPE    C2 2599   2.544   7.610   6.628  0.3870  0.2981 -1.0015
   21DOPE    HS 2600   2.437   7.584   6.645 -0.2885  3.5814  0.5469
   21DOPE   O21 2601   2.594   7.556   6.508  0.3462 -0.2369  0.1710
   21DOPE   C21 2602   2.512   7.562   6.401 -0.3009  0.4248 -0.1465
   21DOPE   O22 2603   2.408   7.624   6.392  0.0914  0.2711 -0.3375
   21DOPE   C22 2604   2.580   7.490   6.284 -0.2459 -0.5734  0.0421
   21DOPE   H2R 2605   2.496   7.448   6.225  0.8027 -0.5147 -1.5777
   21DOPE   H2S 2606   2.646   7.409   6.322  0.8070 -1.2055 -2.8079
   21DOPE    C3 2607   2.554   7.766   6.626  0.6793  0.5467 -0.0364
   21DOPE    HX 2608   2.495   7.793   6.716  0.0366 -1.2678  0.1349
   21DOPE    HY 2609   2.499   7.817   6.543  0.3889 -1.0831 -0.8826
   21DOPE   O31 2610   2.688   7.811   6.637 -0.1846  0.1369 -0.3713
   21DOPE   C31 2611   2.751   7.855   6.530 -0.0567  0.2298  0.3668
   21DOPE   O32 2612   2.713   7.838   6.419 -0.7218 -0.4509  0.2105
   21DOPE   C32 2613   2.885   7.925   6.578  0.0080 -0.1275  0.1633
   21DOPE   H2X 2614   2.884   8.032   6.549  4.8904 -0.1223 -0.7287
   21DOPE   H2Y 2615   2.886   7.930   6.689 -1.1118  0.0333  0.1766
   21DOPE   C23 2616   2.680   7.587   6.212  0.8215  0.2772  0.0685
   21DOPE   H3R 2617   2.783   7.574   6.250  1.3259 -0.0977 -1.3492
   21DOPE   H3S 2618   2.653   7.694   6.228 -1.6060  0.2797 -2.9867
   21DOPE   C24 2619   2.681   7.572   6.060  0.2259  0.8167  0.8057
   21DOPE   H4R 2620   2.687   7.464   6.035  2.4857  1.3359 -1.2138
   21DOPE   H4S 2621   2.762   7.629   6.011 -0.1468 -1.1023 -2.2956
   21DOPE   C25 2622   2.557   7.633   5.990 -0.3676  0.2700 -0.5128
   21DOPE   H5R 2623   2.532   7.736   6.023 -0.8610  0.1688 -0.5658
   21DOPE   H5S 2624   2.469   7.582   6.033 -0.2849  1.6940  1.4598
   21DOPE   C26 2625   2.563   7.611   5.835  0.5773  0.2201  0.4932
   21DOPE   H6R 2626   2.550   7.503   5.810  0.2960  0.8372 -2.3028
   21DOPE   H6S 2627   2.663   7.639   5.798 -0.3308  0.6492 -1.7618
   21DOPE   C27 2628   2.448   7.688   5.772 -0.7492  0.4295 -0.6256
   21DOPE   H7R 2629   2.425   7.788   5.814  0.3538  0.6283 -0.4533
   21DOPE   H7S 2630   2.360   7.622   5.790  0.9543 -1.6647  0.4593
   21DOPE   C28 2631   2.471   7.685   5.618 -0.0130 -0.0458 -0.1485
   21DOPE   H8R 2632   2.460   7.579   5.587 -0.6737 -0.1518  0.4306
   21DOPE   H8S 2633   2.575   7.719   5.600 -0.5508  1.3009 -0.8628
   21DOPE   C29 2634   2.379   7.771   5.542 -0.4635  0.2793  0.2927
   21DOPE   H9R 2635   2.277   7.730   5.550  0.2090 -1.1670  2.3036
   21DOPE  C210 2636   2.407   7.887   5.484  0.8445  0.2595 -0.4192
   21DOPE  H10R 2637   2.328   7.939   5.429  1.2627  1.0495 -0.2798
   21DOPE  C211 2638   2.534   7.963   5.461 -0.2359  0.5233 -0.3629
   21DOPE  H11R 2639   2.616   7.910   5.514 -2.6229 -2.7942  0.2961
   21DOPE  H11S 2640   2.525   8.069   5.494 -2.5719  0.1073  0.5193
   21DOPE  C212 2641   2.578   7.951   5.322  0.1456  0.3823  0.9086
   21DOPE  H12R 2642   2.513   8.009   5.253  0.6652 -0.7052 -0.5334
   21DOPE  H12S 2643   2.582   7.848   5.279  2.4325  0.3193  1.1643
   21DOPE  C213 2644   2.725   7.999   5.314  0.1223 -0.1346 -0.3728
   21DOPE  H13R 2645   2.798   7.937   5.369  0.9563  1.4179  0.3237
   21DOPE  H13S 2646   2.726   8.104   5.350  0.6155 -0.0230 -0.7000
   21DOPE  C214 2647   2.772   8.005   5.163 -0.3049  0.1889 -0.5226
   21DOPE  H14R 2648   2.732   8.088   5.101 -1.1109 -0.4369 -0.8613
   21DOPE  H14S 2649   2.731   7.910   5.121  1.1514 -1.2577  1.1314
   21DOPE  C215 2650   2.926   8.008   5.149  0.5250  0.8447 -0.1672
   21DOPE  H15R 2651   2.955   8.019   5.043  0.4725  1.1751 -0.1463
   21DOPE  H15S 2652   2.969   7.912   5.186  0.7260  1.1201  0.3356
   21DOPE  C216 2653   2.990   8.121   5.223  0.1395  0.3176 -1.0399
   21DOPE  H16R 2654   2.987   8.094   5.330 -1.6618  2.1534 -0.5640
   21DOPE  H16S 2655   2.945   8.218   5.194 -1.5642 -0.4056 -0.9092
   21DOPE  C217 2656   3.139   8.124   5.187  0.3152 -0.5192  0.4145
   21DOPE  H17R 2657   3.139   8.153   5.079 -1.0184 -0.8621  0.2975
   21DOPE  H17S 2658   3.186   8.024   5.192  0.2332 -0.8109 -2.7287
   21DOPE  C218 2659   3.216   8.229   5.259  0.0049 -0.0898 -0.3663
   21DOPE  H18R 2660   3.197   8.333   5.225  1.4527  0.4825  0.4532
   21DOPE  H18S 2661   3.325   8.208   5.256  0.4779  2.0288  0.0333
   21DOPE  H18T 2662   3.193   8.229   5.368  3.5250  0.6150  0.4906
   21DOPE   C33 2663   3.008   7.850   6.527  0.0568 -0.3567 -0.7614
   21DOPE   H3X 2664   2.989   7.740   6.530 -2.8460  0.0281 -1.8256
   21DOPE   H3Y 2665   3.090   7.880   6.595 -1.1237 -1.0705  1.0880
   21DOPE   C34 2666   3.039   7.895   6.388  0.3656  0.5994 -0.0202
   21DOPE   H4X 2667   2.956   7.862   6.321  1.4507 -1.6737 -0.3201
   21DOPE   H4Y 2668   3.043   8.005   6.376  0.1029  0.5637 -0.4886
   21DOPE   C35 2669   3.159   7.819   6.326 -0.2582 -0.1140 -0.6514
   21DOPE   H5X 2670   3.152   7.708   6.329 -0.3499 -0.1011  2.7950
   21DOPE   H5Y 2671   3.251   7.845   6.383 -0.0366 -0.7159 -0.7251
   21DOPE   C36 2672   3.193   7.862   6.180 -0.4284 -0.7648 -0.1482
   21DOPE   H6X 2673   3.112   7.849   6.105 -0.4919  0.3850 -0.2870
   21DOPE   H6Y 2674   3.276   7.798   6.144 -0.6303 -0.7498 -0.6589
   21DOPE   C37 2675   3.253   8.004   6.166  0.2577 -0.0208 -0.1021
   21DOPE   H7X 2676   3.178   8.085   6.175 -0.1638 -0.3919 -0.2603
   21DOPE   H7Y 2677   3.328   8.016   6.247 -1.3730 -0.0192  1.4590
   21DOPE   C38 2678   3.301   8.022   6.012  0.0143  0.1752 -0.3038
   21DOPE   H8X 2679   3.213   8.030   5.943 -0.5585  0.4622  0.4471
   21DOPE   H8Y 2680   3.342   7.925   5.976  1.7228  1.6705 -2.7836
   21DOPE   C39 2681   3.404   8.129   6.009 -0.0180 -0.1410 -0.9482
   21DOPE   H9X 2682   3.481   8.125   6.087  1.2955 -1.2900 -2.2605
   21DOPE  C310 2683   3.411   8.232   5.916  0.2597 -0.3966  0.0939
   21DOPE  H10X 2684   3.505   8.288   5.911  0.7496 -0.9080  2.1840
   21DOPE  C311 2685   3.302   8.278   5.819  0.1836 -0.2697  0.0236
   21DOPE  H11X 2686   3.208   8.224   5.842  1.6504 -2.7837  0.5744
   21DOPE  H11Y 2687   3.280   8.386   5.826  1.9620  0.0746  0.9476
   21DOPE  C312 2688   3.341   8.237   5.676 -0.4748  0.3630 -0.3541
   21DOPE  H12X 2689   3.253   8.256   5.610 -1.9472 -0.3669  1.3110
   21DOPE  H12Y 2690   3.371   8.130   5.679  1.3493  0.7869 -1.7544
   21DOPE  C313 2691   3.462   8.323   5.626 -0.5201  0.5885  0.1633
   21DOPE  H13X 2692   3.443   8.429   5.653 -0.6987  0.6668 -0.2536
   21DOPE  H13Y 2693   3.548   8.283   5.683 -0.1393  0.5732 -0.4126
   21DOPE  C314 2694   3.500   8.314   5.474 -0.3105  0.4573 -0.3313
   21DOPE  H14X 2695   3.421   8.359   5.410 -0.0401  0.4756 -0.6558
   21DOPE  H14Y 2696   3.512   8.209   5.439 -0.1784  0.2018  0.4628
   21DOPE  C315 2697   3.624   8.393   5.437 -0.3854 -0.7941  0.2990
   21DOPE  H15X 2698   3.704   8.377   5.512  2.4374  0.3211 -2.2474
   21DOPE  H15Y 2699   3.592   8.499   5.448 -2.5740 -1.5646  2.2011
   21DOPE  C316 2700   3.667   8.363   5.291 -0.4728  0.1455 -0.0649
   21DOPE  H16X 2701   3.585   8.401   5.227 -0.7273  0.7953  0.6311
   21DOPE  H16Y 2702   3.676   8.256   5.261  1.2544  0.3594 -0.3787
   21DOPE  C317 2703   3.801   8.421   5.240 -0.2739  0.3147 -0.2523
   21DOPE  H17X 2704   3.822   8.523   5.277  2.6140 -0.3909  0.2320
   21DOPE  H17Y 2705   3.878   8.351   5.279 -2.1446 -1.7471 -0.0145
   21DOPE  C318 2706   3.799   8.410   5.091  0.2597  0.0534 -0.2079
   21DOPE  H18X 2707   3.788   8.305   5.057 -1.3978 -0.6609  2.3026
   21DOPE  H18Y 2708   3.709   8.467   5.059 -0.7752 -0.6980  1.2498
   21DOPE  H18Z 2709   3.895   8.445   5.048  0.8440 -2.0931 -0.7647
   22DOPE     N 2710   6.719   3.695   7.920  0.1578  0.5445  0.2289
   22DOPE   HN1 2711   6.672   3.607   7.950  0.3767 -0.0699 -1.1761
   22DOPE   HN2 2712   6.697   3.769   7.990 -2.2060 -1.6796  2.0469
   22DOPE   HN3 2713   6.670   3.728   7.835  0.8014 -0.8538 -0.7184
   22DOPE   C12 2714   6.862   3.667   7.895 -0.2032 -0.0765 -0.6141
   22DOPE  H12A 2715   6.899   3.623   7.990 -0.6604 -2.4755 -1.4900
   22DOPE  H12B 2716   6.917   3.762   7.875 -1.6618  0.8382 -0.4280
   22DOPE   C11 2717   6.876   3.566   7.779  0.5099  0.1147 -0.1816
   22DOPE  H11A 2718   6.983   3.537   7.775  0.5234  0.1452 -0.0642
   22DOPE  H11B 2719   6.856   3.621   7.685  2.3121  0.9655 -0.1013
   22DOPE     P 2720   6.838   3.310   7.801  0.0112 -0.1858 -0.1986
   22DOPE   O13 2721   6.742   3.230   7.879  0.0508  0.1523 -0.8526
   22DOPE   O14 2722   6.979   3.306   7.848  0.0523  0.1015 -0.4874
   22DOPE   O11 2723   6.834   3.270   7.649  0.1941  0.9741  0.1775
   22DOPE   O12 2724   6.785   3.455   7.799 -0.6022  0.2766  0.2676
   22DOPE    C1 2725   6.726   3.309   7.563  0.3079  0.2388  0.3003
   22DOPE    HA 2726   6.661   3.385   7.612 -1.1695 -0.9777  0.2632
   22DOPE    HB 2727   6.657   3.225   7.541 -2.8192  2.8539 -0.7319
   22DOPE    C2 2728   6.786   3.367   7.427  1.0760  0.4031 -0.5117
   22DOPE    HS 2729   6.851   3.285   7.390  2.7707  1.8528 -0.8676
   22DOPE   O21 2730   6.858   3.488   7.458 -0.0624 -0.4406 -0.2038
   22DOPE   C21 2731   6.976   3.504   7.391  0.1680  0.1679 -0.3406
   22DOPE   O22 2732   7.015   3.439   7.295 -0.3797 -0.2846  0.4489
   22DOPE   C22 2733   7.057   3.615   7.450  0.3758 -0.2219 -0.0400
   22DOPE   H2R 2734   7.115   3.570   7.533 -0.2268  0.1463  0.5931
   22DOPE   H2S 2735   6.990   3.692   7.493  0.8143 -0.7550  1.6683
   22DOPE    C3 2736   6.673   3.389   7.323  0.3676  0.4464  0.0168
   22DOPE    HX 2737   6.608   3.464   7.373 -1.5035 -0.3597 -1.1054
   22DOPE    HY 2738   6.615   3.298   7.299 -1.0120  0.9401  1.3192
   22DOPE   O31 2739   6.719   3.451   7.209  0.0639 -0.2880  0.1475
   22DOPE   C31 2740   6.756   3.379   7.100  0.4368 -0.2054 -0.1303
   22DOPE   O32 2741   6.742   3.259   7.091 -0.0881 -0.0260 -0.2571
   22DOPE   C32 2742   6.813   3.458   6.989  0.6462 -0.5276 -0.4542
   22DOPE   H2X 2743   6.908   3.505   7.023  0.4395 -0.1805 -0.3437
   22DOPE   H2Y 2744   6.831   3.388   6.905  2.5976  0.8505 -1.2653
   22DOPE   C23 2745   7.151   3.688   7.349 -0.1183 -0.8437 -1.1848
   22DOPE   H3R 2746   7.243   3.627   7.331 -0.2178 -1.0001 -1.1654
   22DOPE   H3S 2747   7.197   3.772   7.406  0.5074 -2.0765  0.2012
   22DOPE   C24 2748   7.098   3.731   7.215 -0.7650 -0.7353 -0.1591
   22DOPE   H4R 2749   7.025   3.814   7.228 -0.5711 -0.7027  0.7768
   22DOPE   H4S 2750   7.045   3.650   7.160 -2.5002 -0.1465  0.5767
   22DOPE   C25 2751   7.211   3.785   7.124 -0.4312  0.2426  0.3601
   22DOPE   H5R 2752   7.303   3.724   7.138 -0.3986  0.1857 -0.1113
   22DOPE   H5S 2753   7.242   3.881   7.170  0.5176  0.2359 -0.2423
   22DOPE   C26 2754   7.183   3.803   6.977  0.8237 -0.1115  0.6929
   22DOPE   H6R 2755   7.260   3.863   6.924 -0.4950  0.9239 -0.1204
   22DOPE   H6S 2756   7.094   3.867   6.964  1.5420  0.7639 -0.0447
   22DOPE   C27 2757   7.166   3.667   6.903 -0.5235  0.5490 -0.2760
   22DOPE   H7R 2758   7.087   3.600   6.943  0.1334  0.0130  0.1438
   22DOPE   H7S 2759   7.258   3.611   6.928 -2.3904 -2.5319  0.2161
   22DOPE   C28 2760   7.150   3.681   6.752 -0.9427 -0.5398  0.4664
   22DOPE   H8R 2761   7.143   3.582   6.702  1.8223 -0.8702  0.6097
   22DOPE   H8S 2762   7.254   3.707   6.721  0.0759 -2.4491  2.1021
   22DOPE   C29 2763   7.042   3.766   6.690 -0.1563 -0.2790 -0.7788
   22DOPE   H9R 2764   7.034   3.863   6.742 -3.1348 -0.8377  0.0054
   22DOPE  C210 2765   6.955   3.732   6.592 -0.2145 -0.5608  0.0195
   22DOPE  H10R 2766   6.883   3.807   6.557  2.5147  3.3415  1.9462
   22DOPE  C211 2767   6.947   3.603   6.513  0.3200 -0.2489 -0.1247
   22DOPE  H11R 2768   6.856   3.549   6.545  0.5544 -1.7754 -1.8699
   22DOPE  H11S 2769   7.024   3.526   6.538 -0.4992 -1.2410 -0.5801
   22DOPE  C212 2770   6.960   3.637   6.363  0.5703  0.8772  0.3971
   22DOPE  H12R 2771   6.868   3.693   6.334 -1.0142 -1.2077  1.1351
   22DOPE  H12S 2772   6.960   3.552   6.292  2.7855  0.1753  1.1475
   22DOPE  C213 2773   7.087   3.703   6.314  0.0297 -0.6884  0.2836
   22DOPE  H13R 2774   7.166   3.627   6.334  0.5240 -0.3877 -0.4677
   22DOPE  H13S 2775   7.112   3.801   6.359 -1.0499 -0.1683 -0.2117
   22DOPE  C214 2776   7.078   3.729   6.163  0.3033 -0.4924 -0.1081
   22DOPE  H14R 2777   6.997   3.805   6.155  2.3358  1.7758 -0.5983
   22DOPE  H14S 2778   7.046   3.642   6.102  0.0067  0.0093 -0.6793
   22DOPE  C215 2779   7.212   3.773   6.110  0.1845 -0.7988  0.0054
   22DOPE  H15R 2780   7.280   3.803   6.194 -1.1165 -0.1599  0.8638
   22DOPE  H15S 2781   7.203   3.856   6.037 -2.3466 -2.6966 -1.9977
   22DOPE  C216 2782   7.285   3.658   6.039  0.4669 -0.3100 -0.7901
   22DOPE  H16R 2783   7.272   3.663   5.929  0.0945  0.2308 -0.7279
   22DOPE  H16S 2784   7.240   3.563   6.075  2.0142 -1.0781 -0.7974
   22DOPE  C217 2785   7.436   3.648   6.070 -0.6283 -0.5949  0.3098
   22DOPE  H17R 2786   7.475   3.547   6.045 -1.1829 -0.6248 -0.4719
   22DOPE  H17S 2787   7.448   3.670   6.178 -0.7885 -2.0578  0.6452
   22DOPE  C218 2788   7.512   3.736   5.972 -0.2553 -0.4604 -0.1154
   22DOPE  H18R 2789   7.499   3.699   5.868 -2.8026 -0.4583  0.1385
   22DOPE  H18S 2790   7.622   3.733   5.989  0.1744 -1.0938 -2.6429
   22DOPE  H18T 2791   7.483   3.843   5.987  0.1500 -0.1162 -1.6315
   22DOPE   C33 2792   6.717   3.565   6.939 -0.3756  0.5754 -0.0638
   22DOPE   H3X 2793   6.773   3.626   6.866 -1.4538  0.7947 -0.7267
   22DOPE   H3Y 2794   6.661   3.634   7.006 -1.7558 -0.6903  0.1532
   22DOPE   C34 2795   6.599   3.500   6.854 -0.3261  0.1330  0.6414
   22DOPE   H4X 2796   6.639   3.443   6.767 -0.2217 -0.4351  1.0511
   22DOPE   H4Y 2797   6.537   3.432   6.916 -0.7862 -0.3510 -0.3284
   22DOPE   C35 2798   6.512   3.604   6.786  0.1824 -0.1100  0.3685
   22DOPE   H5X 2799   6.501   3.696   6.847  1.3542  1.7716 -2.0934
   22DOPE   H5Y 2800   6.411   3.563   6.765  1.0218 -1.2296 -1.7751
   22DOPE   C36 2801   6.569   3.658   6.649 -0.1861  0.2362  0.0339
   22DOPE   H6X 2802   6.591   3.585   6.568 -0.5086  0.9267 -0.6862
   22DOPE   H6Y 2803   6.663   3.709   6.680  0.5793 -1.1043  0.0391
   22DOPE   C37 2804   6.465   3.758   6.590 -0.2322 -0.7371  1.0633
   22DOPE   H7X 2805   6.376   3.719   6.536 -0.3856  1.8786 -0.7220
   22DOPE   H7Y 2806   6.435   3.833   6.666  1.1132 -0.7216  1.5986
   22DOPE   C38 2807   6.542   3.848   6.487  0.2507 -0.7887 -0.0253
   22DOPE   H8X 2808   6.564   3.785   6.399 -0.9038 -0.0102 -0.8938
   22DOPE   H8Y 2809   6.637   3.894   6.521 -0.2688  1.7036 -1.7088
   22DOPE   C39 2810   6.456   3.960   6.435 -0.2818  0.4754 -0.8055
   22DOPE   H9X 2811   6.409   3.935   6.339 -1.0061 -2.0991  0.1413
   22DOPE  C310 2812   6.414   4.064   6.506 -0.0556 -0.0214 -0.3677
   22DOPE  H10X 2813   6.357   4.145   6.459 -1.4380 -1.4634 -1.2977
   22DOPE  C311 2814   6.450   4.109   6.649 -0.6299  0.1168 -0.0854
   22DOPE  H11X 2815   6.358   4.132   6.707  0.5393 -0.3871  2.0710
   22DOPE  H11Y 2816   6.508   4.030   6.700 -1.0377  0.4986  0.9819
   22DOPE  C312 2817   6.540   4.237   6.648 -0.1335  0.3591  0.1384
   22DOPE  H12X 2818   6.638   4.204   6.605  0.1958  1.8342 -0.2974
   22DOPE  H12Y 2819   6.559   4.262   6.754  0.0717 -2.2707  0.8033
   22DOPE  C313 2820   6.491   4.354   6.564 -0.4966  0.4054 -0.4082
   22DOPE  H13X 2821   6.475   4.333   6.456  2.4722  1.4298 -1.1350
   22DOPE  H13Y 2822   6.400   4.397   6.610  0.3866  1.1773  0.6580
   22DOPE  C314 2823   6.602   4.463   6.568 -0.3041 -0.4400  0.1383
   22DOPE  H14X 2824   6.576   4.552   6.508  0.4130  0.8069  1.6256
   22DOPE  H14Y 2825   6.690   4.414   6.520 -0.3738 -1.2797  0.8394
   22DOPE  C315 2826   6.638   4.511   6.711  0.1820  0.0487  0.5318
   22DOPE  H15X 2827   6.704   4.600   6.702  0.3350 -0.0114  1.0282
   22DOPE  H15Y 2828   6.694   4.432   6.766 -0.7832 -1.9243 -1.1803
   22DOPE  C316 2829   6.516   4.562   6.791  0.5853 -1.0906  0.1249
   22DOPE  H16X 2830   6.551   4.600   6.890 -0.2465 -2.4305  0.9649
   22DOPE  H16Y 2831   6.447   4.479   6.818 -0.2536 -0.1892  0.8369
   22DOPE  C317 2832   6.445   4.678   6.723 -0.1815 -0.0770 -0.8540
   22DOPE  H17X 2833   6.521   4.756   6.699  0.0249  0.6675  1.8466
   22DOPE  H17Y 2834   6.410   4.644   6.624 -0.0289  1.6490 -1.5450
   22DOPE  C318 2835   6.329   4.746   6.804 -0.1381 -0.1905  0.0160
   22DOPE  H18X 2836   6.359   4.773   6.908 -0.2010 -1.4947  0.3861
   22DOPE  H18Y 2837   6.292   4.835   6.749  0.8456  0.2850  0.0996
   22DOPE  H18Z 2838   6.249   4.670   6.808 -0.9420  0.6671  0.4532
   23DOPE     N 2839   4.998   6.816   7.483  0.2750 -0.7092  0.3021
   23DOPE   HN1 2840   4.996   6.713   7.466  0.5264 -0.5157 -0.9989
   23DOPE   HN2 2841   5.072   6.831   7.553  1.3658  0.4822 -1.0377
   23DOPE   HN3 2842   4.908   6.847   7.525 -1.2232 -0.2947 -2.8805
   23DOPE   C12 2843   5.039   6.898   7.359 -0.7437 -0.1912 -0.6586
   23DOPE  H12A 2844   4.959   6.887   7.283 -0.2497  0.3441 -1.2607
   23DOPE  H12B 2845   5.134   6.849   7.327 -0.4830 -0.9828  1.2012
   23DOPE   C11 2846   5.073   7.046   7.385  0.2843 -0.2582  0.4650
   23DOPE  H11A 2847   5.138   7.084   7.304  0.7586  1.4153  1.5727
   23DOPE  H11B 2848   5.123   7.048   7.484  0.6703 -0.9476  0.2946
   23DOPE     P 2849   4.921   7.274   7.367 -0.1754  0.2590  0.1590
   23DOPE   O13 2850   5.041   7.344   7.412 -0.5248 -0.2064  0.0339
   23DOPE   O14 2851   4.786   7.316   7.417 -0.4528 -0.0189  0.1493
   23DOPE   O11 2852   4.922   7.272   7.207 -0.2139  0.1224 -0.7535
   23DOPE   O12 2853   4.947   7.122   7.387  0.2848  0.3583 -0.0032
   23DOPE    C1 2854   5.049   7.261   7.135 -0.6679 -0.9499  0.1631
   23DOPE    HA 2855   5.063   7.157   7.101 -1.1720 -0.7560 -0.6650
   23DOPE    HB 2856   5.135   7.284   7.202 -0.9037  0.0974  0.1286
   23DOPE    C2 2857   5.045   7.351   7.008  0.7810  0.7858 -0.5302
   23DOPE    HS 2858   5.028   7.455   7.043 -0.7258 -0.2215  1.9804
   23DOPE   O21 2859   4.934   7.301   6.926  0.2498 -0.1004 -0.5038
   23DOPE   C21 2860   4.861   7.401   6.876 -0.1011  0.2206  0.2536
   23DOPE   O22 2861   4.871   7.519   6.903  0.5599  0.5140 -0.5083
   23DOPE   C22 2862   4.775   7.349   6.754 -0.7429 -0.4530 -0.5290
   23DOPE   H2R 2863   4.670   7.374   6.781 -0.3298 -1.0032  1.7249
   23DOPE   H2S 2864   4.783   7.239   6.741 -1.6364 -0.6875  0.7403
   23DOPE    C3 2865   5.179   7.351   6.936 -0.1317  0.0235  0.5977
   23DOPE    HX 2866   5.199   7.248   6.900  2.2539 -0.1983  2.2882
   23DOPE    HY 2867   5.260   7.382   7.007 -1.7472 -0.4707  2.7752
   23DOPE   O31 2868   5.160   7.437   6.820  0.0770  0.0876  0.8858
   23DOPE   C31 2869   5.176   7.564   6.838 -0.2228 -0.0206 -1.0905
   23DOPE   O32 2870   5.217   7.619   6.941  0.2830  0.4007 -0.1672
   23DOPE   C32 2871   5.143   7.627   6.708 -0.2704  0.7903  0.1737
   23DOPE   H2X 2872   5.198   7.577   6.625 -3.4405 -0.7652 -1.1732
   23DOPE   H2Y 2873   5.034   7.614   6.693 -0.2679  1.3153 -0.3298
   23DOPE   C23 2874   4.810   7.402   6.615  0.0177  0.0843  0.3370
   23DOPE   H3R 2875   4.914   7.384   6.578 -0.0654  0.7091 -0.2202
   23DOPE   H3S 2876   4.785   7.510   6.616 -0.5549 -0.0515  0.6158
   23DOPE   C24 2877   4.711   7.335   6.522 -0.6224 -0.2234 -0.3854
   23DOPE   H4R 2878   4.610   7.333   6.567 -1.8448 -0.8279 -2.9966
   23DOPE   H4S 2879   4.755   7.233   6.517  0.6987  0.1754  1.8462
   23DOPE   C25 2880   4.705   7.403   6.386 -0.3625  0.1174 -0.3727
   23DOPE   H5R 2881   4.810   7.429   6.364  0.0290  0.6050  1.7819
   23DOPE   H5S 2882   4.645   7.496   6.390 -2.6635 -1.1163 -2.7305
   23DOPE   C26 2883   4.654   7.312   6.267 -0.5875 -0.1972  0.8298
   23DOPE   H6R 2884   4.546   7.296   6.285 -0.7421  1.1654  1.2643
   23DOPE   H6S 2885   4.702   7.211   6.268 -3.1910 -1.5392 -0.9531
   23DOPE   C27 2886   4.684   7.378   6.127 -0.5030  0.0181 -0.0862
   23DOPE   H7R 2887   4.792   7.402   6.116 -1.2603  3.3007 -1.5204
   23DOPE   H7S 2888   4.617   7.467   6.132 -0.0503  0.3184  0.8003
   23DOPE   C28 2889   4.652   7.278   6.011  0.0217  0.3337  0.2621
   23DOPE   H8R 2890   4.686   7.173   6.025 -1.2862 -0.2125 -0.4520
   23DOPE   H8S 2891   4.701   7.317   5.920  0.2905 -0.0890  0.2274
   23DOPE   C29 2892   4.499   7.287   5.986  0.9298  0.1318 -0.3752
   23DOPE   H9R 2893   4.434   7.227   6.051  1.1291  0.9941  0.6412
   23DOPE  C210 2894   4.434   7.354   5.888  0.3642  0.2695  0.2910
   23DOPE  H10R 2895   4.325   7.339   5.885  0.0418  2.4651 -0.2729
   23DOPE  C211 2896   4.487   7.441   5.778 -0.7484  0.6098  0.0853
   23DOPE  H11R 2897   4.576   7.500   5.812 -1.2904  0.1121  2.5353
   23DOPE  H11S 2898   4.407   7.516   5.763 -0.4982  0.8174 -0.2209
   23DOPE  C212 2899   4.524   7.385   5.646 -0.7124  0.0626 -0.2769
   23DOPE  H12R 2900   4.586   7.297   5.675 -0.1808  1.1291  2.1069
   23DOPE  H12S 2901   4.592   7.439   5.577 -1.9319  1.8318 -0.1693
   23DOPE  C213 2902   4.403   7.346   5.561  0.3104  0.1217  0.2592
   23DOPE  H13R 2903   4.357   7.447   5.554 -0.6524 -0.2654  0.7058
   23DOPE  H13S 2904   4.342   7.273   5.619 -0.2250 -0.6695 -1.2684
   23DOPE  C214 2905   4.426   7.284   5.423 -0.5980 -0.5538 -0.3686
   23DOPE  H14R 2906   4.475   7.360   5.358 -3.0730  0.6713 -0.9267
   23DOPE  H14S 2907   4.326   7.271   5.377 -0.2114 -2.5684 -0.7100
   23DOPE  C215 2908   4.491   7.142   5.427  0.2933  0.6204 -0.0994
   23DOPE  H15R 2909   4.416   7.062   5.440 -0.8298  1.2699 -2.0998
   23DOPE  H15S 2910   4.566   7.137   5.509  2.2574  0.2736 -1.8371
   23DOPE  C216 2911   4.555   7.090   5.293  0.1406  0.4374 -0.1218
   23DOPE  H16R 2912   4.474   7.105   5.219 -1.0098 -1.3685  0.6762
   23DOPE  H16S 2913   4.588   6.986   5.313 -1.3665  0.0850  0.7226
   23DOPE  C217 2914   4.680   7.167   5.253 -0.5758  0.1221  0.2237
   23DOPE  H17R 2915   4.751   7.155   5.337 -2.5732 -2.3937  1.7154
   23DOPE  H17S 2916   4.648   7.272   5.242  0.0703  0.3370  0.3618
   23DOPE  C218 2917   4.733   7.127   5.113  0.3891  0.5908  0.3954
   23DOPE  H18R 2918   4.749   7.018   5.104  2.2857  0.8923 -0.6570
   23DOPE  H18S 2919   4.828   7.182   5.095 -0.1712  2.1200  1.7775
   23DOPE  H18T 2920   4.659   7.154   5.035 -1.8274 -1.2375  1.7585
   23DOPE   C33 2921   5.175   7.778   6.700 -0.6455 -0.2569  0.3940
   23DOPE   H3X 2922   5.282   7.806   6.708 -0.5313  1.3409 -3.9053
   23DOPE   H3Y 2923   5.136   7.847   6.778  2.6842  2.8795 -0.4237
   23DOPE   C34 2924   5.137   7.833   6.561 -0.0043  0.1947  0.4530
   23DOPE   H4X 2925   5.179   7.772   6.478 -1.2647 -0.5404  0.3379
   23DOPE   H4Y 2926   5.026   7.824   6.564  0.0975 -1.1526  0.4825
   23DOPE   C35 2927   5.173   7.979   6.529  0.5281 -0.0343 -0.0395
   23DOPE   H5X 2928   5.234   8.016   6.615  0.1015 -1.4184  0.8933
   23DOPE   H5Y 2929   5.085   8.043   6.508 -1.2712 -2.5205 -0.4951
   23DOPE   C36 2930   5.283   7.986   6.422 -0.4730  0.3988  0.3677
   23DOPE   H6X 2931   5.356   7.904   6.440  0.0371  0.4461 -1.3082
   23DOPE   H6Y 2932   5.326   8.088   6.432  1.2475 -0.3022  0.4991
   23DOPE   C37 2933   5.226   7.979   6.276 -0.5434 -0.1520 -0.0797
   23DOPE   H7X 2934   5.170   7.884   6.267 -0.1819 -0.2556 -1.3474
   23DOPE   H7Y 2935   5.150   8.061   6.278 -0.4401 -0.0478  2.0133
   23DOPE   C38 2936   5.328   7.994   6.161 -0.3039 -0.3517  0.8431
   23DOPE   H8X 2937   5.411   7.924   6.185  1.1511 -0.3288 -3.3216
   23DOPE   H8Y 2938   5.345   8.103   6.175 -0.3838 -0.5504  2.6971
   23DOPE   C39 2939   5.256   7.955   6.033 -1.0342 -0.5325 -0.1096
   23DOPE   H9X 2940   5.253   7.848   6.008 -1.0753 -0.0573 -2.3288
   23DOPE  C310 2941   5.171   8.034   5.959 -0.4345  0.1855 -0.3629
   23DOPE  H10X 2942   5.116   7.996   5.872 -2.4919  2.2356 -0.0521
   23DOPE  C311 2943   5.141   8.177   5.992 -0.2847 -0.7998 -0.5184
   23DOPE  H11X 2944   5.077   8.195   6.081 -2.7853 -1.4739 -2.0788
   23DOPE  H11Y 2945   5.237   8.231   6.010 -1.0414 -0.2111  2.2135
   23DOPE  C312 2946   5.078   8.255   5.875 -0.3163  0.2859 -0.0462
   23DOPE  H12X 2947   4.977   8.210   5.864  0.6195 -1.5909 -1.4931
   23DOPE  H12Y 2948   5.139   8.247   5.782 -0.7233  1.3728 -0.4283
   23DOPE  C313 2949   5.056   8.404   5.909  0.0759 -0.7607 -0.4523
   23DOPE  H13X 2950   5.026   8.396   6.016  1.0650 -2.6289 -0.2755
   23DOPE  H13Y 2951   5.146   8.469   5.902 -0.1204 -0.3164  0.8586
   23DOPE  C314 2952   4.942   8.476   5.839 -0.7000  0.2352 -0.6241
   23DOPE  H14X 2953   4.858   8.404   5.854  0.2266 -1.0156 -1.2498
   23DOPE  H14Y 2954   4.970   8.481   5.732  1.3783  1.2520 -0.0840
   23DOPE  C315 2955   4.914   8.612   5.906  0.1135  0.2967  0.5997
   23DOPE  H15X 2956   5.001   8.680   5.911  1.8043 -1.7283  0.0533
   23DOPE  H15Y 2957   4.884   8.598   6.012  1.8621 -1.8857  0.8614
   23DOPE  C316 2958   4.795   8.690   5.847 -0.2093 -0.2281 -0.0427
   23DOPE  H16X 2959   4.707   8.622   5.849  0.6622 -1.4130 -0.6539
   23DOPE  H16Y 2960   4.816   8.710   5.739 -0.2456 -1.0437 -0.2150
   23DOPE  C317 2961   4.764   8.818   5.927  0.4364  0.3461 -0.0691
   23DOPE  H17X 2962   4.741   8.792   6.032  2.3857  0.3178  0.3934
   23DOPE  H17Y 2963   4.850   8.887   5.922 -0.5811  1.7478  1.0580
   23DOPE  C318 2964   4.638   8.883   5.870 -0.0297 -0.2804 -1.1607
   23DOPE  H18X 2965   4.555   8.811   5.877 -1.7611  1.4435 -2.8606
   23DOPE  H18Y 2966   4.611   8.977   5.923 -0.5164 -0.2852 -1.4001
   23DOPE  H18Z 2967   4.647   8.911   5.763  1.9896 -1.6254 -1.4005
   24DOPE     N 2968   6.411   6.442   8.005  0.5814  0.2008  0.2081
   24DOPE   HN1 2969   6.416   6.376   8.085 -0.0335 -1.5690 -1.1472
   24DOPE   HN2 2970   6.503   6.484   7.983  1.5410 -2.5895 -1.7523
   24DOPE   HN3 2971   6.344   6.519   8.026 -0.6292  0.2938 -3.3403
   24DOPE   C12 2972   6.370   6.361   7.880 -0.1503 -0.2541 -0.3132
   24DOPE  H12A 2973   6.346   6.435   7.801  2.6009  0.3741 -0.6487
   24DOPE  H12B 2974   6.281   6.304   7.914  0.8820 -2.7375 -1.5080
   24DOPE   C11 2975   6.474   6.270   7.832 -0.2031  0.1632  0.1065
   24DOPE  H11A 2976   6.436   6.209   7.747 -0.5875 -0.1423  0.4920
   24DOPE  H11B 2977   6.504   6.206   7.918 -0.7552 -0.7750 -0.3882
   24DOPE     P 2978   6.723   6.263   7.748  0.1611  0.2949  0.1930
   24DOPE   O13 2979   6.737   6.154   7.846 -0.6396  0.3870 -0.4288
   24DOPE   O14 2980   6.839   6.359   7.754 -0.7041  0.7524  0.0648
   24DOPE   O11 2981   6.708   6.201   7.605 -0.0514  0.3623 -0.6306
   24DOPE   O12 2982   6.591   6.345   7.788  0.7311  0.0189 -0.3697
   24DOPE    C1 2983   6.624   6.258   7.505  0.2048  0.4280  0.1921
   24DOPE    HA 2984   6.664   6.265   7.401 -1.3968 -1.0660 -0.5855
   24DOPE    HB 2985   6.580   6.357   7.527  0.4463  1.0291 -1.7903
   24DOPE    C2 2986   6.491   6.177   7.484 -0.2700  0.2504  0.7905
   24DOPE    HS 2987   6.456   6.122   7.574 -1.1409  0.9093  0.8705
   24DOPE   O21 2988   6.510   6.075   7.384  0.3153  0.1716 -0.2335
   24DOPE   C21 2989   6.578   5.965   7.416  0.5476  0.1867  0.1741
   24DOPE   O22 2990   6.625   5.942   7.526 -0.1572  0.2514  0.1080
   24DOPE   C22 2991   6.569   5.858   7.305  0.7360 -0.0058 -0.6555
   24DOPE   H2R 2992   6.509   5.897   7.220 -0.3686  0.6277  0.3805
   24DOPE   H2S 2993   6.517   5.768   7.346 -0.4775 -0.0708 -2.2333
   24DOPE    C3 2994   6.371   6.264   7.438  0.2724  0.1697  0.0634
   24DOPE    HX 2995   6.317   6.325   7.513 -1.6264  1.1249 -1.9687
   24DOPE    HY 2996   6.291   6.190   7.417  2.0710 -1.6331 -0.8255
   24DOPE   O31 2997   6.414   6.338   7.326  0.1673 -0.0380 -0.2384
   24DOPE   C31 2998   6.311   6.398   7.263 -0.3285  0.3702 -0.0371
   24DOPE   O32 2999   6.197   6.401   7.304 -0.0201 -0.0048  0.2741
   24DOPE   C32 3000   6.367   6.470   7.143 -0.2069  0.3875 -0.3468
   24DOPE   H2X 3001   6.320   6.427   7.052 -1.3899  0.3458  0.2609
   24DOPE   H2Y 3002   6.334   6.574   7.162  1.0378  0.4585  1.6837
   24DOPE   C23 3003   6.715   5.813   7.256  0.4066 -0.3662 -0.4385
   24DOPE   H3R 3004   6.699   5.726   7.190  1.3226 -1.2200  0.4447
   24DOPE   H3S 3005   6.779   5.777   7.340 -0.3216 -0.4681  0.0821
   24DOPE   C24 3006   6.769   5.939   7.186 -0.3341 -0.0774 -0.1018
   24DOPE   H4R 3007   6.731   6.029   7.239 -0.2817 -0.1503  0.0634
   24DOPE   H4S 3008   6.721   5.937   7.086 -0.0764  1.2500 -0.2684
   24DOPE   C25 3009   6.918   5.945   7.174  0.0575 -0.0886 -0.3036
   24DOPE   H5R 3010   6.962   5.844   7.158  2.7581  0.9652 -0.0454
   24DOPE   H5S 3011   6.953   5.974   7.276  0.2369 -0.6270 -0.2080
   24DOPE   C26 3012   6.978   6.029   7.062 -0.0191 -0.2361  0.3679
   24DOPE   H6R 3013   6.935   6.005   6.963 -0.7786 -2.3183  1.1462
   24DOPE   H6S 3014   7.087   6.007   7.052  0.2065  1.2893 -1.1029
   24DOPE   C27 3015   6.965   6.179   7.078  0.3270 -0.3621  0.4456
   24DOPE   H7R 3016   6.989   6.205   7.183  0.4735 -0.1210  0.3523
   24DOPE   H7S 3017   6.856   6.199   7.070 -0.1377 -1.5295  2.9395
   24DOPE   C28 3018   7.028   6.271   6.971 -0.1909  0.1243 -0.1822
   24DOPE   H8R 3019   7.005   6.376   7.000  2.1832  0.1865  1.8499
   24DOPE   H8S 3020   6.988   6.247   6.870 -0.6859  2.2707 -0.5493
   24DOPE   C29 3021   7.181   6.256   6.967 -0.3286 -0.4829 -0.3409
   24DOPE   H9R 3022   7.236   6.264   7.061 -0.0655  0.6252 -0.5824
   24DOPE  C210 3023   7.261   6.250   6.859  0.1017 -0.0396  0.4134
   24DOPE  H10R 3024   7.369   6.265   6.871  0.2650 -0.2434 -0.7261
   24DOPE  C211 3025   7.213   6.282   6.719  0.7196  0.2317  0.4419
   24DOPE  H11R 3026   7.310   6.296   6.667  0.6405  1.8318  0.6785
   24DOPE  H11S 3027   7.153   6.375   6.725 -0.9773 -0.7186 -0.8469
   24DOPE  C212 3028   7.147   6.155   6.652 -0.3386 -0.1176  0.4657
   24DOPE  H12R 3029   7.057   6.117   6.705 -2.1832  2.7570 -0.3841
   24DOPE  H12S 3030   7.217   6.069   6.651  0.2120  0.3259  0.2973
   24DOPE  C213 3031   7.098   6.177   6.508 -0.0719  0.1371 -0.0894
   24DOPE  H13R 3032   7.194   6.188   6.452 -0.3957 -0.8371 -0.8633
   24DOPE  H13S 3033   7.038   6.270   6.512  0.0949  0.2666 -0.4963
   24DOPE  C214 3034   7.016   6.056   6.464 -0.0200 -0.2431 -0.2445
   24DOPE  H14R 3035   6.918   6.065   6.516 -0.7799  0.4076 -1.6967
   24DOPE  H14S 3036   7.065   5.958   6.477  0.4641 -0.1477 -1.2223
   24DOPE  C215 3037   6.977   6.079   6.311 -0.1559 -0.1969 -0.0906
   24DOPE  H15R 3038   6.923   5.987   6.281  2.7151 -2.7094  1.8048
   24DOPE  H15S 3039   7.068   6.092   6.249 -0.8241 -4.6667 -2.4436
   24DOPE  C216 3040   6.902   6.214   6.286  0.6647  0.4848 -0.0095
   24DOPE  H16R 3041   6.975   6.298   6.288  0.7052  0.4399  0.4339
   24DOPE  H16S 3042   6.821   6.231   6.360  1.1515 -1.0928  0.9300
   24DOPE  C217 3043   6.830   6.207   6.151 -0.2456  0.1895  0.3150
   24DOPE  H17R 3044   6.762   6.119   6.152  1.6032 -1.3135 -1.1830
   24DOPE  H17S 3045   6.910   6.187   6.077 -1.3832  0.8730 -1.1585
   24DOPE  C218 3046   6.758   6.339   6.114  0.1751  0.8095  0.4785
   24DOPE  H18R 3047   6.831   6.415   6.077 -0.5480  1.6287  0.7221
   24DOPE  H18S 3048   6.697   6.368   6.202 -0.7184  1.9412 -0.4831
   24DOPE  H18T 3049   6.682   6.320   6.035  0.0463  2.6050  0.1483
   24DOPE   C33 3050   6.526   6.480   7.144  0.2722  0.1071  0.2816
   24DOPE   H3X 3051   6.570   6.378   7.149  1.3806  0.6119  1.4991
   24DOPE   H3Y 3052   6.568   6.514   7.241 -0.5827  1.0775  0.3264
   24DOPE   C34 3053   6.577   6.574   7.038 -0.1916  0.3371 -0.8249
   24DOPE   H4X 3054   6.551   6.546   6.933  2.7929  2.0439 -2.1478
   24DOPE   H4Y 3055   6.528   6.672   7.054 -0.8510 -0.2167  0.6791
   24DOPE   C35 3056   6.733   6.596   7.033 -0.2517  0.2310  0.3624
   24DOPE   H5X 3057   6.782   6.499   7.013  0.3632  0.4181  0.9392
   24DOPE   H5Y 3058   6.766   6.628   7.134 -1.7347  1.7548  0.4252
   24DOPE   C36 3059   6.779   6.686   6.913 -0.1147  0.0316 -0.4234
   24DOPE   H6X 3060   6.878   6.730   6.935 -0.0956  0.2640 -0.9490
   24DOPE   H6Y 3061   6.699   6.763   6.920 -2.1486 -1.9128 -1.1439
   24DOPE   C37 3062   6.779   6.618   6.782 -0.4080  0.8640  0.1373
   24DOPE   H7X 3063   6.863   6.546   6.795  1.6555  2.9049 -1.1467
   24DOPE   H7Y 3064   6.693   6.548   6.772  0.6542 -0.6250  1.0346
   24DOPE   C38 3065   6.805   6.716   6.662 -0.6102  0.0463  0.9735
   24DOPE   H8X 3066   6.902   6.764   6.685  2.2214 -4.7675  0.3636
   24DOPE   H8Y 3067   6.733   6.797   6.637 -0.4968  0.0370  0.6097
   24DOPE   C39 3068   6.824   6.628   6.541  0.1198 -0.2263  0.4710
   24DOPE   H9X 3069   6.915   6.567   6.552  1.7795  1.8821 -0.8801
   24DOPE  C310 3070   6.742   6.615   6.425 -0.6722  0.4955  0.0956
   24DOPE  H10X 3071   6.762   6.530   6.359  0.4957  0.9024 -0.1124
   24DOPE  C311 3072   6.619   6.701   6.393 -0.2343 -0.2962  0.4845
   24DOPE  H11X 3073   6.607   6.793   6.453 -0.4418 -1.2026  1.8717
   24DOPE  H11Y 3074   6.611   6.723   6.284 -0.9102  1.1678  0.8087
   24DOPE  C312 3075   6.488   6.613   6.419 -0.3353 -0.5129 -0.2485
   24DOPE  H12X 3076   6.407   6.681   6.387 -1.2074 -0.6740  1.4845
   24DOPE  H12Y 3077   6.473   6.585   6.526 -1.4641 -1.0219 -0.5377
   24DOPE  C313 3078   6.466   6.481   6.345  0.0472 -0.0282  0.2967
   24DOPE  H13X 3079   6.482   6.496   6.236 -1.3278  1.1063  0.2242
   24DOPE  H13Y 3080   6.542   6.405   6.373  0.2012 -0.0092 -0.0609
   24DOPE  C314 3081   6.330   6.427   6.373  0.7743  0.2934  0.0516
   24DOPE  H14X 3082   6.319   6.411   6.482  0.9418  1.3295  0.2382
   24DOPE  H14Y 3083   6.321   6.334   6.313 -2.0618  1.3466 -1.3814
   24DOPE  C315 3084   6.208   6.507   6.319 -0.4488 -0.4637  0.5755
   24DOPE  H15X 3085   6.223   6.528   6.211  0.0727  0.0727  0.7458
   24DOPE  H15Y 3086   6.194   6.603   6.373  0.3309 -0.0475  0.0599
   24DOPE  C316 3087   6.074   6.427   6.321  0.2250  0.1355 -0.6219
   24DOPE  H16X 3088   6.092   6.323   6.289  0.0332 -0.8058  2.0894
   24DOPE  H16Y 3089   5.997   6.476   6.257  0.7444 -1.9950 -3.0500
   24DOPE  C317 3090   6.012   6.415   6.467 -0.1374 -0.7815  0.4520
   24DOPE  H17X 3091   6.093   6.383   6.536  0.8903 -1.9146 -1.2003
   24DOPE  H17Y 3092   5.981   6.516   6.502  1.0085 -0.7069  1.3022
   24DOPE  C318 3093   5.887   6.323   6.470  0.0117 -0.2517  0.0358
   24DOPE  H18X 3094   5.802   6.362   6.410  0.5264 -0.8949 -1.1293
   24DOPE  H18Y 3095   5.912   6.225   6.424  1.5169  1.1342 -2.3254
   24DOPE  H18Z 3096   5.855   6.320   6.577  2.0720  2.1041  0.8214
   25DOPE     N 3097   0.434   6.243   7.728  0.7851  0.0343  0.5152
   25DOPE   HN1 3098   0.401   6.233   7.826 -1.2548 -1.7704 -0.2691
   25DOPE   HN2 3099   0.537   6.256   7.726  0.6374  1.4370  0.7321
   25DOPE   HN3 3100   0.401   6.337   7.697  3.3342  1.8242  2.7594
   25DOPE   C12 3101   0.393   6.121   7.647  0.2892  0.2896 -0.1674
   25DOPE  H12A 3102   0.462   6.035   7.660 -1.3971 -1.3504 -1.5210
   25DOPE  H12B 3103   0.385   6.149   7.540  1.5123 -0.0183 -0.3567
   25DOPE   C11 3104   0.254   6.065   7.694 -0.1946  0.1777  0.2372
   25DOPE  H11A 3105   0.216   5.994   7.617 -3.1837  2.2559 -0.4016
   25DOPE  H11B 3106   0.185   6.152   7.697  0.1202  0.4343  0.0486
   25DOPE     P 3107   0.143   5.938   7.883 -0.2011 -0.1837  0.3766
   25DOPE   O13 3108   0.052   6.054   7.901  0.4163  0.1824  0.1186
   25DOPE   O14 3109   0.178   5.852   8.002 -0.2992 -0.7306  0.3282
   25DOPE   O11 3110   0.092   5.854   7.758 -0.4155 -0.3983 -0.0010
   25DOPE   O12 3111   0.273   6.000   7.818 -0.1785  0.3924  0.3367
   25DOPE    C1 3112   0.155   5.726   7.714  0.3241 -0.9015 -0.7550
   25DOPE    HA 3113   0.173   5.661   7.803  0.7781 -0.2740 -0.3777
   25DOPE    HB 3114   0.251   5.755   7.667  0.0492  0.6634 -0.3990
   25DOPE    C2 3115   0.073   5.645   7.610 -0.2499  0.1760 -0.2734
   25DOPE    HS 3116   0.128   5.629   7.515  0.8628  0.0927  0.3636
   25DOPE   O21 3117  -0.063   5.693   7.595  0.5183 -0.2963  0.2756
   25DOPE   C21 3118  -0.068   5.782   7.500 -0.3033 -0.2668  0.0816
   25DOPE   O22 3119   0.021   5.825   7.431  0.5815  0.2827 -0.0731
   25DOPE   C22 3120  -0.214   5.828   7.489  0.3638 -0.4693 -0.2305
   25DOPE   H2R 3121  -0.237   5.885   7.396 -0.1909 -0.8881 -0.3616
   25DOPE   H2S 3122  -0.221   5.900   7.572  0.4014 -1.4429  0.6384
   25DOPE    C3 3123   0.047   5.500   7.655  0.6453 -0.0441 -0.5050
   25DOPE    HX 3124   0.002   5.501   7.756  1.3987 -0.3740 -0.1536
   25DOPE    HY 3125   0.149   5.455   7.661  1.6575  1.7159 -2.8952
   25DOPE   O31 3126  -0.043   5.444   7.553  0.0593 -0.2925 -0.0804
   25DOPE   C31 3127  -0.040   5.314   7.549 -0.1764 -0.5473  0.5521
   25DOPE   O32 3128   0.015   5.246   7.635  0.3431 -0.1391  0.4618
   25DOPE   C32 3129  -0.114   5.267   7.422  0.2295  0.3705  0.3971
   25DOPE   H2X 3130  -0.081   5.161   7.416 -0.5557 -0.1183  3.1786
   25DOPE   H2Y 3131  -0.221   5.262   7.453  0.1214 -0.1723 -0.0533
   25DOPE   C23 3132  -0.325   5.720   7.506 -0.1023 -0.3234 -0.3121
   25DOPE   H3R 3133  -0.312   5.682   7.610  3.4219  0.1254 -0.4645
   25DOPE   H3S 3134  -0.302   5.632   7.442  2.3251 -0.1202  0.1664
   25DOPE   C24 3135  -0.473   5.773   7.477  0.0191 -0.4904  0.3935
   25DOPE   H4R 3136  -0.465   5.849   7.397  0.4114  1.8042  2.4873
   25DOPE   H4S 3137  -0.511   5.829   7.566 -0.6656  0.7417 -0.6401
   25DOPE   C25 3138  -0.567   5.660   7.444  0.5091 -0.5212  0.1865
   25DOPE   H5R 3139  -0.671   5.695   7.429  1.2677  1.0922 -1.6342
   25DOPE   H5S 3140  -0.579   5.594   7.533 -1.2125 -3.5794 -2.1134
   25DOPE   C26 3141  -0.524   5.585   7.316 -0.1220  0.3023  0.5000
   25DOPE   H6R 3142  -0.431   5.526   7.335  1.0701  1.3257 -1.7313
   25DOPE   H6S 3143  -0.515   5.656   7.231  0.2924 -0.3263  0.0070
   25DOPE   C27 3144  -0.639   5.493   7.263  0.1994 -0.1652  0.1523
   25DOPE   H7R 3145  -0.729   5.554   7.238 -0.0780 -1.1199 -1.3342
   25DOPE   H7S 3146  -0.674   5.415   7.333 -0.4590 -0.6531 -0.6864
   25DOPE   C28 3147  -0.581   5.430   7.138  0.2678 -0.0042 -0.5161
   25DOPE   H8R 3148  -0.481   5.385   7.156  0.2381  0.4820  0.9651
   25DOPE   H8S 3149  -0.550   5.512   7.069  1.4467  2.5625  2.8130
   25DOPE   C29 3150  -0.674   5.326   7.082  0.5996 -0.1812  0.0678
   25DOPE   H9R 3151  -0.669   5.225   7.127  0.3115 -0.3495 -0.2753
   25DOPE  C210 3152  -0.747   5.341   6.977  0.3368 -0.2533 -0.0570
   25DOPE  H10R 3153  -0.808   5.256   6.945  0.5671 -1.6624  2.9268
   25DOPE  C211 3154  -0.766   5.467   6.898  0.3129 -0.0258  0.0143
   25DOPE  H11R 3155  -0.770   5.441   6.790  0.0413  0.4706 -0.1011
   25DOPE  H11S 3156  -0.677   5.533   6.911 -1.5199  2.6354 -0.1838
   25DOPE  C212 3157  -0.886   5.551   6.939  0.3233  0.4098 -0.2171
   25DOPE  H12R 3158  -0.859   5.566   7.046  2.0320 -1.8092 -0.2589
   25DOPE  H12S 3159  -0.978   5.488   6.943  0.0274  0.7280 -1.6357
   25DOPE  C213 3160  -0.912   5.685   6.873 -0.2365 -0.2410 -0.7545
   25DOPE  H13R 3161  -0.828   5.752   6.902  1.2334 -2.1788 -0.2816
   25DOPE  H13S 3162  -1.015   5.717   6.898  0.2920  1.2869 -0.4250
   25DOPE  C214 3163  -0.896   5.678   6.720  0.3980  0.7076 -0.3340
   25DOPE  H14R 3164  -0.986   5.624   6.683  1.0029 -1.1903  0.7972
   25DOPE  H14S 3165  -0.808   5.618   6.689 -0.5228 -1.1554  0.5102
   25DOPE  C215 3166  -0.888   5.816   6.650 -0.1373  0.1388 -0.0775
   25DOPE  H15R 3167  -0.790   5.864   6.668 -0.8198  1.6593 -0.2216
   25DOPE  H15S 3168  -0.965   5.877   6.703 -1.5856 -1.3115 -0.4518
   25DOPE  C216 3169  -0.931   5.804   6.503 -0.3000 -0.2672 -0.9466
   25DOPE  H16R 3170  -0.954   5.907   6.466  0.5233  0.0866 -0.5063
   25DOPE  H16S 3171  -1.029   5.753   6.511 -0.7307  0.6356 -0.1801
   25DOPE  C217 3172  -0.843   5.722   6.410 -0.1025 -0.4309 -0.5749
   25DOPE  H17R 3173  -0.846   5.618   6.451 -0.0590 -0.2917 -0.2206
   25DOPE  H17S 3174  -0.739   5.756   6.428 -0.2492 -1.5351  3.2408
   25DOPE  C218 3175  -0.887   5.715   6.267  0.6019  0.5929  0.1904
   25DOPE  H18R 3176  -0.911   5.817   6.233  0.5669  0.4621 -0.1879
   25DOPE  H18S 3177  -0.980   5.657   6.250  0.4229  1.7127 -3.8560
   25DOPE  H18T 3178  -0.802   5.671   6.210 -0.3312  1.3116 -1.8398
   25DOPE   C33 3179  -0.110   5.354   7.292 -0.1378 -0.1929 -0.8483
   25DOPE   H3X 3180  -0.002   5.372   7.272 -0.7048 -0.1235 -4.3382
   25DOPE   H3Y 3181  -0.165   5.447   7.318  1.8278  0.3378  1.9166
   25DOPE   C34 3182  -0.166   5.291   7.163 -0.0867 -0.3528  0.0700
   25DOPE   H4X 3183  -0.269   5.259   7.191 -0.5609  1.1527  0.1573
   25DOPE   H4Y 3184  -0.175   5.378   7.094 -0.6223  0.4622  1.1319
   25DOPE   C35 3185  -0.078   5.189   7.104 -0.8811 -0.3621  0.0500
   25DOPE   H5X 3186  -0.048   5.101   7.166 -0.8119 -0.7824 -0.5633
   25DOPE   H5Y 3187   0.018   5.239   7.081 -1.4239  0.1921 -1.1255
   25DOPE   C36 3188  -0.128   5.145   6.963  0.4519  0.4667 -0.3108
   25DOPE   H6X 3189  -0.225   5.091   6.961  0.4178  0.5387 -0.7956
   25DOPE   H6Y 3190  -0.047   5.085   6.914  0.4912  0.5495 -0.3468
   25DOPE   C37 3191  -0.148   5.261   6.854  0.3071 -0.2400  1.1695
   25DOPE   H7X 3192  -0.237   5.320   6.885 -0.1265 -1.2233  1.8542
   25DOPE   H7Y 3193  -0.056   5.322   6.859 -1.5217  3.0528 -1.2754
   25DOPE   C38 3194  -0.181   5.215   6.705 -0.0850  0.5118 -0.0674
   25DOPE   H8X 3195  -0.092   5.161   6.666  1.5350  1.4648  2.1027
   25DOPE   H8Y 3196  -0.206   5.306   6.647  1.8508  0.5221 -0.9641
   25DOPE   C39 3197  -0.293   5.113   6.701 -0.0249 -0.3401 -0.9063
   25DOPE   H9X 3198  -0.276   5.006   6.719 -1.3820 -0.8332 -2.3362
   25DOPE  C310 3199  -0.423   5.135   6.681  0.1244  0.0502 -0.5683
   25DOPE  H10X 3200  -0.487   5.046   6.686 -1.0777  0.7326 -2.7499
   25DOPE  C311 3201  -0.499   5.269   6.668 -0.4245 -0.2591 -0.5945
   25DOPE  H11X 3202  -0.596   5.262   6.721  0.2441 -1.0135  0.5779
   25DOPE  H11Y 3203  -0.439   5.350   6.714  0.9942 -0.3707 -2.1246
   25DOPE  C312 3204  -0.509   5.305   6.522 -0.2320 -0.3979  0.0379
   25DOPE  H12X 3205  -0.409   5.290   6.477  0.3845  0.9100  0.9255
   25DOPE  H12Y 3206  -0.534   5.412   6.508 -0.4429 -0.6774 -2.1593
   25DOPE  C313 3207  -0.623   5.229   6.457 -0.5325 -0.0454 -0.1125
   25DOPE  H13X 3208  -0.610   5.119   6.459 -2.4899 -0.2986  0.6059
   25DOPE  H13Y 3209  -0.720   5.251   6.508 -1.0654 -3.7281  0.7202
   25DOPE  C314 3210  -0.647   5.264   6.312  0.2644 -0.5966  0.3145
   25DOPE  H14X 3211  -0.676   5.371   6.304  2.6248  0.1451  0.7248
   25DOPE  H14Y 3212  -0.735   5.203   6.282 -0.8179  0.5831  0.9719
   25DOPE  C315 3213  -0.525   5.253   6.217  0.3628 -0.1792  0.0069
   25DOPE  H15X 3214  -0.451   5.332   6.242  0.3255  0.1734 -0.9580
   25DOPE  H15Y 3215  -0.562   5.284   6.117 -3.5425  1.1368  1.6621
   25DOPE  C316 3216  -0.461   5.115   6.217 -0.4970 -0.2894 -0.8981
   25DOPE  H16X 3217  -0.532   5.042   6.174  0.2696 -0.6590 -1.5617
   25DOPE  H16Y 3218  -0.439   5.081   6.320 -0.3334 -2.0687 -1.4820
   25DOPE  C317 3219  -0.329   5.105   6.140  0.2888  0.1360 -0.1789
   25DOPE  H17X 3220  -0.309   4.998   6.120  2.7903  0.6784 -0.8580
   25DOPE  H17Y 3221  -0.323   5.139   6.034 -0.4794  2.4343  0.4396
   25DOPE  C318 3222  -0.205   5.171   6.213  0.4779  0.3357  0.4904
   25DOPE  H18X 3223  -0.117   5.166   6.146 -0.5805  0.4359 -0.9606
   25DOPE  H18Y 3224  -0.226   5.278   6.234  1.0457  0.1639  2.0751
   25DOPE  H18Z 3225  -0.181   5.122   6.310  0.8911 -0.0320  0.2036
   26DOPE     N 3226   0.465   5.932   7.238  0.3507 -0.2511  0.0998
   26DOPE   HN1 3227   0.503   5.878   7.318 -1.3415 -0.3962  0.8414
   26DOPE   HN2 3228   0.494   6.028   7.266  3.2270 -1.5273  2.0348
   26DOPE   HN3 3229   0.361   5.934   7.238  0.3475 -0.2504  0.9292
   26DOPE   C12 3230   0.530   5.901   7.105  0.3603  0.2548 -0.8156
   26DOPE  H12A 3231   0.468   5.825   7.053  0.4471  1.1486 -2.2611
   26DOPE  H12B 3232   0.631   5.865   7.133  1.0577  2.6657 -0.0540
   26DOPE   C11 3233   0.535   6.034   7.020  0.1124  0.1548  0.0365
   26DOPE  H11A 3234   0.434   6.078   7.013 -0.8636 -1.2843  3.2228
   26DOPE  H11B 3235   0.574   6.008   6.919 -1.9603 -0.9284 -0.5337
   26DOPE     P 3236   0.767   6.134   7.063 -0.1487 -0.3072 -0.5699
   26DOPE   O13 3237   0.822   6.001   7.079 -0.2359 -0.1523 -0.2681
   26DOPE   O14 3238   0.826   6.241   7.147 -0.0747 -0.0246  0.2927
   26DOPE   O11 3239   0.782   6.177   6.909 -0.0957 -0.4632 -0.0199
   26DOPE   O12 3240   0.609   6.136   7.083  0.1679 -0.3819 -0.2730
   26DOPE    C1 3241   0.712   6.290   6.860 -0.6225  0.5487  0.3427
   26DOPE    HA 3242   0.787   6.364   6.824  0.8442 -0.1903  1.7228
   26DOPE    HB 3243   0.665   6.347   6.944 -0.3591 -1.9545  2.3057
   26DOPE    C2 3244   0.622   6.261   6.741 -0.3702  0.2309 -0.5580
   26DOPE    HS 3245   0.554   6.174   6.752 -0.7654  0.2338 -2.5896
   26DOPE   O21 3246   0.714   6.241   6.630 -0.3649 -0.2425  0.0653
   26DOPE   C21 3247   0.747   6.114   6.616  0.3867 -0.6950  0.4602
   26DOPE   O22 3248   0.708   6.024   6.682  0.0664  0.8245  0.7230
   26DOPE   C22 3249   0.820   6.106   6.482 -0.8743  0.1320 -0.2463
   26DOPE   H2R 3250   0.911   6.167   6.501 -0.7497 -0.2576  0.4634
   26DOPE   H2S 3251   0.762   6.154   6.400  1.1648  0.3515 -1.6479
   26DOPE    C3 3252   0.538   6.391   6.724 -0.1888 -0.6550  0.0167
   26DOPE    HX 3253   0.621   6.462   6.708  0.1455 -0.7693  1.2291
   26DOPE    HY 3254   0.481   6.422   6.814  2.9907  2.1046  1.2884
   26DOPE   O31 3255   0.446   6.377   6.615 -0.3124 -0.2362  0.2483
   26DOPE   C31 3256   0.482   6.446   6.504 -0.6409  0.5147  0.2284
   26DOPE   O32 3257   0.580   6.508   6.486  0.1311 -0.4431  0.6320
   26DOPE   C32 3258   0.357   6.443   6.427 -0.0084 -0.2420 -0.0456
   26DOPE   H2X 3259   0.272   6.485   6.485 -2.0076  1.2888 -3.7561
   26DOPE   H2Y 3260   0.362   6.519   6.347 -0.6472  1.4557  1.4617
   26DOPE   C23 3261   0.859   5.964   6.449 -0.0573 -0.3097  0.0333
   26DOPE   H3R 3262   0.780   5.887   6.458 -1.8321  1.6007  1.7956
   26DOPE   H3S 3263   0.938   5.923   6.515  2.7552  0.1888 -2.7574
   26DOPE   C24 3264   0.904   5.952   6.302  0.1723 -0.1823 -0.2477
   26DOPE   H4R 3265   0.820   5.981   6.236 -1.7289  0.9769  2.4920
   26DOPE   H4S 3266   0.925   5.845   6.282 -1.3734 -0.1017 -2.7120
   26DOPE   C25 3267   1.029   6.038   6.271  0.5130 -0.2990 -0.1924
   26DOPE   H5R 3268   1.093   6.027   6.361 -1.1629 -2.6969  0.8114
   26DOPE   H5S 3269   0.999   6.143   6.249 -2.6824 -1.1130 -0.1650
   26DOPE   C26 3270   1.116   5.991   6.155  0.0350 -0.7109 -0.0578
   26DOPE   H6R 3271   1.068   6.013   6.057 -0.9366 -1.3637  0.2609
   26DOPE   H6S 3272   1.120   5.882   6.175 -2.0530 -0.6356  0.9907
   26DOPE   C27 3273   1.257   6.050   6.154 -0.2480  0.0056 -0.6605
   26DOPE   H7R 3274   1.305   6.043   6.254  0.7775 -0.8786 -1.1969
   26DOPE   H7S 3275   1.231   6.154   6.125 -0.6182 -0.1313 -0.8190
   26DOPE   C28 3276   1.348   5.992   6.041 -0.3602  0.2826  0.3870
   26DOPE   H8R 3277   1.306   6.020   5.942  1.7356 -0.2388 -0.7232
   26DOPE   H8S 3278   1.332   5.882   6.029 -1.2978  0.4364  0.1371
   26DOPE   C29 3279   1.494   6.031   6.058  0.0763  0.2809  0.4337
   26DOPE   H9R 3280   1.524   6.067   6.157 -0.5830 -1.8056  1.4553
   26DOPE  C210 3281   1.596   6.008   5.965  0.7149 -0.3816  0.2723
   26DOPE  H10R 3282   1.702   6.024   5.991  0.3299  2.0003  0.5498
   26DOPE  C211 3283   1.572   5.936   5.830 -0.1374 -0.7682 -0.1103
   26DOPE  H11R 3284   1.466   5.904   5.826 -1.2804  1.8991  3.3215
   26DOPE  H11S 3285   1.651   5.859   5.817  1.1042  0.5175 -0.5766
   26DOPE  C212 3286   1.608   6.040   5.715 -0.0490  0.5205  0.6710
   26DOPE  H12R 3287   1.716   6.064   5.717  0.5132 -1.3063 -1.7063
   26DOPE  H12S 3288   1.561   6.140   5.721 -0.5448  0.3075  0.4460
   26DOPE  C213 3289   1.574   5.982   5.579 -0.0091 -0.0818  0.1588
   26DOPE  H13R 3290   1.580   6.061   5.501 -0.3764  0.2800  0.4906
   26DOPE  H13S 3291   1.477   5.929   5.565 -0.0522  0.4470 -1.9714
   26DOPE  C214 3292   1.685   5.893   5.527  0.9501  0.0342 -0.2316
   26DOPE  H14R 3293   1.672   5.795   5.579 -2.6438  1.1062  1.1822
   26DOPE  H14S 3294   1.787   5.927   5.554  1.3546 -1.1156 -0.2705
   26DOPE  C215 3295   1.674   5.881   5.377  0.7157  0.8762  0.5094
   26DOPE  H15R 3296   1.708   5.977   5.334  1.8697  1.0194  1.6588
   26DOPE  H15S 3297   1.569   5.852   5.353 -0.0156  2.7199  1.2679
   26DOPE  C216 3298   1.770   5.773   5.313 -0.4082 -0.5906 -0.5343
   26DOPE  H16R 3299   1.873   5.807   5.338  0.1807 -3.2717  1.1608
   26DOPE  H16S 3300   1.755   5.783   5.203  0.5753  0.2244 -0.6123
   26DOPE  C217 3301   1.756   5.625   5.356 -0.5538  0.2330 -0.1152
   26DOPE  H17R 3302   1.778   5.621   5.465  1.5350  1.9131 -0.3885
   26DOPE  H17S 3303   1.827   5.564   5.296 -0.5325 -0.7203  0.8534
   26DOPE  C218 3304   1.615   5.567   5.346 -0.0614 -0.0998  0.0775
   26DOPE  H18R 3305   1.586   5.566   5.239 -0.5623  0.2294  0.2090
   26DOPE  H18S 3306   1.540   5.627   5.402 -0.0680  1.7323 -1.8108
   26DOPE  H18T 3307   1.607   5.469   5.398  1.6222 -0.2774  0.0629
   26DOPE   C33 3308   0.319   6.309   6.367  0.4578  0.4218 -0.5729
   26DOPE   H3X 3309   0.208   6.311   6.358  0.3706 -1.2216 -0.2072
   26DOPE   H3Y 3310   0.338   6.228   6.441  0.1899  1.1937  0.3677
   26DOPE   C34 3311   0.386   6.289   6.233  0.4599 -0.0510 -0.5470
   26DOPE   H4X 3312   0.306   6.234   6.178 -1.3806 -0.3888  2.2056
   26DOPE   H4Y 3313   0.404   6.381   6.175 -0.5256 -0.5435 -1.6821
   26DOPE   C35 3314   0.511   6.210   6.249 -1.2731  0.0832  0.8720
   26DOPE   H5X 3315   0.485   6.108   6.286  0.2381 -0.7059 -0.1427
   26DOPE   H5Y 3316   0.576   6.261   6.322 -0.5529  3.1653 -1.6883
   26DOPE   C36 3317   0.591   6.201   6.124 -0.9484  0.0490 -0.1005
   26DOPE   H6X 3318   0.698   6.176   6.133 -0.5798  1.2652 -0.8496
   26DOPE   H6Y 3319   0.592   6.295   6.064 -0.5909 -0.3620 -0.7507
   26DOPE   C37 3320   0.531   6.086   6.031 -0.4019  0.1066 -0.4762
   26DOPE   H7X 3321   0.549   5.990   6.083  1.6481  1.0160  0.6173
   26DOPE   H7Y 3322   0.421   6.092   6.014 -0.3402  0.3719 -0.7874
   26DOPE   C38 3323   0.609   6.091   5.895  0.4373 -0.8250  0.8697
   26DOPE   H8X 3324   0.718   6.091   5.917  0.4940  0.2862  0.6747
   26DOPE   H8Y 3325   0.593   6.182   5.833  1.0368 -1.6976 -0.6072
   26DOPE   C39 3326   0.574   5.971   5.801 -0.0950  0.1633  0.2325
   26DOPE   H9X 3327   0.483   5.984   5.741 -0.6531  0.4496  1.1181
   26DOPE  C310 3328   0.630   5.852   5.783  0.0650  0.3764 -0.7969
   26DOPE  H10X 3329   0.587   5.776   5.715 -0.4687  1.3755 -1.5907
   26DOPE  C311 3330   0.763   5.806   5.856 -0.0729  0.2574  0.1378
   26DOPE  H11X 3331   0.793   5.863   5.947 -0.0456  0.9162 -0.2811
   26DOPE  H11Y 3332   0.731   5.711   5.903  0.7707  1.6123  3.8252
   26DOPE  C312 3333   0.887   5.770   5.764  0.4562  0.6157 -0.1254
   26DOPE  H12X 3334   0.836   5.748   5.668 -1.4301 -0.7369  1.1104
   26DOPE  H12Y 3335   0.927   5.680   5.815 -0.4634  0.0817 -0.3117
   26DOPE  C313 3336   0.993   5.874   5.754 -0.1905  0.2609  0.3713
   26DOPE  H13X 3337   0.954   5.961   5.698  1.4818  1.0111  0.2920
   26DOPE  H13Y 3338   1.025   5.924   5.848  2.0082  1.8788 -1.1331
   26DOPE  C314 3339   1.123   5.829   5.679 -0.4111  0.7295 -0.1307
   26DOPE  H14X 3340   1.175   5.740   5.719  0.2209  1.7737  1.4744
   26DOPE  H14Y 3341   1.193   5.915   5.674  0.4632  0.0472  0.2974
   26DOPE  C315 3342   1.093   5.790   5.535 -0.6333 -0.6615 -0.1165
   26DOPE  H15X 3343   1.022   5.860   5.486 -1.5386 -1.9679 -0.7252
   26DOPE  H15Y 3344   1.044   5.691   5.541  0.9712 -1.5685 -1.3153
   26DOPE  C316 3345   1.218   5.808   5.445  0.1514  0.2736  1.0050
   26DOPE  H16X 3346   1.288   5.725   5.467 -1.3094 -0.9805  1.0846
   26DOPE  H16Y 3347   1.248   5.912   5.472  0.0701  0.6285 -0.2379
   26DOPE  C317 3348   1.183   5.820   5.293 -0.2031 -0.5584  0.7766
   26DOPE  H17X 3349   1.147   5.722   5.257 -0.7365  0.5319 -1.8679
   26DOPE  H17Y 3350   1.100   5.892   5.280  1.3192  1.0103 -0.7352
   26DOPE  C318 3351   1.309   5.867   5.217  0.4293  0.9633  0.4776
   26DOPE  H18X 3352   1.278   5.916   5.122 -2.6905  1.3464  1.5891
   26DOPE  H18Y 3353   1.367   5.947   5.268  0.5758  0.3467  1.2916
   26DOPE  H18Z 3354   1.374   5.782   5.187  1.4752  1.9971 -0.3267
   27DOPE     N 3355   5.913   0.126   7.821  0.5062  0.4391 -0.2529
   27DOPE   HN1 3356   5.853   0.189   7.878  1.9451  3.5706 -1.9560
   27DOPE   HN2 3357   6.013   0.150   7.837  1.2057 -2.2693 -0.0312
   27DOPE   HN3 3358   5.889   0.155   7.724  0.0645  2.7002  0.4815
   27DOPE   C12 3359   5.887  -0.018   7.838  0.7357  0.1986  0.0725
   27DOPE  H12A 3360   5.782  -0.035   7.806  1.3296 -3.0149 -0.4949
   27DOPE  H12B 3361   5.897  -0.050   7.943  1.5403  1.5503  0.4293
   27DOPE   C11 3362   5.971  -0.119   7.750 -0.0618  0.0160 -0.4813
   27DOPE  H11A 3363   5.960  -0.097   7.641  0.7409 -1.0701 -0.8052
   27DOPE  H11B 3364   5.928  -0.221   7.764 -0.7417  0.6501  2.5530
   27DOPE     P 3365   6.192  -0.244   7.826 -0.1045 -0.0841  0.5113
   27DOPE   O13 3366   6.125  -0.377   7.817 -0.3643  0.0545  0.7500
   27DOPE   O14 3367   6.257  -0.213   7.955 -0.0065  0.0440 -0.1712
   27DOPE   O11 3368   6.309  -0.251   7.722 -0.3189 -0.4598  0.2598
   27DOPE   O12 3369   6.107  -0.122   7.779 -0.1438 -0.4208 -0.3262
   27DOPE    C1 3370   6.365  -0.141   7.652 -0.1395 -0.6886  0.5915
   27DOPE    HA 3371   6.476  -0.150   7.653  0.0342  1.0227  0.8245
   27DOPE    HB 3372   6.332  -0.041   7.686 -0.9027  0.4249 -2.9626
   27DOPE    C2 3373   6.315  -0.137   7.505 -0.1546 -0.3977 -0.2071
   27DOPE    HS 3374   6.204  -0.137   7.514 -0.0073 -0.2315  2.3286
   27DOPE   O21 3375   6.364  -0.250   7.430 -0.4377  0.5149  0.1579
   27DOPE   C21 3376   6.278  -0.314   7.346 -0.3342 -0.0069 -0.4995
   27DOPE   O22 3377   6.157  -0.297   7.341  0.2504 -0.2911  0.0480
   27DOPE   C22 3378   6.362  -0.396   7.248  0.2538  0.3728  0.4594
   27DOPE   H2R 3379   6.461  -0.417   7.294 -0.2647  0.2289  1.5440
   27DOPE   H2S 3380   6.366  -0.345   7.150 -3.3904  0.2809  0.1330
   27DOPE    C3 3381   6.356  -0.015   7.428 -0.6312  0.0543 -0.1282
   27DOPE    HX 3382   6.467  -0.013   7.422 -0.5208  2.1428  1.4131
   27DOPE    HY 3383   6.328   0.078   7.482 -1.3264  0.1345 -0.6111
   27DOPE   O31 3384   6.296  -0.018   7.298  0.5644  0.0908 -0.0770
   27DOPE   C31 3385   6.181   0.036   7.281 -0.0457  0.1792 -0.0239
   27DOPE   O32 3386   6.111   0.074   7.378  0.2791  0.2849 -0.2601
   27DOPE   C32 3387   6.145   0.060   7.134  0.5238  0.1395  0.1139
   27DOPE   H2X 3388   6.237   0.088   7.078 -0.4733 -1.0105 -2.2247
   27DOPE   H2Y 3389   6.104  -0.033   7.090 -1.4119  0.2103  1.6211
   27DOPE   C23 3390   6.296  -0.535   7.239 -0.1906 -0.2747 -0.6421
   27DOPE   H3R 3391   6.195  -0.528   7.194 -0.2270 -1.2571 -0.7246
   27DOPE   H3S 3392   6.290  -0.574   7.343  1.2927  2.0092  0.3820
   27DOPE   C24 3393   6.387  -0.625   7.152 -0.2188  0.1220 -0.1587
   27DOPE   H4R 3394   6.357  -0.729   7.176 -1.6676  0.6798  0.5804
   27DOPE   H4S 3395   6.493  -0.600   7.172 -0.6525  0.7953  1.4303
   27DOPE   C25 3396   6.366  -0.602   7.000 -0.3662 -0.0912 -0.4641
   27DOPE   H5R 3397   6.435  -0.516   6.985  1.0698 -0.4320  3.1448
   27DOPE   H5S 3398   6.259  -0.574   6.992 -0.4921 -0.2724  0.5372
   27DOPE   C26 3399   6.404  -0.719   6.908 -0.0064  0.2041  0.2305
   27DOPE   H6R 3400   6.324  -0.796   6.916  0.4332 -0.8129 -3.2836
   27DOPE   H6S 3401   6.500  -0.768   6.933 -1.6033 -3.5704 -0.3226
   27DOPE   C27 3402   6.409  -0.666   6.756  0.0275 -0.0516 -0.5538
   27DOPE   H7R 3403   6.492  -0.593   6.742 -0.4761  0.9433  1.3388
   27DOPE   H7S 3404   6.311  -0.615   6.743  0.1085 -0.0312 -1.1031
   27DOPE   C28 3405   6.415  -0.785   6.654 -0.0074 -0.4295  0.1594
   27DOPE   H8R 3406   6.507  -0.843   6.675  1.1824  0.3414 -2.5103
   27DOPE   H8S 3407   6.437  -0.740   6.554 -0.2946 -0.3999  0.1094
   27DOPE   C29 3408   6.280  -0.860   6.656 -0.0133 -1.0571 -0.6058
   27DOPE   H9R 3409   6.270  -0.932   6.738 -1.3319 -0.3475 -0.1160
   27DOPE  C210 3410   6.185  -0.849   6.560  0.6949  0.0660  0.1101
   27DOPE  H10R 3411   6.096  -0.913   6.568  1.2600 -1.2024 -2.5048
   27DOPE  C211 3412   6.188  -0.768   6.440 -0.6708  0.2187 -0.0307
   27DOPE  H11R 3413   6.103  -0.799   6.376 -0.9412 -1.3663  1.0339
   27DOPE  H11S 3414   6.282  -0.779   6.381 -0.7383  2.8602 -0.7477
   27DOPE  C212 3415   6.198  -0.616   6.458 -0.1859  0.9389 -0.6521
   27DOPE  H12R 3416   6.307  -0.597   6.456  0.8814 -3.8252 -2.0401
   27DOPE  H12S 3417   6.155  -0.573   6.551 -0.0590 -2.4676  1.1546
   27DOPE  C213 3418   6.124  -0.540   6.346 -0.0752 -0.7337 -0.1874
   27DOPE  H13R 3419   6.019  -0.575   6.351 -0.0026 -1.3914 -2.2565
   27DOPE  H13S 3420   6.161  -0.581   6.250 -0.8344  0.9188 -1.2288
   27DOPE  C214 3421   6.149  -0.388   6.361 -0.0175 -0.5759  0.3390
   27DOPE  H14R 3422   6.258  -0.370   6.369 -0.1681  0.2232  0.7124
   27DOPE  H14S 3423   6.108  -0.350   6.457  1.3853 -0.0703  0.7589
   27DOPE  C215 3424   6.114  -0.315   6.232  0.2310 -0.0023  0.8402
   27DOPE  H15R 3425   6.164  -0.368   6.148 -2.6699 -0.3656 -0.8106
   27DOPE  H15S 3426   6.158  -0.214   6.233  0.2243 -0.0017  1.0851
   27DOPE  C216 3427   5.960  -0.297   6.216  0.1522 -0.6606  0.5813
   27DOPE  H16R 3428   5.918  -0.227   6.291 -1.0210  0.8626 -1.3812
   27DOPE  H16S 3429   5.906  -0.394   6.219  1.5306 -1.4479  1.0121
   27DOPE  C217 3430   5.908  -0.235   6.082 -0.2059  0.2852  0.4727
   27DOPE  H17R 3431   5.801  -0.209   6.098 -0.1623  0.1705  0.9398
   27DOPE  H17S 3432   5.923  -0.307   5.998  0.4274 -0.9207  1.5827
   27DOPE  C218 3433   5.978  -0.105   6.037 -0.6147 -0.1291  0.0965
   27DOPE  H18R 3434   5.955  -0.029   6.115 -0.2332 -0.1876  0.2737
   27DOPE  H18S 3435   5.939  -0.075   5.938 -0.8294 -1.5558 -0.2769
   27DOPE  H18T 3436   6.089  -0.094   6.033 -0.5174  0.2471  2.4871
   27DOPE   C33 3437   6.035   0.180   7.109  0.0284 -0.8905  0.5695
   27DOPE   H3X 3438   6.053   0.222   7.008  0.2020  2.4070  1.8477
   27DOPE   H3Y 3439   6.057   0.264   7.179  2.0828  0.1202 -1.1974
   27DOPE   C34 3440   5.894   0.129   7.117  0.5430 -0.1594  0.4451
   27DOPE   H4X 3441   5.892   0.056   7.200  1.8335  0.1882  0.8012
   27DOPE   H4Y 3442   5.826   0.215   7.136  0.1902  1.0551 -4.7027
   27DOPE   C35 3443   5.835   0.084   6.980 -0.8573  0.7988  0.2609
   27DOPE   H5X 3444   5.896  -0.004   6.951  1.4643  2.1713  0.6288
   27DOPE   H5Y 3445   5.860   0.152   6.895 -0.2168  1.1456  0.7088
   27DOPE   C36 3446   5.680   0.056   6.983  0.0521 -0.1015  0.1178
   27DOPE   H6X 3447   5.642   0.155   7.015  0.0107 -0.1042  0.0757
   27DOPE   H6Y 3448   5.664  -0.027   7.055 -1.4257 -1.2347 -1.4355
   27DOPE   C37 3449   5.629   0.019   6.844  0.2415  0.1669  0.0957
   27DOPE   H7X 3450   5.702  -0.053   6.800 -1.6451 -0.3432 -2.4269
   27DOPE   H7Y 3451   5.530  -0.030   6.838 -0.1391  0.8506  0.7115
   27DOPE   C38 3452   5.623   0.136   6.747 -0.0526  0.2998  0.4794
   27DOPE   H8X 3453   5.591   0.086   6.653 -1.3811  0.0966  1.0069
   27DOPE   H8Y 3454   5.723   0.181   6.733  0.1490 -0.5874 -1.2508
   27DOPE   C39 3455   5.523   0.245   6.788  0.3749  0.7070  0.5490
   27DOPE   H9X 3456   5.440   0.220   6.856  0.6548  0.7260  0.8965
   27DOPE  C310 3457   5.535   0.373   6.758  0.3634 -0.2423  0.7009
   27DOPE  H10X 3458   5.452   0.440   6.783  3.1354  4.1660 -0.7097
   27DOPE  C311 3459   5.647   0.428   6.672 -0.0901 -0.1016  0.6549
   27DOPE  H11X 3460   5.649   0.537   6.692 -0.0618 -0.2169  1.3040
   27DOPE  H11Y 3461   5.750   0.389   6.688 -0.0604 -1.7159 -2.6485
   27DOPE  C312 3462   5.602   0.414   6.527 -0.3954  0.3592  0.1394
   27DOPE  H12X 3463   5.500   0.456   6.514 -0.5340 -0.6607 -2.8057
   27DOPE  H12Y 3464   5.599   0.306   6.502  3.0172 -0.0354  0.9088
   27DOPE  C313 3465   5.684   0.476   6.416 -0.4131 -0.1275 -0.2133
   27DOPE  H13X 3466   5.685   0.586   6.425  0.3743  0.0154 -1.7769
   27DOPE  H13Y 3467   5.793   0.454   6.419  0.2480  2.8435  2.2136
   27DOPE  C314 3468   5.629   0.449   6.275 -0.0717  0.2049  0.0984
   27DOPE  H14X 3469   5.540   0.512   6.255 -0.9039 -1.7872 -3.2896
   27DOPE  H14Y 3470   5.600   0.342   6.269 -2.5338  0.3997  4.3156
   27DOPE  C315 3471   5.729   0.490   6.166 -0.2154 -0.1894 -0.3536
   27DOPE  H15X 3472   5.819   0.427   6.183 -0.5993 -0.2116  1.7818
   27DOPE  H15Y 3473   5.759   0.596   6.179 -2.3672  0.4505 -0.1788
   27DOPE  C316 3474   5.692   0.474   6.020  0.3459  0.0539  0.2413
   27DOPE  H16X 3475   5.594   0.523   6.007  0.3226  0.5631  2.0494
   27DOPE  H16Y 3476   5.674   0.366   6.001  2.7322 -0.5494  1.0121
   27DOPE  C317 3477   5.786   0.521   5.913  0.7730  0.5756  0.2852
   27DOPE  H17X 3478   5.882   0.465   5.922  0.8821  0.8693  1.0699
   27DOPE  H17Y 3479   5.752   0.489   5.813  1.4747 -1.9018  0.7840
   27DOPE  C318 3480   5.814   0.671   5.906  0.5382 -0.1626 -0.2794
   27DOPE  H18X 3481   5.879   0.694   5.819  2.4769 -0.4441  1.0323
   27DOPE  H18Y 3482   5.724   0.730   5.879  2.5853  1.9361 -3.1317
   27DOPE  H18Z 3483   5.876   0.696   5.994  0.9958  0.1142 -0.6763
   28DOPE     N 3484   7.290   6.381   7.993  0.9279  0.1647  0.0440
   28DOPE   HN1 3485   7.389   6.373   7.960  1.2848  3.0096  0.1611
   28DOPE   HN2 3486   7.281   6.294   8.049 -0.6890  0.6078  0.5216
   28DOPE   HN3 3487   7.224   6.370   7.913 -0.0315 -4.4788  1.1731
   28DOPE   C12 3488   7.254   6.494   8.079 -0.3541  0.6210  0.0356
   28DOPE  H12A 3489   7.322   6.502   8.167  0.3766 -0.7213 -0.3811
   28DOPE  H12B 3490   7.151   6.482   8.117 -0.5067 -0.5345 -0.7048
   28DOPE   C11 3491   7.258   6.626   8.004 -0.2254 -0.4071 -0.3291
   28DOPE  H11A 3492   7.357   6.654   7.961  0.1873 -0.0274  0.8356
   28DOPE  H11B 3493   7.238   6.713   8.071 -0.5333  0.0641 -1.0247
   28DOPE     P 3494   7.189   6.690   7.753 -0.1678  0.1213  0.1022
   28DOPE   O13 3495   7.286   6.799   7.764  0.1607 -0.9219 -0.4930
   28DOPE   O14 3496   7.065   6.717   7.675  0.1785  0.4213  0.2706
   28DOPE   O11 3497   7.260   6.569   7.692 -0.0568  0.0376 -0.0116
   28DOPE   O12 3498   7.155   6.628   7.902  0.0498 -0.3345 -0.1885
   28DOPE    C1 3499   7.216   6.502   7.570  0.3765 -0.3140 -0.6396
   28DOPE    HA 3500   7.149   6.560   7.503 -2.1255 -0.3068  1.6791
   28DOPE    HB 3501   7.148   6.421   7.605 -1.6062  1.5959  0.2435
   28DOPE    C2 3502   7.337   6.436   7.489 -0.4998 -0.7084 -0.5622
   28DOPE    HS 3503   7.402   6.383   7.562  1.2062  1.8269 -0.1291
   28DOPE   O21 3504   7.417   6.548   7.431  0.3612  0.2272 -0.4898
   28DOPE   C21 3505   7.545   6.526   7.409  0.3666 -0.2623 -0.2579
   28DOPE   O22 3506   7.609   6.426   7.436  0.6625 -0.2926 -0.0059
   28DOPE   C22 3507   7.606   6.645   7.333  0.0965 -0.1171  0.1780
   28DOPE   H2R 3508   7.706   6.659   7.378 -0.5291 -0.8039  1.8516
   28DOPE   H2S 3509   7.554   6.742   7.338 -1.0227 -0.5607 -1.6350
   28DOPE    C3 3510   7.269   6.361   7.374  0.0879 -0.0688 -0.1205
   28DOPE    HX 3511   7.198   6.431   7.326 -0.0372  0.4717  0.8206
   28DOPE    HY 3512   7.207   6.275   7.410  1.2640 -1.2932 -0.9006
   28DOPE   O31 3513   7.359   6.320   7.272 -0.4394 -0.8294  1.2002
   28DOPE   C31 3514   7.403   6.197   7.284 -0.0416 -0.4611 -0.3286
   28DOPE   O32 3515   7.378   6.123   7.377 -0.2579  0.6110 -0.0181
   28DOPE   C32 3516   7.510   6.172   7.178  0.0349 -0.2396  0.1405
   28DOPE   H2X 3517   7.464   6.208   7.084 -1.8008 -0.4200  0.9200
   28DOPE   H2Y 3518   7.601   6.232   7.194  0.4184 -0.4348 -1.2272
   28DOPE   C23 3519   7.629   6.612   7.182 -0.9027 -0.2701  0.1489
   28DOPE   H3R 3520   7.526   6.620   7.140 -0.1960  0.6600 -1.5127
   28DOPE   H3S 3521   7.666   6.508   7.170  1.4676  0.5785 -0.4570
   28DOPE   C24 3522   7.738   6.700   7.117 -0.2175 -0.1495 -0.5152
   28DOPE   H4R 3523   7.843   6.674   7.142 -0.4151 -1.4363 -0.9930
   28DOPE   H4S 3524   7.725   6.804   7.155  0.4060 -0.9000  1.8973
   28DOPE   C25 3525   7.732   6.686   6.964 -0.0144 -0.0927 -0.2280
   28DOPE   H5R 3526   7.629   6.720   6.940  0.0383 -0.2641 -0.6971
   28DOPE   H5S 3527   7.739   6.579   6.934  1.0643  0.3797 -1.7777
   28DOPE   C26 3528   7.841   6.770   6.898  0.0050  0.0330 -0.1476
   28DOPE   H6R 3529   7.939   6.742   6.943 -0.1149 -1.8737 -0.9615
   28DOPE   H6S 3530   7.811   6.875   6.917  1.9980  0.6519 -0.1980
   28DOPE   C27 3531   7.862   6.746   6.746 -0.5573 -0.5938 -0.1470
   28DOPE   H7R 3532   7.847   6.642   6.710 -1.1430 -0.3572 -0.5914
   28DOPE   H7S 3533   7.963   6.786   6.721 -1.1615  0.4642 -0.9470
   28DOPE   C28 3534   7.767   6.841   6.667 -0.8231 -0.2038 -0.7079
   28DOPE   H8R 3535   7.796   6.942   6.701 -0.1987 -0.5209 -0.2636
   28DOPE   H8S 3536   7.661   6.821   6.690 -0.4478 -0.6600  0.7588
   28DOPE   C29 3537   7.799   6.814   6.521  0.1861 -0.1524 -0.7815
   28DOPE   H9R 3538   7.865   6.890   6.475  0.2751  0.2096 -0.0625
   28DOPE  C210 3539   7.767   6.704   6.441  0.3478 -0.2391 -0.2042
   28DOPE  H10R 3540   7.801   6.706   6.336  3.0031  1.3671  0.5764
   28DOPE  C211 3541   7.686   6.586   6.482 -0.4471 -0.4851  0.8536
   28DOPE  H11R 3542   7.628   6.604   6.575 -0.1447  1.2812  0.7363
   28DOPE  H11S 3543   7.749   6.497   6.504 -0.1124  0.0292  2.0408
   28DOPE  C212 3544   7.583   6.552   6.368  0.3457 -0.0854  0.1848
   28DOPE  H12R 3545   7.530   6.648   6.351 -0.3149 -0.4172  0.3270
   28DOPE  H12S 3546   7.513   6.482   6.419  2.3280 -0.5290  2.4602
   28DOPE  C213 3547   7.646   6.503   6.244  0.4814  0.0039  0.5541
   28DOPE  H13R 3548   7.682   6.399   6.261 -2.1992 -1.4651 -1.8300
   28DOPE  H13S 3549   7.735   6.560   6.209 -0.0459  1.6436  1.7813
   28DOPE  C214 3550   7.552   6.491   6.121 -0.1487  0.3677  0.3099
   28DOPE  H14R 3551   7.500   6.589   6.118  0.6341  0.8319  1.3940
   28DOPE  H14S 3552   7.483   6.405   6.111  1.7246 -1.3439  1.3564
   28DOPE  C215 3553   7.639   6.489   5.993 -0.3316 -0.8647  0.1189
   28DOPE  H15R 3554   7.711   6.573   5.982 -1.3240  0.0055  0.0460
   28DOPE  H15S 3555   7.575   6.473   5.904 -1.5767 -1.4172  1.0792
   28DOPE  C216 3556   7.736   6.367   5.982 -0.6815 -0.1988  0.2516
   28DOPE  H16R 3557   7.683   6.271   5.970  0.6712 -0.7769 -1.4712
   28DOPE  H16S 3558   7.797   6.349   6.073 -0.8122 -3.8407 -0.2430
   28DOPE  C217 3559   7.827   6.370   5.854  0.2753  0.8960  0.7206
   28DOPE  H17R 3560   7.874   6.470   5.866  1.3297  0.1580  3.3605
   28DOPE  H17S 3561   7.766   6.372   5.761  0.5946  0.9033  0.5064
   28DOPE  C218 3562   7.932   6.262   5.826 -0.5820  0.4749  0.2903
   28DOPE  H18R 3563   7.999   6.305   5.748 -2.7086  1.4512 -1.0764
   28DOPE  H18S 3564   7.880   6.172   5.786 -0.7126  1.2667 -1.4055
   28DOPE  H18T 3565   7.977   6.236   5.924 -2.6336 -0.8289  0.9524
   28DOPE   C33 3566   7.549   6.027   7.146 -0.4835  0.1348 -0.9373
   28DOPE   H3X 3567   7.594   5.981   7.237  1.5555  2.2383 -0.7996
   28DOPE   H3Y 3568   7.630   6.035   7.071 -1.4462  0.8180 -1.9295
   28DOPE   C34 3569   7.439   5.948   7.082 -0.0253 -0.0761  0.2112
   28DOPE   H4X 3570   7.363   5.935   7.162  1.0761  2.4943  1.8216
   28DOPE   H4Y 3571   7.386   6.001   7.000  1.4460  1.0820 -0.0450
   28DOPE   C35 3572   7.484   5.810   7.031 -0.6137 -0.2590  0.5994
   28DOPE   H5X 3573   7.522   5.758   7.121  1.2104  0.0573  0.0565
   28DOPE   H5Y 3574   7.569   5.817   6.960 -0.7636  2.1808  0.5707
   28DOPE   C36 3575   7.363   5.738   6.965  0.4462  0.1047  0.7147
   28DOPE   H6X 3576   7.268   5.742   7.023 -0.9216 -2.3479 -1.1578
   28DOPE   H6Y 3577   7.383   5.629   6.955  1.0976  0.3232 -0.5625
   28DOPE   C37 3578   7.328   5.774   6.822 -0.1531 -0.0155 -0.1167
   28DOPE   H7X 3579   7.282   5.875   6.820  3.0552  1.5637 -1.4636
   28DOPE   H7Y 3580   7.421   5.792   6.763  0.4774  2.1908  1.4117
   28DOPE   C38 3581   7.227   5.673   6.758  0.0054 -0.1109  0.1113
   28DOPE   H8X 3582   7.129   5.659   6.808  0.3321 -0.8060  0.5732
   28DOPE   H8Y 3583   7.276   5.573   6.768  1.3141  0.4123 -0.7568
   28DOPE   C39 3584   7.204   5.698   6.611 -0.2758  0.3063  0.2334
   28DOPE   H9X 3585   7.122   5.768   6.590  0.6613  1.0565 -1.0584
   28DOPE  C310 3586   7.283   5.664   6.505  0.3302  0.3179 -0.5212
   28DOPE  H10X 3587   7.253   5.709   6.409 -1.6587  2.2331  0.9187
   28DOPE  C311 3588   7.415   5.590   6.514  0.5652  0.1534 -0.2842
   28DOPE  H11X 3589   7.442   5.548   6.613  1.1668 -0.7869 -0.8269
   28DOPE  H11Y 3590   7.408   5.512   6.435 -2.5195 -0.6573  0.6726
   28DOPE  C312 3591   7.537   5.687   6.501  0.2570  0.4293  0.1241
   28DOPE  H12X 3592   7.548   5.758   6.586  1.1172  2.7205 -1.8016
   28DOPE  H12Y 3593   7.522   5.746   6.408  0.3094 -1.4316 -1.1262
   28DOPE  C313 3594   7.665   5.602   6.488  0.0250 -0.2485  0.4667
   28DOPE  H13X 3595   7.751   5.670   6.502  0.8059 -0.6206 -1.9996
   28DOPE  H13Y 3596   7.660   5.516   6.558 -1.2646 -1.9304 -1.5503
   28DOPE  C314 3597   7.685   5.537   6.349  0.0193 -0.1815 -0.3618
   28DOPE  H14X 3598   7.704   5.613   6.271  0.0859  1.0016  0.7804
   28DOPE  H14Y 3599   7.599   5.470   6.327  0.8649 -1.9129  1.2582
   28DOPE  C315 3600   7.805   5.437   6.356 -0.5201 -1.1435  0.7302
   28DOPE  H15X 3601   7.783   5.350   6.422 -1.4239 -1.8743 -0.4771
   28DOPE  H15Y 3602   7.885   5.502   6.397 -1.4487 -0.3539  1.3378
   28DOPE  C316 3603   7.844   5.376   6.223  0.4537 -0.5362 -0.3866
   28DOPE  H16X 3604   7.805   5.272   6.227  1.5384 -0.9093  1.2140
   28DOPE  H16Y 3605   7.951   5.348   6.217  0.4440 -0.5607 -0.4604
   28DOPE  C317 3606   7.811   5.449   6.089 -0.1309  0.2484 -0.3965
   28DOPE  H17X 3607   7.702   5.441   6.072 -0.2558 -0.2196  0.5589
   28DOPE  H17Y 3608   7.842   5.553   6.110 -0.1425  0.3405 -0.8341
   28DOPE  C318 3609   7.894   5.386   5.981  0.6045  0.3458 -0.3497
   28DOPE  H18X 3610   7.868   5.433   5.883  2.1841  1.0527 -0.4595
   28DOPE  H18Y 3611   8.003   5.396   5.999  0.4287 -0.5807  1.3777
   28DOPE  H18Z 3612   7.875   5.277   5.973  2.4884  0.0686 -1.7689
   29DOPE     N 3613   0.461   0.853   7.325  0.3006  0.5765  0.4027
   29DOPE   HN1 3614   0.469   0.865   7.428  0.2535  0.6218  0.4013
   29DOPE   HN2 3615   0.533   0.915   7.283  2.2035 -2.4950 -1.3193
   29DOPE   HN3 3616   0.361   0.880   7.315 -0.6019 -1.3487  3.0689
   29DOPE   C12 3617   0.481   0.704   7.294 -0.6993  0.3427  1.0433
   29DOPE  H12A 3618   0.512   0.654   7.388 -0.2717 -1.4312  0.0026
   29DOPE  H12B 3619   0.572   0.701   7.231 -1.6698  2.4034 -0.5747
   29DOPE   C11 3620   0.356   0.647   7.230  0.2311  0.0167  0.0690
   29DOPE  H11A 3621   0.376   0.546   7.188 -1.5170 -0.9470  1.4544
   29DOPE  H11B 3622   0.332   0.703   7.137 -0.3394 -2.0981 -1.1095
   29DOPE     P 3623   0.129   0.747   7.315 -0.0847  0.1255  0.3119
   29DOPE   O13 3624   0.193   0.875   7.281 -0.5651  0.0752  0.1885
   29DOPE   O14 3625   0.056   0.742   7.439  0.4599 -0.2761 -0.5561
   29DOPE   O11 3626   0.045   0.697   7.196 -0.1946  0.5300  0.7153
   29DOPE   O12 3627   0.246   0.642   7.326 -0.2644  0.2225  0.4298
   29DOPE    C1 3628   0.012   0.560   7.192 -0.2535 -0.9668 -0.0304
   29DOPE    HA 3629  -0.023   0.517   7.288 -0.2991  1.2551  0.9967
   29DOPE    HB 3630   0.104   0.499   7.178  1.1822  0.7065  1.5575
   29DOPE    C2 3631  -0.086   0.519   7.073  0.0142 -0.0133 -0.6930
   29DOPE    HS 3632  -0.112   0.412   7.085  0.2708  0.0677  0.7263
   29DOPE   O21 3633  -0.036   0.564   6.941 -0.2236  0.2355  0.9140
   29DOPE   C21 3634   0.045   0.469   6.894  0.2621  0.1131  0.2046
   29DOPE   O22 3635   0.082   0.374   6.950 -0.3069  0.6868  0.0105
   29DOPE   C22 3636   0.080   0.507   6.750 -0.7257 -0.2131 -0.6267
   29DOPE   H2R 3637   0.182   0.550   6.754 -1.2140  1.0749 -1.4099
   29DOPE   H2S 3638   0.016   0.584   6.703 -0.4807  0.5721  0.2894
   29DOPE    C3 3639  -0.228   0.586   7.089 -0.1667  0.3741 -0.4768
   29DOPE    HX 3640  -0.211   0.694   7.069  1.8503  0.5167  1.6138
   29DOPE    HY 3641  -0.252   0.578   7.197 -0.8198 -4.0339 -0.7389
   29DOPE   O31 3642  -0.329   0.525   6.999  0.3674  0.5199  0.6664
   29DOPE   C31 3643  -0.376   0.409   7.046  0.0144 -0.2882  0.5816
   29DOPE   O32 3644  -0.362   0.369   7.161  0.1694 -0.1516  0.0407
   29DOPE   C32 3645  -0.438   0.319   6.938 -0.1283  0.6240 -0.1037
   29DOPE   H2X 3646  -0.422   0.212   6.959 -1.4225 -0.2966 -3.1859
   29DOPE   H2Y 3647  -0.544   0.353   6.941 -0.2876  0.0867  2.8344
   29DOPE   C23 3648   0.081   0.383   6.660  0.2518 -0.4986  0.2491
   29DOPE   H3R 3649  -0.026   0.363   6.637  0.0285  1.9416 -1.1776
   29DOPE   H3S 3650   0.124   0.291   6.706  0.3477 -1.0667 -0.9221
   29DOPE   C24 3651   0.151   0.400   6.518  0.2691 -0.3924  0.0276
   29DOPE   H4R 3652   0.187   0.303   6.477 -1.0911 -0.2167 -1.7073
   29DOPE   H4S 3653   0.241   0.461   6.543 -0.2216  0.0183  0.8031
   29DOPE   C25 3654   0.052   0.453   6.410  0.4569 -0.8056 -0.3643
   29DOPE   H5R 3655   0.018   0.556   6.436  0.7043 -0.0667 -2.7308
   29DOPE   H5S 3656  -0.037   0.387   6.413  0.3775 -0.6924 -0.2301
   29DOPE   C26 3657   0.114   0.458   6.266 -0.6038  0.1959 -0.7225
   29DOPE   H6R 3658   0.128   0.356   6.223  0.9811 -0.5431  1.3563
   29DOPE   H6S 3659   0.212   0.510   6.269  0.4228 -1.6779  1.3198
   29DOPE   C27 3660   0.022   0.526   6.164 -0.1852  0.4612  0.6769
   29DOPE   H7R 3661   0.025   0.631   6.200  0.5688  1.2189 -1.4381
   29DOPE   H7S 3662  -0.082   0.492   6.148  0.2432  0.0533 -1.5809
   29DOPE   C28 3663   0.108   0.538   6.033 -0.1924 -0.3737 -0.0546
   29DOPE   H8R 3664   0.181   0.454   6.029  1.4561  1.0494 -2.3682
   29DOPE   H8S 3665   0.174   0.627   6.047 -0.2950  0.1922 -2.6339
   29DOPE   C29 3666   0.031   0.563   5.904 -0.5544  0.7407  0.2960
   29DOPE   H9R 3667   0.055   0.663   5.867 -0.9427  1.2820  1.4646
   29DOPE  C210 3668  -0.072   0.487   5.854 -0.0441 -0.3451 -0.5531
   29DOPE  H10R 3669  -0.111   0.510   5.753  1.6035  2.1663 -0.7006
   29DOPE  C211 3670  -0.116   0.358   5.915 -0.1293 -0.0942  0.1505
   29DOPE  H11R 3671  -0.214   0.367   5.966  0.6786 -0.0957  1.7747
   29DOPE  H11S 3672  -0.041   0.311   5.982  0.4728  0.9649  0.2434
   29DOPE  C212 3673  -0.146   0.255   5.801 -0.5366  0.3206 -0.4797
   29DOPE  H12R 3674  -0.125   0.156   5.848  1.9806 -0.1679 -2.4431
   29DOPE  H12S 3675  -0.068   0.269   5.724 -1.3528 -3.1811 -2.1639
   29DOPE  C213 3676  -0.290   0.256   5.735  0.7314 -0.1610 -0.7804
   29DOPE  H13R 3677  -0.294   0.362   5.703 -2.3535 -0.1672 -0.6555
   29DOPE  H13S 3678  -0.361   0.242   5.819 -0.3420 -0.7177 -1.7561
   29DOPE  C214 3679  -0.317   0.161   5.621 -0.2627  0.0160 -0.6015
   29DOPE  H14R 3680  -0.418   0.195   5.590  0.0339  2.7837  1.0631
   29DOPE  H14S 3681  -0.317   0.055   5.652 -0.0465  0.3067  0.4527
   29DOPE  C215 3682  -0.222   0.176   5.507  0.6732 -0.4405 -0.1445
   29DOPE  H15R 3683  -0.120   0.156   5.545 -0.4814 -0.9220  3.0829
   29DOPE  H15S 3684  -0.215   0.281   5.470  1.0742  0.1017  1.3581
   29DOPE  C216 3685  -0.267   0.090   5.387 -0.3448 -0.0600  0.6113
   29DOPE  H16R 3686  -0.373   0.114   5.363  0.7399  1.6712 -3.1285
   29DOPE  H16S 3687  -0.257  -0.017   5.415  1.5229 -0.3663 -0.9796
   29DOPE  C217 3688  -0.174   0.128   5.274 -0.2755 -0.2776  0.7498
   29DOPE  H17R 3689  -0.071   0.118   5.314  0.1051 -1.2284 -0.4261
   29DOPE  H17S 3690  -0.173   0.237   5.251 -0.3577 -0.4621 -0.1324
   29DOPE  C218 3691  -0.196   0.052   5.139  0.0085  0.2365  0.5719
   29DOPE  H18R 3692  -0.122   0.086   5.064 -1.1821 -1.4361 -1.4717
   29DOPE  H18S 3693  -0.292   0.077   5.088  0.5845 -0.5076 -0.9176
   29DOPE  H18T 3694  -0.178  -0.057   5.143 -0.6927  0.0505 -0.7099
   29DOPE   C33 3695  -0.372   0.346   6.801 -0.1125  0.1348 -0.0153
   29DOPE   H3X 3696  -0.261   0.341   6.806 -0.1910 -0.5908  1.7364
   29DOPE   H3Y 3697  -0.404   0.447   6.768  3.5995  0.6686 -2.6973
   29DOPE   C34 3698  -0.418   0.240   6.698 -0.5708  0.1881 -0.3930
   29DOPE   H4X 3699  -0.356   0.150   6.713 -1.5207 -0.4692 -0.3128
   29DOPE   H4Y 3700  -0.527   0.219   6.708 -0.5378 -0.5865 -1.4968
   29DOPE   C35 3701  -0.408   0.291   6.551  0.7022  0.1850 -0.0766
   29DOPE   H5X 3702  -0.304   0.319   6.523  0.5679 -0.3920 -1.1960
   29DOPE   H5Y 3703  -0.462   0.388   6.554 -1.5995 -1.0359  2.3585
   29DOPE   C36 3704  -0.460   0.189   6.449  0.3089 -0.6341 -0.3934
   29DOPE   H6X 3705  -0.548   0.133   6.487  1.1153 -1.4628  0.3206
   29DOPE   H6Y 3706  -0.391   0.101   6.451 -0.2069 -1.0379  0.0353
   29DOPE   C37 3707  -0.474   0.257   6.307 -0.4067  0.3695 -0.6914
   29DOPE   H7X 3708  -0.553   0.334   6.322  0.5226  1.2689 -0.2993
   29DOPE   H7Y 3709  -0.378   0.309   6.286 -0.4275  1.3885  1.5171
   29DOPE   C38 3710  -0.501   0.154   6.194  0.2188  0.2589 -0.4866
   29DOPE   H8X 3711  -0.603   0.113   6.209 -0.0276  0.0281 -2.5176
   29DOPE   H8Y 3712  -0.432   0.067   6.198  0.9824  0.9169  2.1310
   29DOPE   C39 3713  -0.515   0.225   6.061  0.5935  0.0004 -0.2976
   29DOPE   H9X 3714  -0.422   0.274   6.029  3.1202 -3.1182  1.7509
   29DOPE  C310 3715  -0.620   0.225   5.979 -0.0128 -0.4647 -0.2140
   29DOPE  H10X 3716  -0.622   0.280   5.884 -0.5625  1.5096  0.8933
   29DOPE  C311 3717  -0.741   0.144   6.002 -0.4447  0.2396  1.2217
   29DOPE  H11X 3718  -0.782   0.169   6.102 -0.4010  0.7089  1.1276
   29DOPE  H11Y 3719  -0.821   0.178   5.932  1.0046 -2.1747 -1.8742
   29DOPE  C312 3720  -0.707  -0.005   5.969  0.9936 -0.5077  0.0984
   29DOPE  H12X 3721  -0.739  -0.067   6.055 -2.3926  1.1929  0.2423
   29DOPE  H12Y 3722  -0.597  -0.014   5.958  1.2991  0.3609  1.9540
   29DOPE  C313 3723  -0.763  -0.044   5.833 -0.0631  0.7102  0.2354
   29DOPE  H13X 3724  -0.751  -0.151   5.806  0.6998  1.6209 -3.6072
   29DOPE  H13Y 3725  -0.864  -0.003   5.811 -0.4229 -1.1792 -2.1344
   29DOPE  C314 3726  -0.671   0.019   5.722  0.0246 -0.1072 -0.2558
   29DOPE  H14X 3727  -0.570  -0.025   5.733 -0.0419 -0.9364 -2.4782
   29DOPE  H14Y 3728  -0.654   0.128   5.723  1.5314 -0.3250  0.7807
   29DOPE  C315 3729  -0.737  -0.007   5.585  0.0917 -0.1643 -0.1969
   29DOPE  H15X 3730  -0.812   0.074   5.574  0.7318  0.9365  2.5161
   29DOPE  H15Y 3731  -0.792  -0.103   5.580  0.9436 -0.6390 -0.6101
   29DOPE  C316 3732  -0.644   0.006   5.463 -0.5902 -0.0925 -0.5950
   29DOPE  H16X 3733  -0.551  -0.044   5.497 -1.3845 -0.8508  0.5246
   29DOPE  H16Y 3734  -0.617   0.112   5.441  1.6148  0.1230  2.4656
   29DOPE  C317 3735  -0.705  -0.062   5.342 -0.1371 -0.2556  0.9733
   29DOPE  H17X 3736  -0.728  -0.168   5.364  2.8070 -1.2599 -0.2772
   29DOPE  H17Y 3737  -0.792  -0.005   5.302  0.7868 -0.4956 -1.5540
   29DOPE  C318 3738  -0.599  -0.064   5.223 -0.0255 -0.7429  0.4280
   29DOPE  H18X 3739  -0.629  -0.136   5.143 -0.7741 -1.5366  1.3909
   29DOPE  H18Y 3740  -0.603   0.027   5.160 -3.4480 -1.0349 -0.0015
   29DOPE  H18Z 3741  -0.498  -0.078   5.267 -0.5817 -1.7991  1.4512
   30DOPE     N 3742   1.012   6.703   7.439  0.4991 -0.1127  0.9008
   30DOPE   HN1 3743   0.973   6.613   7.406 -4.3489  2.2668 -0.8857
   30DOPE   HN2 3744   0.942   6.777   7.417 -0.6870 -1.3014  0.5960
   30DOPE   HN3 3745   1.095   6.736   7.385 -0.6571  1.9471  0.2488
   30DOPE   C12 3746   1.041   6.692   7.581 -0.4450 -0.1994 -0.3727
   30DOPE  H12A 3747   1.058   6.792   7.628 -0.0188 -0.2835 -0.3471
   30DOPE  H12B 3748   1.131   6.627   7.575 -1.4044 -1.4874 -1.0336
   30DOPE   C11 3749   0.923   6.630   7.662  0.3578 -0.0931  0.7803
   30DOPE  H11A 3750   0.853   6.713   7.684 -0.7360 -0.3573 -1.4439
   30DOPE  H11B 3751   0.953   6.586   7.760 -0.2207  0.6901  1.3244
   30DOPE     P 3752   0.716   6.492   7.545  0.0390 -0.5065 -0.0574
   30DOPE   O13 3753   0.630   6.459   7.661  0.1158  0.4701 -0.1571
   30DOPE   O14 3754   0.722   6.400   7.428 -0.2012 -0.0167 -0.3229
   30DOPE   O11 3755   0.672   6.635   7.485  0.0661  0.6077  0.3242
   30DOPE   O12 3756   0.864   6.521   7.592  0.2452  0.4661  0.3188
   30DOPE    C1 3757   0.563   6.702   7.537  0.8050 -0.7149 -0.8110
   30DOPE    HA 3758   0.591   6.773   7.618  0.9196 -1.3447 -0.2942
   30DOPE    HB 3759   0.489   6.640   7.591  0.6787  0.2772  0.1949
   30DOPE    C2 3760   0.493   6.784   7.430  0.5769  0.5357 -0.0933
   30DOPE    HS 3761   0.398   6.829   7.468  0.0648  1.2554 -2.0936
   30DOPE   O21 3762   0.473   6.692   7.319 -0.4010  0.0564 -0.4703
   30DOPE   C21 3763   0.372   6.614   7.338  0.2136 -0.5001 -0.0028
   30DOPE   O22 3764   0.295   6.619   7.431  0.2176  0.1047 -0.7231
   30DOPE   C22 3765   0.373   6.516   7.220  0.4015  0.6165  0.2879
   30DOPE   H2R 3766   0.476   6.473   7.218  0.0789 -0.1795 -0.9857
   30DOPE   H2S 3767   0.360   6.571   7.124 -3.4399  3.0180  1.9520
   30DOPE    C3 3768   0.581   6.905   7.380 -0.1160  0.3714  0.2367
   30DOPE    HX 3769   0.673   6.864   7.334  1.3783  2.5043  1.1769
   30DOPE    HY 3770   0.611   6.979   7.458  4.0472  1.0531 -1.7586
   30DOPE   O31 3771   0.529   6.974   7.264 -0.1375  0.1603 -0.3463
   30DOPE   C31 3772   0.438   7.067   7.295 -0.2763  0.4482  0.2820
   30DOPE   O32 3773   0.391   7.090   7.407 -0.6670  0.1745  0.3696
   30DOPE   C32 3774   0.394   7.128   7.165 -0.2041  0.2597  0.5205
   30DOPE   H2X 3775   0.358   7.232   7.179  0.1189  0.4885 -0.3116
   30DOPE   H2Y 3776   0.482   7.131   7.098 -1.6687  1.2828 -1.4418
   30DOPE   C23 3777   0.280   6.394   7.238 -0.4678  0.3594 -0.0749
   30DOPE   H3R 3778   0.173   6.423   7.234 -1.0142 -1.5385 -0.2037
   30DOPE   H3S 3779   0.293   6.336   7.332  2.0984 -0.6775 -0.9988
   30DOPE   C24 3780   0.292   6.289   7.119  0.3864 -0.0197  0.2483
   30DOPE   H4R 3781   0.262   6.186   7.146 -0.7020  0.6265  1.6525
   30DOPE   H4S 3782   0.397   6.275   7.085  0.1244  0.6565 -0.8823
   30DOPE   C25 3783   0.209   6.333   6.996  0.4207 -0.0126  0.0171
   30DOPE   H5R 3784   0.235   6.441   6.986 -0.0624  0.1478  0.4342
   30DOPE   H5S 3785   0.104   6.333   7.032  0.1163  0.2935 -0.8516
   30DOPE   C26 3786   0.221   6.230   6.872 -0.2162  0.1844 -0.1476
   30DOPE   H6R 3787   0.175   6.137   6.911 -0.8692 -0.0556 -1.4365
   30DOPE   H6S 3788   0.329   6.210   6.853 -0.0845 -1.6765  2.1332
   30DOPE   C27 3789   0.155   6.277   6.742 -0.3167 -0.1131  0.5592
   30DOPE   H7R 3790   0.174   6.203   6.662 -0.8845  0.1049  0.2201
   30DOPE   H7S 3791   0.195   6.376   6.709  0.9641 -0.9291 -0.4256
   30DOPE   C28 3792  -0.005   6.285   6.742 -1.0452  0.3659  0.5016
   30DOPE   H8R 3793  -0.029   6.324   6.640  0.6622  0.5602  0.1384
   30DOPE   H8S 3794  -0.033   6.354   6.825 -1.2538  0.0664  0.6808
   30DOPE   C29 3795  -0.073   6.152   6.755 -0.3110  0.0497  0.0649
   30DOPE   H9R 3796  -0.062   6.116   6.858  0.3436 -1.8061 -0.6175
   30DOPE  C210 3797  -0.117   6.071   6.654  0.4404  0.3435  0.0469
   30DOPE  H10R 3798  -0.165   5.979   6.690 -0.4206  0.1366 -1.5223
   30DOPE  C211 3799  -0.107   6.099   6.513 -0.4688 -0.0317 -0.6866
   30DOPE  H11R 3800  -0.075   6.201   6.482  1.8023 -0.6575 -0.5771
   30DOPE  H11S 3801  -0.205   6.071   6.469 -1.2209  0.0722  0.8950
   30DOPE  C212 3802   0.005   6.013   6.442  0.4638 -0.1964 -0.9242
   30DOPE  H12R 3803  -0.029   5.911   6.471  0.2705 -0.3221 -1.5803
   30DOPE  H12S 3804   0.110   6.024   6.474  0.4981 -2.8228  0.1473
   30DOPE  C213 3805   0.015   6.016   6.285  0.1741 -0.4546  0.3309
   30DOPE  H13R 3806   0.048   6.121   6.268  1.3733 -0.8535  0.1209
   30DOPE  H13S 3807  -0.091   5.999   6.258  0.6637 -1.7820 -0.8695
   30DOPE  C214 3808   0.109   5.926   6.218 -0.4666  0.4318  0.6830
   30DOPE  H14R 3809   0.079   5.823   6.247 -1.5027  0.0051 -1.6947
   30DOPE  H14S 3810   0.215   5.946   6.246  0.1620 -0.4233 -0.9645
   30DOPE  C215 3811   0.103   5.936   6.066 -0.4096  1.0417  0.0846
   30DOPE  H15R 3812   0.135   6.038   6.038  0.9231  0.8496  0.8251
   30DOPE  H15S 3813   0.004   5.910   6.022 -0.3601  2.0170 -0.6173
   30DOPE  C216 3814   0.210   5.841   6.004  0.2138 -0.0282  0.3239
   30DOPE  H16R 3815   0.181   5.740   6.039 -2.0631  0.0317 -1.1396
   30DOPE  H16S 3816   0.314   5.876   6.016  0.2053  0.0522  0.1649
   30DOPE  C217 3817   0.181   5.841   5.851 -1.3482 -0.3761 -0.2879
   30DOPE  H17R 3818   0.227   5.933   5.809  2.5765 -2.1984 -0.4949
   30DOPE  H17S 3819   0.072   5.838   5.828 -1.6437 -0.1345  0.9885
   30DOPE  C218 3820   0.258   5.728   5.776 -0.8575  0.5595  0.0688
   30DOPE  H18R 3821   0.242   5.742   5.667 -0.7812 -0.5768 -0.0944
   30DOPE  H18S 3822   0.218   5.631   5.814 -0.2609 -0.4904 -1.8723
   30DOPE  H18T 3823   0.367   5.735   5.796 -0.9630 -0.5855  1.1301
   30DOPE   C33 3824   0.270   7.058   7.102  0.4472 -0.6283  0.1701
   30DOPE   H3X 3825   0.193   7.051   7.181 -2.0634  0.2687 -2.0498
   30DOPE   H3Y 3826   0.293   6.962   7.051  1.1672 -1.6436  2.3086
   30DOPE   C34 3827   0.217   7.156   6.993  0.0371 -0.0025  0.4977
   30DOPE   H4X 3828   0.132   7.099   6.951 -0.6830  1.4918 -0.1642
   30DOPE   H4Y 3829   0.173   7.251   7.031 -1.6515 -0.1722 -0.9381
   30DOPE   C35 3830   0.322   7.188   6.885 -0.1901  0.5074  0.3430
   30DOPE   H5X 3831   0.351   7.092   6.837  1.6334  0.4898  1.4004
   30DOPE   H5Y 3832   0.409   7.238   6.933  0.0298 -0.7926  1.3737
   30DOPE   C36 3833   0.251   7.275   6.781  0.0990 -0.0533  1.3418
   30DOPE   H6X 3834   0.215   7.367   6.831 -1.5092 -1.4175  2.8000
   30DOPE   H6Y 3835   0.155   7.228   6.752  1.0165 -0.5845 -1.0501
   30DOPE   C37 3836   0.343   7.297   6.656  0.1311  0.2977 -0.4498
   30DOPE   H7X 3837   0.433   7.333   6.710  0.1775 -1.1036  0.4603
   30DOPE   H7Y 3838   0.364   7.198   6.609 -1.9122 -0.9889  1.1274
   30DOPE   C38 3839   0.298   7.400   6.554  0.0231  0.8014 -0.0164
   30DOPE   H8X 3840   0.248   7.475   6.619  1.2325 -0.7632  2.9196
   30DOPE   H8Y 3841   0.214   7.354   6.498  0.6929 -0.8623  0.2761
   30DOPE   C39 3842   0.405   7.468   6.478 -0.3946  0.1429 -0.4787
   30DOPE   H9X 3843   0.472   7.528   6.542 -2.4014  1.1906  0.7514
   30DOPE  C310 3844   0.426   7.476   6.346 -0.0319 -0.4334  0.1133
   30DOPE  H10X 3845   0.502   7.549   6.314  0.4441 -1.4459 -1.1359
   30DOPE  C311 3846   0.322   7.426   6.246  0.3708 -0.3421 -0.0686
   30DOPE  H11X 3847   0.221   7.409   6.288 -0.1231 -2.0698 -1.8173
   30DOPE  H11Y 3848   0.309   7.498   6.163  2.9318  1.1908  0.7103
   30DOPE  C312 3849   0.358   7.294   6.175 -0.4941 -0.2622 -0.3555
   30DOPE  H12X 3850   0.267   7.242   6.137 -0.9859  0.5632 -0.3351
   30DOPE  H12Y 3851   0.415   7.225   6.241 -1.1809 -2.1214 -1.5938
   30DOPE  C313 3852   0.439   7.314   6.048 -0.2110  0.2528 -0.0345
   30DOPE  H13X 3853   0.362   7.369   5.991 -0.5218  0.7016  0.7953
   30DOPE  H13Y 3854   0.521   7.386   6.067  0.1492 -0.1228 -0.1399
   30DOPE  C314 3855   0.475   7.185   5.983 -0.2066  0.5492 -0.9634
   30DOPE  H14X 3856   0.403   7.103   6.006  0.1614  0.8425  1.4398
   30DOPE  H14Y 3857   0.572   7.157   6.028 -0.1521  1.3728 -0.5409
   30DOPE  C315 3858   0.491   7.189   5.828  0.3228 -0.4223  0.5917
   30DOPE  H15X 3859   0.524   7.087   5.801 -1.1488 -1.1534  1.4238
   30DOPE  H15Y 3860   0.566   7.263   5.795 -1.6081  0.7960 -1.3686
   30DOPE  C316 3861   0.360   7.235   5.753 -0.2988 -0.4492 -0.6437
   30DOPE  H16X 3862   0.318   7.332   5.786 -0.6952 -0.6516 -0.5401
   30DOPE  H16Y 3863   0.287   7.154   5.774  0.7905 -1.3724 -0.2821
   30DOPE  C317 3864   0.395   7.247   5.602  0.5702  0.1313 -0.4770
   30DOPE  H17X 3865   0.298   7.272   5.554  0.7008 -1.0269 -1.3772
   30DOPE  H17Y 3866   0.468   7.331   5.591  0.5161  0.4529  1.3389
   30DOPE  C318 3867   0.443   7.118   5.531  0.3323  0.9356 -0.1736
   30DOPE  H18X 3868   0.551   7.097   5.544 -0.5788 -4.0517  1.2688
   30DOPE  H18Y 3869   0.392   7.028   5.570  0.0254  1.4612  0.6733
   30DOPE  H18Z 3870   0.432   7.127   5.421  1.0286 -0.3593 -0.3629
   31DOPE     N 3871   3.102   2.899   2.886  0.2841  0.2505 -0.1075
   31DOPE   HN1 3872   3.168   2.901   2.806  2.7669  1.6450  1.8324
   31DOPE   HN2 3873   3.089   2.799   2.912 -0.9902  0.1571 -0.9772
   31DOPE   HN3 3874   3.016   2.945   2.848  0.4156 -0.4789 -1.3390
   31DOPE   C12 3875   3.156   2.984   2.996 -0.1067 -0.0711  0.1075
   31DOPE  H12A 3876   3.253   2.946   3.034 -1.4442 -1.6207  2.1761
   31DOPE  H12B 3877   3.076   2.996   3.072  0.0815  1.2140  0.1172
   31DOPE   C11 3878   3.174   3.130   2.943  0.6929 -0.2025  0.2368
   31DOPE  H11A 3879   3.254   3.139   2.866  1.7009 -0.6608  1.2132
   31DOPE  H11B 3880   3.200   3.182   3.038  0.8693  1.7923 -0.8459
   31DOPE     P 3881   3.053   3.334   2.833 -0.2938 -0.0920  0.2281
   31DOPE   O13 3882   2.921   3.385   2.812  0.3642 -0.1154  0.2192
   31DOPE   O14 3883   3.142   3.333   2.714 -0.6040  0.0772 -0.4949
   31DOPE   O11 3884   3.131   3.407   2.947 -0.0777 -0.4474 -0.0605
   31DOPE   O12 3885   3.051   3.186   2.892 -0.2417 -0.1096  0.0334
   31DOPE    C1 3886   3.144   3.547   2.943 -0.2196 -0.0151  0.3045
   31DOPE    HA 3887   3.040   3.585   2.954 -0.3012  0.0091 -0.4535
   31DOPE    HB 3888   3.171   3.593   2.845 -1.6261 -0.7194 -0.4515
   31DOPE    C2 3889   3.210   3.606   3.066  0.8548  0.0002  0.4757
   31DOPE    HS 3890   3.313   3.565   3.074  0.3196 -2.0044 -1.6592
   31DOPE   O21 3891   3.138   3.559   3.182  0.0492  0.5601 -0.4505
   31DOPE   C21 3892   3.166   3.446   3.233 -1.3818  0.0811 -0.1191
   31DOPE   O22 3893   3.272   3.383   3.213 -0.2004 -0.1816 -0.0964
   31DOPE   C22 3894   3.054   3.412   3.334 -0.2858 -0.4708 -0.3445
   31DOPE   H2R 3895   3.019   3.314   3.296  1.4694 -0.1199 -3.1170
   31DOPE   H2S 3896   2.974   3.489   3.335 -0.3548 -0.4681 -2.3481
   31DOPE    C3 3897   3.208   3.761   3.053 -0.1763 -0.4159  0.5619
   31DOPE    HX 3898   3.102   3.791   3.057 -0.3680 -1.1250  0.8341
   31DOPE    HY 3899   3.251   3.792   2.955  1.3354  0.1578  1.3714
   31DOPE   O31 3900   3.285   3.822   3.163  0.1274 -0.0541  0.1256
   31DOPE   C31 3901   3.412   3.824   3.134  0.0976  0.5721  0.6549
   31DOPE   O32 3902   3.461   3.774   3.038  0.1072 -0.8614 -0.0218
   31DOPE   C32 3903   3.491   3.870   3.261 -0.2213 -0.2817  0.0190
   31DOPE   H2X 3904   3.600   3.852   3.248  0.2678  1.7187  0.9376
   31DOPE   H2Y 3905   3.484   3.981   3.262  1.0200 -0.1264 -2.0635
   31DOPE   C23 3906   3.111   3.380   3.473  0.1261 -0.7579 -0.2227
   31DOPE   H3R 3907   3.200   3.313   3.472 -0.8657 -2.1423 -0.7406
   31DOPE   H3S 3908   3.029   3.324   3.524  1.1261 -3.3577 -1.2633
   31DOPE   C24 3909   3.152   3.503   3.550  0.0553 -0.7312 -0.7547
   31DOPE   H4R 3910   3.067   3.576   3.554  0.2928 -0.3827 -1.7001
   31DOPE   H4S 3911   3.223   3.559   3.486 -1.1757  2.1493  0.2174
   31DOPE   C25 3912   3.224   3.483   3.686 -0.2455 -0.3074  0.3540
   31DOPE   H5R 3913   3.282   3.572   3.718 -1.9568  0.7790  0.5208
   31DOPE   H5S 3914   3.301   3.402   3.678 -1.5390 -1.4235 -2.0159
   31DOPE   C26 3915   3.129   3.463   3.806  0.2741  0.1888  0.5564
   31DOPE   H6R 3916   3.142   3.359   3.845  1.3649  0.1701  0.1822
   31DOPE   H6S 3917   3.023   3.467   3.773  0.0156 -2.0358  0.9278
   31DOPE   C27 3918   3.153   3.561   3.924  0.5020  0.1724 -0.6795
   31DOPE   H7R 3919   3.097   3.653   3.897 -0.1052 -0.4783 -1.7262
   31DOPE   H7S 3920   3.263   3.574   3.934  0.5889 -1.9904  2.6143
   31DOPE   C28 3921   3.113   3.511   4.063 -0.1930 -0.2091 -0.6704
   31DOPE   H8R 3922   3.191   3.436   4.089 -0.6570 -0.3734  0.3412
   31DOPE   H8S 3923   3.013   3.462   4.058 -0.3205  0.1709 -2.1162
   31DOPE   C29 3924   3.126   3.616   4.158  0.1663 -0.6235  0.1044
   31DOPE   H9R 3925   3.227   3.657   4.170 -0.7989  1.8819  0.4938
   31DOPE  C210 3926   3.023   3.663   4.235 -0.4742 -0.7852  0.2287
   31DOPE  H10R 3927   3.040   3.749   4.301  0.9556  1.6455 -3.0684
   31DOPE  C211 3928   2.879   3.631   4.220  0.5419  0.6346 -0.0687
   31DOPE  H11R 3929   2.852   3.587   4.122  0.4612  1.5110 -0.4449
   31DOPE  H11S 3930   2.817   3.720   4.244  0.7263  0.3204  1.6633
   31DOPE  C212 3931   2.843   3.531   4.330 -0.1782 -0.6592 -0.8839
   31DOPE  H12R 3932   2.900   3.437   4.311 -0.2788 -0.7179 -0.9011
   31DOPE  H12S 3933   2.736   3.500   4.324 -0.9596  1.5083  0.6582
   31DOPE  C213 3934   2.883   3.579   4.471 -0.7252 -0.4992  0.2744
   31DOPE  H13R 3935   2.847   3.683   4.487  0.5806 -0.0664  0.4437
   31DOPE  H13S 3936   2.992   3.597   4.482 -0.2272 -0.8101 -3.1265
   31DOPE  C214 3937   2.824   3.488   4.583  0.3093  0.5961  0.2175
   31DOPE  H14R 3938   2.720   3.518   4.610  0.2605  0.0547  0.6566
   31DOPE  H14S 3939   2.888   3.506   4.672  0.8613 -0.7966  0.1218
   31DOPE  C215 3940   2.813   3.343   4.551 -0.1450  0.3175 -0.2161
   31DOPE  H15R 3941   2.919   3.312   4.536 -0.0399 -0.4068  1.7324
   31DOPE  H15S 3942   2.748   3.329   4.462 -0.6753  0.1322  0.1926
   31DOPE  C216 3943   2.757   3.249   4.662 -0.9046  0.3252 -0.3418
   31DOPE  H16R 3944   2.660   3.287   4.702  0.8549  2.4618  2.2265
   31DOPE  H16S 3945   2.830   3.256   4.745  2.2547 -3.6400 -2.4347
   31DOPE  C217 3946   2.750   3.099   4.634  0.1456  0.8555  0.4360
   31DOPE  H17R 3947   2.711   3.051   4.726 -0.1268  1.3546  0.5832
   31DOPE  H17S 3948   2.854   3.070   4.606 -1.0752 -0.6625 -3.2090
   31DOPE  C218 3949   2.667   3.067   4.507 -0.5207  0.6724  0.4634
   31DOPE  H18R 3950   2.719   3.094   4.413  1.4003  3.0522  2.0748
   31DOPE  H18S 3951   2.563   3.103   4.512 -0.9601 -0.6865  3.0059
   31DOPE  H18T 3952   2.665   2.956   4.517 -1.7523  0.8826  3.8617
   31DOPE   C33 3953   3.437   3.808   3.388  0.5372 -0.4059 -0.3616
   31DOPE   H3X 3954   3.440   3.697   3.384 -0.9359 -0.4399 -1.1703
   31DOPE   H3Y 3955   3.334   3.846   3.408  0.8917 -0.5920  2.1107
   31DOPE   C34 3956   3.539   3.841   3.501  0.4941  0.5209  0.2317
   31DOPE   H4X 3957   3.639   3.803   3.470  1.3931  2.0367  1.1808
   31DOPE   H4Y 3958   3.553   3.950   3.515  0.4836  0.5335  0.1493
   31DOPE   C35 3959   3.499   3.768   3.632 -0.0760  0.1495  0.6844
   31DOPE   H5X 3960   3.477   3.664   3.600  3.7380 -0.6937  0.2845
   31DOPE   H5Y 3961   3.412   3.806   3.690  0.4456 -0.7067  2.1031
   31DOPE   C36 3962   3.606   3.752   3.739  0.1839  0.6520 -0.6397
   31DOPE   H6X 3963   3.639   3.847   3.785  1.3145 -0.5160  1.0711
   31DOPE   H6Y 3964   3.697   3.706   3.695  0.6522  1.1770 -0.2275
   31DOPE   C37 3965   3.560   3.649   3.858 -0.8496  0.2538  0.2337
   31DOPE   H7X 3966   3.459   3.684   3.889 -0.1736  2.3186  0.2243
   31DOPE   H7Y 3967   3.555   3.544   3.820  4.0010 -1.0667  2.4362
   31DOPE   C38 3968   3.644   3.666   3.989 -0.3323  0.7076 -0.3027
   31DOPE   H8X 3969   3.636   3.758   4.050  2.1358  0.7378  0.0671
   31DOPE   H8Y 3970   3.750   3.648   3.960 -0.5116 -1.0014 -0.0192
   31DOPE   C39 3971   3.615   3.550   4.087  0.2281 -0.5359  0.0650
   31DOPE   H9X 3972   3.591   3.450   4.047 -1.8433  0.9542 -2.7611
   31DOPE  C310 3973   3.603   3.565   4.221  0.3422 -0.2935  0.1929
   31DOPE  H10X 3974   3.581   3.473   4.277 -0.7486 -2.0166 -2.7902
   31DOPE  C311 3975   3.628   3.690   4.300  0.6959  0.1951  0.3155
   31DOPE  H11X 3976   3.677   3.770   4.239 -0.5034 -0.0433 -1.0015
   31DOPE  H11Y 3977   3.527   3.728   4.327 -0.9395 -2.4097 -1.6980
   31DOPE  C312 3978   3.729   3.676   4.419  0.3715  0.2441 -0.0540
   31DOPE  H12X 3979   3.764   3.776   4.453  0.2250 -0.0956  1.1182
   31DOPE  H12Y 3980   3.821   3.638   4.370  0.7890 -0.8202  1.4886
   31DOPE  C313 3981   3.696   3.576   4.540 -0.4347 -0.1894 -0.2511
   31DOPE  H13X 3982   3.609   3.613   4.598 -0.2249  3.4830 -1.9218
   31DOPE  H13Y 3983   3.680   3.474   4.500 -0.6919  0.2248 -1.2469
   31DOPE  C314 3984   3.818   3.581   4.638  0.9124  0.5220  0.1153
   31DOPE  H14X 3985   3.810   3.685   4.677 -0.7163  0.5890 -0.3281
   31DOPE  H14Y 3986   3.912   3.586   4.579 -0.4166  1.9692 -2.0079
   31DOPE  C315 3987   3.812   3.470   4.751 -0.7149 -0.5494  0.8583
   31DOPE  H15X 3988   3.814   3.368   4.706 -0.2183 -0.6007  0.9884
   31DOPE  H15Y 3989   3.721   3.502   4.806  0.5590  1.7694  1.7902
   31DOPE  C316 3990   3.941   3.488   4.841 -0.5188 -0.0997  0.2436
   31DOPE  H16X 3991   3.989   3.587   4.849  0.5676 -0.7571  2.7167
   31DOPE  H16Y 3992   4.022   3.438   4.783  0.2494 -1.2589  2.2178
   31DOPE  C317 3993   3.919   3.425   4.979  0.4185 -0.1966  0.1420
   31DOPE  H17X 3994   3.833   3.462   5.038  0.3859 -1.0836  0.6771
   31DOPE  H17Y 3995   3.898   3.318   4.954 -2.2687  0.6749 -1.7615
   31DOPE  C318 3996   4.040   3.447   5.074  0.2712  0.0448  0.2401
   31DOPE  H18X 3997   4.055   3.556   5.084  0.6589  0.0051  0.1059
   31DOPE  H18Y 3998   4.005   3.403   5.170  0.8213 -0.0822  0.3870
   31DOPE  H18Z 3999   4.133   3.398   5.038  0.2474 -1.7723  2.3796
   32DOPE     N 4000   4.494   2.535   2.279 -0.0706  0.0785  0.3089
   32DOPE   HN1 4001   4.595   2.523   2.304  0.2751  0.8159 -0.6693
   32DOPE   HN2 4002   4.479   2.637   2.266 -0.6262  0.1479  1.3899
   32DOPE   HN3 4003   4.438   2.498   2.359 -0.3142 -2.1986 -0.8634
   32DOPE   C12 4004   4.470   2.465   2.148 -0.7681 -0.4034 -0.3973
   32DOPE  H12A 4005   4.362   2.442   2.144 -0.4589 -1.9069 -0.4280
   32DOPE  H12B 4006   4.532   2.373   2.150  0.6447  0.5076  0.3972
   32DOPE   C11 4007   4.484   2.562   2.036  0.0448 -0.1902 -0.6698
   32DOPE  H11A 4008   4.478   2.497   1.947 -1.0533  0.0503 -0.7877
   32DOPE  H11B 4009   4.582   2.614   2.039  0.1495 -0.3046 -1.8340
   32DOPE     P 4010   4.395   2.805   2.078  0.0791  0.2970 -0.1329
   32DOPE   O13 4011   4.257   2.863   2.087 -0.1954  0.2380 -0.6574
   32DOPE   O14 4012   4.487   2.868   1.984 -0.0932  0.2905  0.1099
   32DOPE   O11 4013   4.454   2.788   2.224 -0.3525  0.3596  0.7397
   32DOPE   O12 4014   4.378   2.653   2.036  0.2874 -0.5016 -0.3637
   32DOPE    C1 4015   4.514   2.901   2.287  0.0629  0.4704 -0.9830
   32DOPE    HA 4016   4.438   2.981   2.298  0.9349  1.0169  1.8914
   32DOPE    HB 4017   4.599   2.951   2.236  0.4866  1.5710  0.7371
   32DOPE    C2 4018   4.579   2.872   2.428  0.2180  0.3941 -0.5527
   32DOPE    HS 4019   4.689   2.888   2.419 -0.0349  1.7401 -1.6087
   32DOPE   O21 4020   4.537   2.747   2.493  0.5701 -0.1603  0.5726
   32DOPE   C21 4021   4.633   2.696   2.564  0.0924 -0.3073 -0.1872
   32DOPE   O22 4022   4.745   2.748   2.580  0.4737  0.3995  0.7329
   32DOPE   C22 4023   4.599   2.564   2.637  0.3286 -0.4706  0.1728
   32DOPE   H2R 4024   4.659   2.490   2.580  1.1695 -0.3005  0.8030
   32DOPE   H2S 4025   4.491   2.540   2.634  0.5481 -1.4267 -1.4694
   32DOPE    C3 4026   4.531   2.972   2.532  0.4397 -1.0550 -0.4238
   32DOPE    HX 4027   4.583   2.973   2.631  1.1662  1.3785 -0.7704
   32DOPE    HY 4028   4.423   2.948   2.545  0.7368 -1.2140  2.3984
   32DOPE   O31 4029   4.539   3.104   2.475 -0.4246  0.1080 -0.3914
   32DOPE   C31 4030   4.650   3.171   2.492  0.2439 -0.1051 -0.7502
   32DOPE   O32 4031   4.735   3.137   2.575 -0.4986  0.2660 -0.7471
   32DOPE   C32 4032   4.655   3.296   2.395 -0.7809  0.4472 -0.0956
   32DOPE   H2X 4033   4.761   3.329   2.399 -0.6753  0.2539 -1.1741
   32DOPE   H2Y 4034   4.627   3.259   2.294 -3.3428  1.3598  0.2050
   32DOPE   C23 4035   4.665   2.560   2.774 -0.1394 -0.3777  0.5148
   32DOPE   H3R 4036   4.773   2.585   2.768 -0.2447  0.4772  1.7895
   32DOPE   H3S 4037   4.658   2.455   2.809  1.0586 -0.5836  0.1796
   32DOPE   C24 4038   4.580   2.646   2.870 -1.0915  0.6082 -0.0973
   32DOPE   H4R 4039   4.478   2.605   2.855 -0.5117 -0.7334 -0.5107
   32DOPE   H4S 4040   4.589   2.752   2.838 -0.3570  0.2212 -1.2205
   32DOPE   C25 4041   4.619   2.624   3.017 -0.2030 -0.6216  0.2263
   32DOPE   H5R 4042   4.727   2.647   3.029 -0.4592  0.5583  0.4790
   32DOPE   H5S 4043   4.588   2.523   3.049 -0.3336 -0.4912  0.5196
   32DOPE   C26 4044   4.544   2.725   3.107 -1.0579  0.5411 -0.4258
   32DOPE   H6R 4045   4.436   2.731   3.084 -1.4280  1.2227  1.3226
   32DOPE   H6S 4046   4.589   2.821   3.073 -1.1563  0.6369 -0.2871
   32DOPE   C27 4047   4.569   2.704   3.259  0.2418  0.4118 -0.6095
   32DOPE   H7R 4048   4.674   2.713   3.294 -0.2447 -2.1988  1.9221
   32DOPE   H7S 4049   4.523   2.613   3.304 -0.2198  1.0558  0.2440
   32DOPE   C28 4050   4.507   2.825   3.325  0.1932  0.0029 -0.4419
   32DOPE   H8R 4051   4.407   2.835   3.278  0.8345 -0.1260 -1.8909
   32DOPE   H8S 4052   4.560   2.917   3.293  0.4826 -0.4205 -1.2130
   32DOPE   C29 4053   4.488   2.827   3.475  0.0371 -0.0342 -0.3257
   32DOPE   H9R 4054   4.582   2.809   3.529 -0.5372  2.3851  1.6734
   32DOPE  C210 4055   4.381   2.842   3.555  0.2511 -0.0702 -0.3637
   32DOPE  H10R 4056   4.406   2.848   3.662  2.1248  0.0908 -0.7920
   32DOPE  C211 4057   4.234   2.850   3.514 -0.7899  0.4842 -0.0229
   32DOPE  H11R 4058   4.180   2.765   3.560  0.4726 -0.3170  0.0176
   32DOPE  H11S 4059   4.233   2.816   3.408  2.4344 -1.1492  0.3542
   32DOPE  C212 4060   4.156   2.974   3.537  0.2862 -0.2088 -0.7076
   32DOPE  H12R 4061   4.061   2.970   3.479  1.2805 -1.0793 -2.3849
   32DOPE  H12S 4062   4.197   3.071   3.501 -0.3584  0.8001  1.1616
   32DOPE  C213 4063   4.111   2.988   3.685  0.8470  0.1779 -0.8082
   32DOPE  H13R 4064   4.193   2.970   3.757 -1.5258 -0.4285  1.8937
   32DOPE  H13S 4065   4.038   2.906   3.698 -0.6656  1.2356 -2.1767
   32DOPE  C214 4066   4.039   3.120   3.718  0.5809 -0.6326 -0.3206
   32DOPE  H14R 4067   3.974   3.154   3.634  2.1367 -0.5526 -1.5311
   32DOPE  H14S 4068   4.110   3.205   3.729  0.9308 -0.9187 -0.3368
   32DOPE  C215 4069   3.964   3.105   3.856 -0.2174  0.6417  0.0485
   32DOPE  H15R 4070   3.914   3.007   3.870 -0.3247  0.9954  2.6584
   32DOPE  H15S 4071   3.894   3.191   3.858 -2.8271 -1.3573 -0.3214
   32DOPE  C216 4072   4.067   3.125   3.968  0.2773 -0.0649  0.0765
   32DOPE  H16R 4073   4.128   3.216   3.951  1.8530 -1.2077 -0.6593
   32DOPE  H16S 4074   4.133   3.036   3.978 -0.4276 -0.8400 -1.6562
   32DOPE  C217 4075   3.999   3.145   4.104 -0.2708 -0.0941 -0.6483
   32DOPE  H17R 4076   3.959   3.047   4.138 -1.9308  1.2361  1.4987
   32DOPE  H17S 4077   3.911   3.213   4.103 -1.7338 -1.8802  0.1151
   32DOPE  C218 4078   4.114   3.182   4.201  0.4622  0.6113 -0.9334
   32DOPE  H18R 4079   4.183   3.096   4.193  1.1736  1.2507 -1.9199
   32DOPE  H18S 4080   4.080   3.196   4.306 -0.3236 -0.8043 -0.9749
   32DOPE  H18T 4081   4.165   3.274   4.164  0.1944  1.8986  1.6824
   32DOPE   C33 4082   4.565   3.416   2.440 -0.0009  0.2087  0.1363
   32DOPE   H3X 4083   4.464   3.377   2.465  0.3111  0.0469  1.1887
   32DOPE   H3Y 4084   4.556   3.493   2.360 -4.1320  0.0067  0.1564
   32DOPE   C34 4085   4.628   3.488   2.563 -0.7494  0.3058  0.0525
   32DOPE   H4X 4086   4.640   3.434   2.660  0.8773 -0.7633 -0.7112
   32DOPE   H4Y 4087   4.729   3.522   2.533 -0.9902  0.0197 -1.1098
   32DOPE   C35 4088   4.549   3.612   2.595 -0.0939 -0.8866  0.2131
   32DOPE   H5X 4089   4.501   3.658   2.506 -1.9397 -0.7381  1.2247
   32DOPE   H5Y 4090   4.619   3.691   2.630 -0.7161 -0.7796  1.2796
   32DOPE   C36 4091   4.439   3.591   2.713  0.1354 -0.8541  0.1686
   32DOPE   H6X 4092   4.479   3.505   2.772 -2.4402 -1.6213  0.9329
   32DOPE   H6Y 4093   4.349   3.550   2.662  1.3504 -1.6418 -1.4433
   32DOPE   C37 4094   4.418   3.715   2.805  0.4352  0.7815  0.1273
   32DOPE   H7X 4095   4.512   3.724   2.864 -0.4678  0.7414  1.6191
   32DOPE   H7Y 4096   4.408   3.811   2.751  0.2303 -0.4414 -2.1333
   32DOPE   C38 4097   4.306   3.707   2.909 -0.2138 -0.5250 -0.6160
   32DOPE   H8X 4098   4.211   3.716   2.853  0.0325 -2.2056 -1.3682
   32DOPE   H8Y 4099   4.317   3.791   2.980 -1.7213  1.1686 -2.2958
   32DOPE   C39 4100   4.299   3.570   2.982  0.8545 -0.2313  0.0338
   32DOPE   H9X 4101   4.274   3.482   2.920  0.2678 -0.8893  1.1587
   32DOPE  C310 4102   4.337   3.548   3.109 -0.6234 -0.0342  0.6350
   32DOPE  H10X 4103   4.348   3.446   3.149  0.1322  0.1391  0.8955
   32DOPE  C311 4104   4.393   3.651   3.203 -0.2789  0.1883  0.5136
   32DOPE  H11X 4105   4.489   3.627   3.254 -0.2264  1.3343  0.9765
   32DOPE  H11Y 4106   4.420   3.746   3.154 -1.9166  0.0751 -0.6984
   32DOPE  C312 4107   4.288   3.682   3.313  0.3206 -0.0356  0.1110
   32DOPE  H12X 4108   4.186   3.711   3.281  0.0536 -0.7444  0.2995
   32DOPE  H12Y 4109   4.333   3.758   3.381 -0.3305  1.1948 -0.7901
   32DOPE  C313 4110   4.260   3.565   3.412  0.0118  0.5039  0.4064
   32DOPE  H13X 4111   4.205   3.489   3.352  1.9676 -0.7870  0.1570
   32DOPE  H13Y 4112   4.360   3.526   3.439 -0.6231 -1.6470 -0.1384
   32DOPE  C314 4113   4.182   3.597   3.537 -0.2323  0.1873 -0.0865
   32DOPE  H14X 4114   4.123   3.689   3.519  2.3448  2.2962  1.5643
   32DOPE  H14Y 4115   4.258   3.623   3.614 -0.3619  1.3619 -0.3430
   32DOPE  C315 4116   4.102   3.477   3.593 -1.0751  0.2819  0.2807
   32DOPE  H15X 4117   4.159   3.383   3.610 -1.1016  0.4120  1.1180
   32DOPE  H15Y 4118   4.030   3.446   3.513 -0.5745  0.3112 -0.1864
   32DOPE  C316 4119   4.033   3.501   3.720  0.3519  0.2549 -0.6808
   32DOPE  H16X 4120   3.963   3.415   3.729  0.4207  0.2341 -0.3194
   32DOPE  H16Y 4121   3.968   3.591   3.723  1.3461  0.9753 -0.2276
   32DOPE  C317 4122   4.124   3.500   3.848 -0.6732  0.4034  0.4604
   32DOPE  H17X 4123   4.182   3.405   3.846  0.8418  1.3102 -0.4153
   32DOPE  H17Y 4124   4.196   3.584   3.834 -0.4847 -0.0497 -1.7477
   32DOPE  C318 4125   4.047   3.512   3.981 -0.0726 -0.4709  0.3121
   32DOPE  H18X 4126   3.945   3.468   3.969  0.1802 -1.1849  0.7344
   32DOPE  H18Y 4127   4.102   3.467   4.067 -2.5229 -0.4954  1.9823
   32DOPE  H18Z 4128   4.050   3.619   4.011  0.4538 -0.2325 -0.5643
   33DOPE     N 4129   3.402   3.389   2.759 -0.4762 -0.2247  0.5561
   33DOPE   HN1 4130   3.299   3.378   2.752 -0.2330 -2.6241 -0.1870
   33DOPE   HN2 4131   3.438   3.349   2.848  0.6485  0.1816  0.3011
   33DOPE   HN3 4132   3.435   3.487   2.759  1.5954 -0.8345 -1.2078
   33DOPE   C12 4133   3.471   3.326   2.637 -0.2251 -0.5444 -0.4978
   33DOPE  H12A 4134   3.579   3.328   2.663 -0.0593 -0.2453 -1.1809
   33DOPE  H12B 4135   3.438   3.393   2.554 -0.8740 -0.7193 -0.3907
   33DOPE   C11 4136   3.434   3.181   2.609 -0.5524 -0.0455 -0.2128
   33DOPE  H11A 4137   3.440   3.150   2.502  2.0204  1.3990 -0.5918
   33DOPE  H11B 4138   3.326   3.172   2.631 -1.1767  1.0780 -2.4676
   33DOPE     P 4139   3.474   2.944   2.701  0.2172 -0.0423  0.6677
   33DOPE   O13 4140   3.571   2.865   2.621  0.3547 -0.1103  0.1204
   33DOPE   O14 4141   3.330   2.921   2.673 -0.2850 -0.4260 -0.1717
   33DOPE   O11 4142   3.486   2.902   2.853  0.2578  0.1782 -0.3412
   33DOPE   O12 4143   3.515   3.102   2.695 -0.2405  0.0379 -0.2593
   33DOPE    C1 4144   3.600   2.946   2.929 -0.5478  0.5728  0.2803
   33DOPE    HA 4145   3.640   3.043   2.893 -1.8873  0.9549 -0.2060
   33DOPE    HB 4146   3.681   2.875   2.900 -0.2590  0.8213  0.4805
   33DOPE    C2 4147   3.582   2.929   3.081 -0.3344  0.1063  0.2336
   33DOPE    HS 4148   3.491   2.986   3.110  0.4870  1.8429 -0.4711
   33DOPE   O21 4149   3.704   2.954   3.146  0.5537  0.4013  0.0261
   33DOPE   C21 4150   3.728   3.083   3.183  0.8244  0.2934 -0.9371
   33DOPE   O22 4151   3.648   3.171   3.173 -0.4742  0.0871  0.2695
   33DOPE   C22 4152   3.864   3.094   3.254 -0.3870  0.3185 -0.8592
   33DOPE   H2R 4153   3.879   3.017   3.333  2.4648  2.5524  0.9879
   33DOPE   H2S 4154   3.861   3.193   3.305 -1.2324 -0.7103  1.2356
   33DOPE    C3 4155   3.542   2.782   3.116  0.4396 -0.2461 -0.4127
   33DOPE    HX 4156   3.613   2.715   3.065 -2.4439 -1.5705 -2.9743
   33DOPE    HY 4157   3.447   2.757   3.065  0.3075 -1.8335  0.5514
   33DOPE   O31 4158   3.541   2.748   3.259  0.5018 -0.1346 -0.7161
   33DOPE   C31 4159   3.428   2.790   3.319  0.0430 -0.1267  0.2294
   33DOPE   O32 4160   3.334   2.842   3.267 -0.5858 -0.0378  0.0836
   33DOPE   C32 4161   3.438   2.732   3.457 -0.1619 -0.0230  0.4634
   33DOPE   H2X 4162   3.514   2.651   3.459 -0.1660 -0.0314  2.2084
   33DOPE   H2Y 4163   3.495   2.797   3.527  2.0228  0.0966 -1.3112
   33DOPE   C23 4164   3.990   3.085   3.170  0.2085 -0.3089 -0.2778
   33DOPE   H3R 4165   3.973   3.123   3.067 -0.9797 -0.5644 -0.1851
   33DOPE   H3S 4166   4.020   2.979   3.159  4.4295  0.6289  0.4813
   33DOPE   C24 4167   4.099   3.175   3.221  0.0920 -0.4426  1.0366
   33DOPE   H4R 4168   4.126   3.125   3.317 -1.4067 -0.3781  1.5236
   33DOPE   H4S 4169   4.055   3.273   3.251  0.7772  0.4112 -0.6388
   33DOPE   C25 4170   4.229   3.182   3.134 -0.1750 -0.2226 -0.5927
   33DOPE   H5R 4171   4.308   3.206   3.209  0.3974 -1.2511 -0.8488
   33DOPE   H5S 4172   4.215   3.270   3.068 -0.0955  0.5364  0.3862
   33DOPE   C26 4173   4.280   3.056   3.056 -0.3190  0.8049  0.0410
   33DOPE   H6R 4174   4.217   3.028   2.968 -0.3574 -0.3176  0.4158
   33DOPE   H6S 4175   4.279   2.976   3.133 -0.7608 -0.0343 -0.8078
   33DOPE   C27 4176   4.425   3.066   3.005  0.1989  0.0168  0.1341
   33DOPE   H7R 4177   4.444   2.973   2.946  0.3877  0.5140 -0.6024
   33DOPE   H7S 4178   4.503   3.070   3.084 -1.2345 -1.4910  1.7205
   33DOPE   C28 4179   4.440   3.188   2.908 -0.2019 -0.2674  1.1194
   33DOPE   H8R 4180   4.405   3.287   2.945  0.7686  0.3453  0.4422
   33DOPE   H8S 4181   4.377   3.179   2.817  0.3834  0.5395  0.6228
   33DOPE   C29 4182   4.586   3.198   2.870  0.9045 -0.0109  0.4644
   33DOPE   H9R 4183   4.626   3.110   2.817  2.9344 -0.8872  3.2501
   33DOPE  C210 4184   4.684   3.287   2.896 -0.2508 -0.2468  0.2154
   33DOPE  H10R 4185   4.784   3.279   2.850  0.5170  2.8317  1.1116
   33DOPE  C211 4186   4.685   3.413   2.976  0.5014 -0.2060  0.6313
   33DOPE  H11R 4187   4.580   3.449   2.984  0.3383 -0.7034  0.7575
   33DOPE  H11S 4188   4.760   3.484   2.934  0.5083 -0.7931 -0.3567
   33DOPE  C212 4189   4.733   3.400   3.127 -0.5852 -0.2772 -0.1500
   33DOPE  H12R 4190   4.706   3.497   3.175 -1.2224 -1.4955  2.0779
   33DOPE  H12S 4191   4.843   3.390   3.137 -0.5040  1.2080  0.8269
   33DOPE  C213 4192   4.647   3.299   3.202  0.3334 -0.0934  0.3299
   33DOPE  H13R 4193   4.687   3.199   3.174 -0.8793  0.1274 -2.4717
   33DOPE  H13S 4194   4.544   3.320   3.167  0.1085  2.1957  2.1290
   33DOPE  C214 4195   4.646   3.323   3.359  0.5050 -0.2151  0.0831
   33DOPE  H14R 4196   4.601   3.425   3.355 -0.8560 -0.8159 -1.4650
   33DOPE  H14S 4197   4.747   3.339   3.403  0.6909  1.6179 -0.9057
   33DOPE  C215 4198   4.559   3.233   3.435  0.0273  0.2067 -0.3319
   33DOPE  H15R 4199   4.607   3.133   3.425 -0.5431 -0.1272  0.2224
   33DOPE  H15S 4200   4.462   3.225   3.381  0.5247 -0.5986 -1.1349
   33DOPE  C216 4201   4.540   3.276   3.585 -0.1990  0.5638  0.4783
   33DOPE  H16R 4202   4.489   3.375   3.583 -0.5236  0.4464 -2.2600
   33DOPE  H16S 4203   4.639   3.286   3.633  0.5130  0.1422 -0.8488
   33DOPE  C217 4204   4.455   3.175   3.674 -0.2194  0.7822 -0.3773
   33DOPE  H17R 4205   4.502   3.077   3.650  1.7788  1.7366 -0.5418
   33DOPE  H17S 4206   4.354   3.195   3.631 -0.2149  0.9010 -0.3313
   33DOPE  C218 4207   4.450   3.214   3.820  0.1138  0.5897  0.0988
   33DOPE  H18R 4208   4.395   3.130   3.868 -1.7321  0.4307 -2.1434
   33DOPE  H18S 4209   4.398   3.310   3.841  0.4270  0.1559  3.5000
   33DOPE  H18T 4210   4.552   3.229   3.863 -0.4401  1.6175  1.1236
   33DOPE   C33 4211   3.316   2.660   3.511  0.3016 -0.1276 -0.2172
   33DOPE   H3X 4212   3.294   2.568   3.453 -1.7708  0.2399 -0.0940
   33DOPE   H3Y 4213   3.226   2.720   3.485  0.1701 -0.1522  0.1765
   33DOPE   C34 4214   3.316   2.647   3.664  0.5953  0.1626 -0.3946
   33DOPE   H4X 4215   3.361   2.740   3.705 -1.2285  0.0606  2.0705
   33DOPE   H4Y 4216   3.212   2.621   3.690 -0.7428  2.0393 -3.3428
   33DOPE   C35 4217   3.397   2.526   3.708  0.5156  0.7733  0.4623
   33DOPE   H5X 4218   3.498   2.544   3.667  1.1245 -1.2770  0.9247
   33DOPE   H5Y 4219   3.360   2.435   3.656  3.0094 -0.2240  0.2956
   33DOPE   C36 4220   3.417   2.504   3.859 -0.0102  0.0174 -0.2253
   33DOPE   H6X 4221   3.317   2.489   3.904  0.3613 -2.0739 -0.0219
   33DOPE   H6Y 4222   3.466   2.596   3.898  1.3348 -0.8923  0.2962
   33DOPE   C37 4223   3.511   2.391   3.896 -0.6565 -0.0018  0.6667
   33DOPE   H7X 4224   3.469   2.297   3.854  2.6694 -0.8191 -1.1436
   33DOPE   H7Y 4225   3.606   2.411   3.842 -0.5033 -2.5153 -0.1464
   33DOPE   C38 4226   3.525   2.368   4.047  0.7966 -0.7308  0.3272
   33DOPE   H8X 4227   3.431   2.334   4.097  0.5072 -0.4525 -0.0173
   33DOPE   H8Y 4228   3.547   2.468   4.088 -0.9879 -0.4576  0.7062
   33DOPE   C39 4229   3.625   2.257   4.076 -0.0870 -0.2993 -0.0362
   33DOPE   H9X 4230   3.613   2.165   4.016  1.9960 -0.6379 -0.0142
   33DOPE  C310 4231   3.718   2.255   4.170  0.4333 -0.1040  0.9411
   33DOPE  H10X 4232   3.768   2.158   4.186 -1.1951 -0.8114  2.0390
   33DOPE  C311 4233   3.755   2.361   4.267 -0.0737  0.6823 -0.3453
   33DOPE  H11X 4234   3.857   2.404   4.257  0.5057  0.1331  2.3103
   33DOPE  H11Y 4235   3.682   2.443   4.251 -1.0975 -0.0390  0.5170
   33DOPE  C312 4236   3.740   2.299   4.409 -0.8937 -0.5232 -0.1772
   33DOPE  H12X 4237   3.785   2.198   4.420 -0.3799 -0.0355  3.0029
   33DOPE  H12Y 4238   3.634   2.277   4.434 -0.3878 -0.9587  1.7375
   33DOPE  C313 4239   3.808   2.387   4.513 -0.3894 -0.4043 -0.2659
   33DOPE  H13X 4240   3.917   2.373   4.499 -0.7165 -2.1847 -1.4285
   33DOPE  H13Y 4241   3.784   2.494   4.498 -2.3609 -0.9836 -1.6169
   33DOPE  C314 4242   3.762   2.345   4.654 -0.3389 -0.7431  0.4857
   33DOPE  H14X 4243   3.792   2.240   4.673  0.0572 -0.4584  1.4540
   33DOPE  H14Y 4244   3.651   2.345   4.649 -0.3401  0.3933 -3.6134
   33DOPE  C315 4245   3.814   2.441   4.757 -0.0976 -0.7707  0.1007
   33DOPE  H15X 4246   3.767   2.541   4.748  0.2595 -0.3213  2.4481
   33DOPE  H15Y 4247   3.924   2.455   4.750 -0.0233 -0.4067  1.5890
   33DOPE  C316 4248   3.776   2.405   4.902  1.1290 -0.2525  0.1039
   33DOPE  H16X 4249   3.668   2.384   4.917  1.2862 -0.6466  0.7529
   33DOPE  H16Y 4250   3.799   2.491   4.969 -0.8273  0.6866 -0.3448
   33DOPE  C317 4251   3.860   2.294   4.963 -0.2084  0.0588 -0.4499
   33DOPE  H17X 4252   3.849   2.195   4.914  1.8148 -0.0954 -0.6592
   33DOPE  H17Y 4253   3.963   2.334   4.968  0.3069 -1.1783 -0.7445
   33DOPE  C318 4254   3.798   2.264   5.098 -0.0015  0.0616 -0.1901
   33DOPE  H18X 4255   3.703   2.206   5.089 -0.5705  1.2016 -1.8435
   33DOPE  H18Y 4256   3.863   2.198   5.160 -1.2839  1.0183  2.3319
   33DOPE  H18Z 4257   3.792   2.351   5.166 -2.8449 -0.4777  0.3990
   34DOPE     N 4258   2.912   4.610   2.409 -0.2582  0.5948 -0.5530
   34DOPE   HN1 4259   2.891   4.513   2.440 -0.9377  0.5554 -1.1115
   34DOPE   HN2 4260   2.878   4.630   2.313 -1.6577  0.2959 -0.1461
   34DOPE   HN3 4261   3.013   4.634   2.409 -0.0866  0.0932  1.7103
   34DOPE   C12 4262   2.851   4.702   2.507  0.7363 -0.3981 -0.3951
   34DOPE  H12A 4263   2.746   4.711   2.473 -0.2185  0.4127  2.4470
   34DOPE  H12B 4264   2.899   4.801   2.493  3.6559 -1.6589 -0.1436
   34DOPE   C11 4265   2.859   4.637   2.647  0.4403  0.1321 -0.1683
   34DOPE  H11A 4266   2.822   4.702   2.729  0.1849 -1.3798  0.9522
   34DOPE  H11B 4267   2.968   4.621   2.660  0.6779  0.7506 -1.1935
   34DOPE     P 4268   2.638   4.505   2.696 -0.1833 -0.3912 -0.0018
   34DOPE   O13 4269   2.579   4.367   2.694 -0.2947  0.1210 -0.0859
   34DOPE   O14 4270   2.568   4.611   2.618  0.1381 -0.4554 -0.0127
   34DOPE   O11 4271   2.638   4.557   2.845 -0.3610  0.2489  0.4342
   34DOPE   O12 4272   2.793   4.511   2.653 -0.2059  0.3756  0.7815
   34DOPE    C1 4273   2.679   4.466   2.951  0.5565  0.8712  0.0603
   34DOPE    HA 4274   2.787   4.480   2.975  0.3693  1.9175  0.3439
   34DOPE    HB 4275   2.655   4.361   2.924 -0.6351  1.5314 -1.5961
   34DOPE    C2 4276   2.596   4.507   3.081 -0.5619 -0.0792  0.1278
   34DOPE    HS 4277   2.496   4.467   3.056 -0.5827  0.7336 -1.1482
   34DOPE   O21 4278   2.600   4.646   3.107 -0.2623 -0.3040  0.0740
   34DOPE   C21 4279   2.505   4.716   3.052  0.7425 -0.1175 -0.4095
   34DOPE   O22 4280   2.404   4.664   2.999 -0.0958 -0.0964 -0.2394
   34DOPE   C22 4281   2.526   4.870   3.066 -0.2109 -0.3871  0.0765
   34DOPE   H2R 4282   2.434   4.923   3.033  2.3832  2.0718 -4.1500
   34DOPE   H2S 4283   2.609   4.890   2.995 -0.1071 -0.6246  0.1319
   34DOPE    C3 4284   2.651   4.431   3.200 -0.4297  0.3346  0.4534
   34DOPE    HX 4285   2.757   4.452   3.225 -1.2765  2.3438  2.7222
   34DOPE    HY 4286   2.638   4.321   3.193  0.4828  0.2263  0.2550
   34DOPE   O31 4287   2.580   4.479   3.311  0.4349  0.2584 -0.5556
   34DOPE   C31 4288   2.463   4.430   3.341  0.6801  0.4054  0.0829
   34DOPE   O32 4289   2.409   4.335   3.279  0.3257  0.3883  0.0632
   34DOPE   C32 4290   2.398   4.509   3.453  0.0984 -0.3975  0.2987
   34DOPE   H2X 4291   2.474   4.555   3.519  1.0670 -0.4792 -0.7306
   34DOPE   H2Y 4292   2.337   4.591   3.409 -0.6836 -0.1064  1.8452
   34DOPE   C23 4293   2.571   4.910   3.211  0.0839 -0.0664  0.8233
   34DOPE   H3R 4294   2.637   4.999   3.197 -0.4828 -0.0814 -2.8220
   34DOPE   H3S 4295   2.636   4.835   3.262  1.1616  0.5247  0.3600
   34DOPE   C24 4296   2.443   4.952   3.287 -1.1175 -0.5917  0.6036
   34DOPE   H4R 4297   2.377   4.864   3.274  1.5019 -2.4571 -1.0969
   34DOPE   H4S 4298   2.395   5.031   3.225  1.6419  0.1865 -0.6858
   34DOPE   C25 4299   2.467   4.984   3.437  0.4405 -0.8979 -0.9362
   34DOPE   H5R 4300   2.370   5.019   3.479  0.2336 -2.4510 -0.0640
   34DOPE   H5S 4301   2.536   5.067   3.462  0.1378 -1.0120  0.3391
   34DOPE   C26 4302   2.505   4.863   3.522 -0.5167  0.0995 -0.1467
   34DOPE   H6R 4303   2.599   4.838   3.468 -0.6650  0.1862 -0.4493
   34DOPE   H6S 4304   2.432   4.780   3.510  0.4745 -1.6780  4.2101
   34DOPE   C27 4305   2.513   4.872   3.676  0.1309  0.4932 -0.1688
   34DOPE   H7R 4306   2.426   4.926   3.720 -0.4817 -1.0237  0.5537
   34DOPE   H7S 4307   2.603   4.935   3.694  0.6453 -1.1672  4.4774
   34DOPE   C28 4308   2.538   4.734   3.730 -0.1318 -0.4003 -0.3724
   34DOPE   H8R 4309   2.611   4.688   3.660  2.2080 -1.3182  2.4431
   34DOPE   H8S 4310   2.457   4.660   3.740  1.3968 -1.9586  1.3494
   34DOPE   C29 4311   2.601   4.742   3.866 -0.1100 -0.6146 -0.2782
   34DOPE   H9R 4312   2.692   4.804   3.861  0.8941 -1.9083  1.1467
   34DOPE  C210 4313   2.547   4.711   3.990 -1.5374 -0.7275  0.2372
   34DOPE  H10R 4314   2.602   4.746   4.079 -2.0920  0.4223  0.1468
   34DOPE  C211 4315   2.418   4.637   4.016 -0.2967  0.8757  0.3243
   34DOPE  H11R 4316   2.448   4.536   4.050 -0.5713  0.2030 -1.3685
   34DOPE  H11S 4317   2.370   4.616   3.918  2.8404  0.0161 -1.1510
   34DOPE  C212 4318   2.312   4.705   4.109  0.1802  0.3759  0.7212
   34DOPE  H12R 4319   2.359   4.718   4.209  1.9421  1.1015 -0.1655
   34DOPE  H12S 4320   2.234   4.627   4.123  0.5607 -0.0270  0.6139
   34DOPE  C213 4321   2.247   4.830   4.053  0.1137 -0.6482 -0.7571
   34DOPE  H13R 4322   2.185   4.801   3.966 -1.2782  2.2973 -0.8480
   34DOPE  H13S 4323   2.324   4.899   4.012 -0.1251  0.8870  1.2309
   34DOPE  C214 4324   2.156   4.911   4.149 -0.5582 -0.1232  0.2474
   34DOPE  H14R 4325   2.054   4.868   4.146 -1.0629  0.9785  0.8316
   34DOPE  H14S 4326   2.145   5.011   4.103 -3.2688 -0.1349  0.6999
   34DOPE  C215 4327   2.203   4.922   4.294 -0.3400  0.1535  0.4440
   34DOPE  H15R 4328   2.311   4.948   4.286 -0.2043 -0.9541 -2.4396
   34DOPE  H15S 4329   2.208   4.828   4.352 -1.0672  0.8896  1.7602
   34DOPE  C216 4330   2.143   5.035   4.365  0.0767  0.0233 -1.0322
   34DOPE  H16R 4331   2.033   5.026   4.352  0.3627 -2.5857 -2.3896
   34DOPE  H16S 4332   2.169   5.133   4.321 -3.1576  1.0147 -1.0214
   34DOPE  C217 4333   2.165   5.031   4.520 -0.4062 -0.4587  0.6113
   34DOPE  H17R 4334   2.274   5.045   4.532 -0.4623 -0.0783  0.6763
   34DOPE  H17S 4335   2.138   4.931   4.561  1.2198 -0.2168  2.4115
   34DOPE  C218 4336   2.085   5.130   4.605  0.3817 -1.2127 -0.9782
   34DOPE  H18R 4337   2.093   5.112   4.715 -4.1182  3.5503  0.5803
   34DOPE  H18S 4338   1.978   5.120   4.576 -0.5873  2.7886  0.4609
   34DOPE  H18T 4339   2.115   5.235   4.582  0.3343 -1.0074 -0.1340
   34DOPE   C33 4340   2.296   4.427   3.547 -0.5583 -0.1304  0.3050
   34DOPE   H3X 4341   2.243   4.352   3.485  2.4388 -1.3645 -0.9686
   34DOPE   H3Y 4342   2.226   4.507   3.579 -1.3520 -1.5935  2.4056
   34DOPE   C34 4343   2.356   4.344   3.657 -0.6682 -0.3863 -0.1376
   34DOPE   H4X 4344   2.422   4.264   3.618  0.6237 -0.4938  2.1056
   34DOPE   H4Y 4345   2.421   4.409   3.720 -0.0180 -3.1548  2.2625
   34DOPE   C35 4346   2.252   4.277   3.750 -0.1233 -0.5629 -0.1691
   34DOPE   H5X 4347   2.190   4.215   3.682 -3.2494 -1.1756  2.9403
   34DOPE   H5Y 4348   2.193   4.356   3.802 -1.0504  0.0320 -2.0193
   34DOPE   C36 4349   2.321   4.206   3.865 -0.5187 -0.3911  0.8194
   34DOPE   H6X 4350   2.407   4.270   3.893  1.1652 -1.8820 -0.6811
   34DOPE   H6Y 4351   2.359   4.105   3.840  0.8921  0.2869  0.1203
   34DOPE   C37 4352   2.235   4.189   3.985 -0.3608 -0.1292  0.0358
   34DOPE   H7X 4353   2.184   4.282   4.017 -2.2382 -1.3092  0.5995
   34DOPE   H7Y 4354   2.158   4.110   3.973 -0.6096  0.2255 -0.7575
   34DOPE   C38 4355   2.321   4.134   4.097  0.7551 -0.0581 -0.6106
   34DOPE   H8X 4356   2.419   4.184   4.114  2.4702 -3.0028 -1.2126
   34DOPE   H8Y 4357   2.340   4.027   4.076  0.2924 -0.2497 -0.1056
   34DOPE   C39 4358   2.245   4.132   4.222  0.4918 -0.0814 -0.4025
   34DOPE   H9X 4359   2.178   4.045   4.234  1.3788 -0.6816  0.3414
   34DOPE  C310 4360   2.235   4.236   4.311  0.4044  0.5122  0.7011
   34DOPE  H10X 4361   2.190   4.215   4.409  0.3922  0.1288  0.6151
   34DOPE  C311 4362   2.316   4.358   4.298  1.2390 -0.0339 -0.1821
   34DOPE  H11X 4363   2.372   4.364   4.202  3.0126 -2.6400  0.5905
   34DOPE  H11Y 4364   2.254   4.448   4.314 -0.2507 -1.3852  2.1306
   34DOPE  C312 4365   2.409   4.363   4.423  0.3344  0.0716 -0.0763
   34DOPE  H12X 4366   2.492   4.434   4.404  0.8900  0.2713  2.7245
   34DOPE  H12Y 4367   2.452   4.262   4.440 -0.0467  0.0379  0.7455
   34DOPE  C313 4368   2.326   4.407   4.545 -0.0948 -0.5651 -0.6657
   34DOPE  H13X 4369   2.263   4.494   4.517  1.1583  0.6488  0.2177
   34DOPE  H13Y 4370   2.256   4.325   4.573  0.5243 -1.0564 -0.5271
   34DOPE  C314 4371   2.409   4.438   4.672  0.1072 -0.1014  0.1085
   34DOPE  H14X 4372   2.475   4.524   4.650  0.6162 -0.1897  1.2660
   34DOPE  H14Y 4373   2.472   4.350   4.699  0.1657  0.5899  2.4305
   34DOPE  C315 4374   2.320   4.475   4.785  1.1335  0.8258 -0.1934
   34DOPE  H15X 4375   2.247   4.398   4.818  0.8642  1.7879  1.6056
   34DOPE  H15Y 4376   2.256   4.550   4.735 -2.3481 -1.3221  0.7213
   34DOPE  C316 4377   2.396   4.533   4.903 -0.3763  0.0809  0.1290
   34DOPE  H16X 4378   2.464   4.614   4.870 -0.7407 -0.2479 -1.5575
   34DOPE  H16Y 4379   2.461   4.457   4.952  1.7857  1.6620 -0.1534
   34DOPE  C317 4380   2.301   4.576   5.016 -0.3093  0.1005  0.0394
   34DOPE  H17X 4381   2.217   4.505   5.030  0.1346 -1.0075 -2.3668
   34DOPE  H17Y 4382   2.358   4.565   5.111  2.2342  0.7200 -1.3326
   34DOPE  C318 4383   2.272   4.722   5.010  0.9602 -0.1589  0.0541
   34DOPE  H18X 4384   2.183   4.743   5.073  0.8076 -0.7419  0.0415
   34DOPE  H18Y 4385   2.361   4.783   5.033 -0.4936  1.5273  1.5149
   34DOPE  H18Z 4386   2.235   4.758   4.912 -2.0855 -0.2509  1.0549
   35DOPE     N 4387   6.635   2.919   1.886 -0.3479  0.4209  0.3293
   35DOPE   HN1 4388   6.625   3.021   1.866  1.6947  0.9799  1.8260
   35DOPE   HN2 4389   6.727   2.901   1.930 -1.1592  1.6801  2.7088
   35DOPE   HN3 4390   6.640   2.873   1.793  1.5959  0.1572  0.5250
   35DOPE   C12 4391   6.527   2.869   1.968 -0.1683  0.3469 -0.3702
   35DOPE  H12A 4392   6.539   2.765   2.007  0.1069  0.8857  1.0692
   35DOPE  H12B 4393   6.445   2.875   1.894  0.3413 -1.9627 -1.2176
   35DOPE   C11 4394   6.486   2.970   2.088  0.1102 -0.0149  0.1228
   35DOPE  H11A 4395   6.573   2.966   2.157 -0.0873  0.4900  0.4053
   35DOPE  H11B 4396   6.407   2.926   2.153  1.1620 -1.7516  0.2982
   35DOPE     P 4397   6.315   3.147   2.033  0.4243 -0.3806 -0.0659
   35DOPE   O13 4398   6.242   3.060   1.941 -0.0697  0.5054  0.3657
   35DOPE   O14 4399   6.308   3.288   1.991  0.3483  0.1112  0.1484
   35DOPE   O11 4400   6.256   3.129   2.179 -0.0808  0.2474 -0.4331
   35DOPE   O12 4401   6.464   3.106   2.045 -0.4805 -0.0237 -0.0327
   35DOPE    C1 4402   6.318   3.189   2.295 -0.2935  0.0190  0.1004
   35DOPE    HA 4403   6.334   3.297   2.273  1.5040  0.0678  1.3926
   35DOPE    HB 4404   6.413   3.135   2.314  0.3778  0.1290 -2.5293
   35DOPE    C2 4405   6.216   3.189   2.421 -0.1867 -0.7549 -0.5545
   35DOPE    HS 4406   6.271   3.235   2.506 -1.9781  0.3091  0.0801
   35DOPE   O21 4407   6.173   3.061   2.450  0.5871  0.2170  0.6134
   35DOPE   C21 4408   6.256   2.980   2.517  0.5130  0.0418 -0.4700
   35DOPE   O22 4409   6.363   3.005   2.566  0.2884 -0.3005 -0.1661
   35DOPE   C22 4410   6.195   2.841   2.529 -0.1457 -0.5715 -0.0053
   35DOPE   H2R 4411   6.164   2.820   2.425 -0.3659  0.5410 -0.1813
   35DOPE   H2S 4412   6.103   2.853   2.590  0.1799  0.9057  0.2460
   35DOPE    C3 4413   6.086   3.269   2.387  0.3227  0.0154  0.0726
   35DOPE    HX 4414   6.053   3.228   2.290  0.8482  1.3888 -0.7209
   35DOPE    HY 4415   6.105   3.374   2.355  1.1954  0.0241  0.5818
   35DOPE   O31 4416   5.980   3.263   2.492 -0.3436 -0.0750  0.8914
   35DOPE   C31 4417   5.859   3.296   2.448 -0.0132 -0.2548 -1.4008
   35DOPE   O32 4418   5.830   3.336   2.335  0.2117  0.4416 -0.4736
   35DOPE   C32 4419   5.757   3.270   2.558  0.7286  0.2610  0.1890
   35DOPE   H2X 4420   5.796   3.307   2.655 -1.4981  2.4401  0.3519
   35DOPE   H2Y 4421   5.670   3.333   2.530 -1.4575 -2.8743 -0.5187
   35DOPE   C23 4422   6.283   2.731   2.590 -0.2542  0.2418 -0.5728
   35DOPE   H3R 4423   6.391   2.747   2.569 -0.0147 -0.0462  0.3928
   35DOPE   H3S 4424   6.260   2.639   2.532 -1.1478  1.9941 -3.2153
   35DOPE   C24 4425   6.261   2.706   2.746 -0.0708  0.0704 -0.2545
   35DOPE   H4R 4426   6.161   2.749   2.771  1.1882  1.7393  2.2936
   35DOPE   H4S 4427   6.335   2.772   2.796 -1.2794  2.7332 -1.7180
   35DOPE   C25 4428   6.275   2.564   2.790  0.0965  0.2221 -0.0635
   35DOPE   H5R 4429   6.367   2.520   2.746 -0.7090 -1.9320  0.2608
   35DOPE   H5S 4430   6.184   2.504   2.766 -1.8457  3.4610 -1.5020
   35DOPE   C26 4431   6.309   2.562   2.941  0.3947  0.2137  0.4280
   35DOPE   H6R 4432   6.233   2.621   2.998 -0.6918 -0.9040  0.1804
   35DOPE   H6S 4433   6.408   2.609   2.958 -0.3785  1.3916  1.9325
   35DOPE   C27 4434   6.303   2.417   3.004 -0.1259 -0.2649 -0.2222
   35DOPE   H7R 4435   6.397   2.370   2.968  0.0476  0.1559 -0.3240
   35DOPE   H7S 4436   6.213   2.368   2.961 -0.0297 -0.0377 -0.6927
   35DOPE   C28 4437   6.292   2.426   3.159 -0.1200  0.1495  0.8422
   35DOPE   H8R 4438   6.298   2.321   3.195  0.1461  0.2981  1.2502
   35DOPE   H8S 4439   6.200   2.478   3.193 -0.8232 -0.9745  0.7172
   35DOPE   C29 4440   6.407   2.499   3.226 -0.0663 -0.2479  0.2437
   35DOPE   H9R 4441   6.496   2.483   3.163 -0.2852 -2.1216  0.3661
   35DOPE  C210 4442   6.403   2.603   3.310 -0.2482  0.2631  0.0733
   35DOPE  H10R 4443   6.501   2.634   3.348  0.2434 -1.2513  0.0884
   35DOPE  C211 4444   6.290   2.660   3.389  0.0587  0.1108  0.0756
   35DOPE  H11R 4445   6.297   2.612   3.489 -1.1245  0.6541  0.4293
   35DOPE  H11S 4446   6.198   2.624   3.338 -1.3669  0.2455  2.4113
   35DOPE  C212 4447   6.282   2.813   3.404 -0.2244  0.5790 -0.0963
   35DOPE  H12R 4448   6.383   2.848   3.434  0.3882 -1.5792  0.5211
   35DOPE  H12S 4449   6.217   2.845   3.488  0.0198  0.5485  0.1056
   35DOPE  C213 4450   6.228   2.892   3.283  0.0295  0.5106  0.1318
   35DOPE  H13R 4451   6.306   2.901   3.204  0.2453 -3.4271 -0.3071
   35DOPE  H13S 4452   6.212   2.994   3.325  0.0336  0.4793  0.2084
   35DOPE  C214 4453   6.102   2.834   3.210  0.8604 -0.5374  0.4319
   35DOPE  H14R 4454   6.032   2.802   3.290 -0.3927 -0.0533 -0.4438
   35DOPE  H14S 4455   6.127   2.750   3.142  2.2006 -0.6517  1.0165
   35DOPE  C215 4456   6.027   2.935   3.117  0.3368  0.0469 -0.7294
   35DOPE  H15R 4457   5.995   3.016   3.186 -2.1568  0.0753 -1.7918
   35DOPE  H15S 4458   5.940   2.888   3.066 -1.6565  2.1042  0.5745
   35DOPE  C216 4459   6.121   3.000   3.010 -0.1238 -0.1012 -0.5813
   35DOPE  H16R 4460   6.163   2.929   2.936 -0.4426  1.8784 -2.7740
   35DOPE  H16S 4461   6.213   3.036   3.061  0.4465 -2.2596  0.0271
   35DOPE  C217 4462   6.066   3.130   2.937 -0.2103  0.0257 -0.2511
   35DOPE  H17R 4463   6.046   3.206   3.016 -0.4834 -0.1302 -0.1686
   35DOPE  H17S 4464   5.967   3.111   2.892  0.3867  0.3817 -1.7637
   35DOPE  C218 4465   6.161   3.186   2.835  0.4092  0.4006  0.7376
   35DOPE  H18R 4466   6.114   3.276   2.791 -1.9344 -2.1371 -2.3790
   35DOPE  H18S 4467   6.192   3.113   2.758  2.7542  1.0397  1.0010
   35DOPE  H18T 4468   6.258   3.218   2.879  0.2434  1.5171  0.3289
   35DOPE   C33 4469   5.701   3.128   2.556 -0.3901 -0.4273  0.4380
   35DOPE   H3X 4470   5.684   3.085   2.455 -0.0097  0.7822 -0.1474
   35DOPE   H3Y 4471   5.597   3.124   2.596 -0.9526  0.2507 -0.9113
   35DOPE   C34 4472   5.797   3.019   2.625 -0.3261 -0.5333 -0.7644
   35DOPE   H4X 4473   5.896   3.007   2.575 -1.3883  2.3530 -3.8792
   35DOPE   H4Y 4474   5.809   3.038   2.734  1.9902  0.6857 -1.1629
   35DOPE   C35 4475   5.724   2.880   2.623 -0.4198 -0.9381  0.5002
   35DOPE   H5X 4476   5.796   2.796   2.629 -1.0846 -1.6441 -0.9259
   35DOPE   H5Y 4477   5.661   2.870   2.532 -0.4659  0.9402  0.2790
   35DOPE   C36 4478   5.631   2.862   2.745  0.0035  0.2190 -0.0547
   35DOPE   H6X 4479   5.541   2.807   2.710  0.0821 -0.1430  0.3056
   35DOPE   H6Y 4480   5.594   2.963   2.774 -2.0217 -0.5537  0.2207
   35DOPE   C37 4481   5.700   2.807   2.865  0.7495  0.0397 -0.4809
   35DOPE   H7X 4482   5.726   2.701   2.843  0.8444 -0.0700  0.1473
   35DOPE   H7Y 4483   5.791   2.871   2.862 -0.2494  1.5374  0.0601
   35DOPE   C38 4484   5.612   2.798   2.999 -0.1310 -0.2150  0.2790
   35DOPE   H8X 4485   5.665   2.728   3.067 -2.4392 -1.9860  0.3549
   35DOPE   H8Y 4486   5.516   2.750   2.969 -0.5843  1.7633 -1.6985
   35DOPE   C39 4487   5.579   2.932   3.060  0.0195 -0.3291  0.3557
   35DOPE   H9X 4488   5.521   2.998   2.994  1.0546  1.4713  1.1751
   35DOPE  C310 4489   5.609   2.984   3.181  0.1048 -0.2289 -0.0903
   35DOPE  H10X 4490   5.583   3.090   3.195  0.9640 -0.0793  0.4220
   35DOPE  C311 4491   5.692   2.909   3.288 -0.1889  0.4694  0.9392
   35DOPE  H11X 4492   5.662   2.802   3.299  1.3113  0.0763  1.4407
   35DOPE  H11Y 4493   5.801   2.913   3.265 -0.5675  0.3603 -1.0248
   35DOPE  C312 4494   5.677   2.989   3.413  0.1349 -0.3092 -0.5318
   35DOPE  H12X 4495   5.577   2.983   3.461  0.7776  2.3766  1.3469
   35DOPE  H12Y 4496   5.678   3.098   3.392 -1.6407  0.4628  2.6724
   35DOPE  C313 4497   5.785   2.968   3.518  0.1814 -0.0962 -0.6501
   35DOPE  H13X 4498   5.763   2.878   3.580 -1.4725  1.3003  0.8882
   35DOPE  H13Y 4499   5.882   2.960   3.464 -0.2762  1.1737 -1.7093
   35DOPE  C314 4500   5.796   3.078   3.629 -0.7733 -0.7305  0.5925
   35DOPE  H14X 4501   5.691   3.105   3.654 -0.3250 -0.1861  1.9601
   35DOPE  H14Y 4502   5.849   3.169   3.594 -1.4085 -0.3136  0.7155
   35DOPE  C315 4503   5.875   3.031   3.755 -0.2409  0.6320  0.2351
   35DOPE  H15X 4504   5.983   3.043   3.731 -0.3796  1.5943  0.0533
   35DOPE  H15Y 4505   5.853   2.925   3.779  1.3333  0.3841  0.6989
   35DOPE  C316 4506   5.839   3.124   3.872 -0.2672  0.5137 -0.4924
   35DOPE  H16X 4507   5.731   3.110   3.890 -0.2065  2.5623  1.9043
   35DOPE  H16Y 4508   5.855   3.232   3.854 -1.2429  0.2948 -3.1336
   35DOPE  C317 4509   5.915   3.099   4.011  0.3978  0.3370  1.0872
   35DOPE  H17X 4510   5.889   2.995   4.043  2.9723 -0.7079  0.0711
   35DOPE  H17Y 4511   6.024   3.097   3.988 -0.0393 -1.1960 -1.2981
   35DOPE  C318 4512   5.864   3.199   4.117  0.0085 -0.3653  0.2215
   35DOPE  H18X 4513   5.768   3.167   4.161  0.6778  0.0603  2.0991
   35DOPE  H18Y 4514   5.935   3.194   4.202 -0.6193  0.4874  0.8156
   35DOPE  H18Z 4515   5.860   3.299   4.068 -0.8816 -1.6714 -2.5725
   36DOPE     N 4516   5.452   4.546   2.607  0.0427 -0.2529 -0.8886
   36DOPE   HN1 4517   5.414   4.637   2.639 -0.1386 -0.4550 -0.5222
   36DOPE   HN2 4518   5.546   4.577   2.577 -0.2670 -0.4863 -2.1468
   36DOPE   HN3 4519   5.401   4.526   2.519  1.5928 -0.3402 -1.7951
   36DOPE   C12 4520   5.457   4.439   2.715  0.1237  0.4148  0.1660
   36DOPE  H12A 4521   5.521   4.475   2.798  1.0433 -0.3254 -0.1996
   36DOPE  H12B 4522   5.500   4.345   2.674 -0.5832 -0.7629  1.9956
   36DOPE   C11 4523   5.320   4.411   2.771  0.4756 -0.6881 -0.3395
   36DOPE  H11A 4524   5.340   4.343   2.857  1.5755 -0.5569 -0.4748
   36DOPE  H11B 4525   5.264   4.368   2.685 -1.5756  1.3768 -0.1510
   36DOPE     P 4526   5.116   4.564   2.765 -0.1611  0.2528  0.1983
   36DOPE   O13 4527   5.030   4.442   2.781 -0.1706 -0.4238  0.3795
   36DOPE   O14 4528   5.130   4.608   2.619 -0.0251 -0.2498 -0.8084
   36DOPE   O11 4529   5.068   4.679   2.859 -0.9505 -0.8664  0.6052
   36DOPE   O12 4530   5.258   4.528   2.826  0.8410 -0.1177 -0.3145
   36DOPE    C1 4531   5.150   4.798   2.877  0.2424  0.5261 -0.2861
   36DOPE    HA 4532   5.135   4.863   2.788  1.2351 -0.8550 -1.4968
   36DOPE    HB 4533   5.258   4.775   2.869  0.0533 -0.5849  0.2216
   36DOPE    C2 4534   5.132   4.860   3.016 -0.0446 -0.7315 -0.7787
   36DOPE    HS 4535   5.222   4.919   3.043 -0.4444 -0.4382 -0.0578
   36DOPE   O21 4536   5.111   4.759   3.119 -1.1797 -0.5359 -0.4039
   36DOPE   C21 4537   5.223   4.691   3.155 -0.2304 -0.5929 -0.2478
   36DOPE   O22 4538   5.337   4.722   3.122  0.0383  0.0355 -0.4505
   36DOPE   C22 4539   5.186   4.560   3.234  0.1594 -0.5851 -0.0554
   36DOPE   H2R 4540   5.178   4.481   3.157 -0.7600 -1.3253  0.7715
   36DOPE   H2S 4541   5.094   4.582   3.292  0.8827 -0.1180  0.9522
   36DOPE    C3 4542   5.008   4.956   3.021 -0.1879  0.0990  0.0402
   36DOPE    HX 4543   4.923   4.908   2.968 -0.9856  1.0135  0.4641
   36DOPE    HY 4544   5.037   5.050   2.970  1.4569  0.1064  0.9180
   36DOPE   O31 4545   4.986   5.007   3.159 -0.3233  0.0224 -0.4251
   36DOPE   C31 4546   4.878   4.957   3.224 -0.7662  1.1538 -0.0081
   36DOPE   O32 4547   4.776   4.926   3.164  0.3230 -0.4416 -0.2588
   36DOPE   C32 4548   4.904   4.956   3.378  0.2278  0.1570 -0.1718
   36DOPE   H2X 4549   4.998   4.906   3.408  0.5544 -0.3507 -1.9184
   36DOPE   H2Y 4550   4.899   5.059   3.418  0.2465  0.2331 -0.3635
   36DOPE   C23 4551   5.288   4.509   3.334  1.0655 -0.2367  0.2558
   36DOPE   H3R 4552   5.247   4.446   3.416  2.1294 -2.3005 -0.7265
   36DOPE   H3S 4553   5.332   4.595   3.388  2.3469 -0.3495 -0.5698
   36DOPE   C24 4554   5.395   4.438   3.254  0.1474  0.0510 -0.3830
   36DOPE   H4R 4555   5.478   4.427   3.326 -0.6558  0.7594  0.6799
   36DOPE   H4S 4556   5.430   4.503   3.171  1.3026  1.0271  0.8339
   36DOPE   C25 4557   5.363   4.301   3.193  0.4188 -0.2773  0.0427
   36DOPE   H5R 4558   5.449   4.271   3.130 -0.2135  0.4183 -1.2098
   36DOPE   H5S 4559   5.270   4.306   3.132 -0.4817 -2.1395  1.1816
   36DOPE   C26 4560   5.341   4.186   3.299  0.1608  0.4436 -0.1586
   36DOPE   H6R 4561   5.291   4.242   3.381  1.4143 -0.4857  1.2991
   36DOPE   H6S 4562   5.447   4.167   3.329 -0.1503 -0.8214  0.1777
   36DOPE   C27 4563   5.257   4.059   3.248 -0.3737 -0.0039 -0.1504
   36DOPE   H7R 4564   5.147   4.076   3.251 -0.8832 -2.5097 -1.3485
   36DOPE   H7S 4565   5.269   3.976   3.321 -1.4064  1.3215  1.5852
   36DOPE   C28 4566   5.303   3.997   3.113  0.2278  0.6337  0.5775
   36DOPE   H8R 4567   5.390   3.932   3.140  1.8537  0.9303 -3.3751
   36DOPE   H8S 4568   5.345   4.076   3.048 -1.6213 -0.0764 -1.5999
   36DOPE   C29 4569   5.200   3.924   3.029  0.9811  0.0624 -0.3686
   36DOPE   H9R 4570   5.127   3.981   2.971 -0.3242  0.3128  1.4440
   36DOPE  C210 4571   5.187   3.792   3.019  0.5138  0.1200 -0.0690
   36DOPE  H10R 4572   5.105   3.753   2.957  2.2771  0.3246 -2.6852
   36DOPE  C211 4573   5.279   3.687   3.076  0.3155 -0.0443  0.8143
   36DOPE  H11R 4574   5.387   3.711   3.075  0.6847 -1.6055  0.4915
   36DOPE  H11S 4575   5.270   3.601   3.005  0.0661  1.5702 -1.2212
   36DOPE  C212 4576   5.245   3.637   3.216 -0.2097 -0.6669 -0.5963
   36DOPE  H12R 4577   5.282   3.699   3.301  1.0373 -1.1489 -0.7751
   36DOPE  H12S 4578   5.314   3.551   3.225  0.1413 -0.8755 -4.1255
   36DOPE  C213 4579   5.101   3.609   3.249 -0.3401 -0.3114 -0.1136
   36DOPE  H13R 4580   5.059   3.572   3.153  1.3068  0.8958 -1.3467
   36DOPE  H13S 4581   5.042   3.700   3.271 -1.3250 -1.0681  0.4890
   36DOPE  C214 4582   5.082   3.512   3.365 -0.3075  0.1444  0.4748
   36DOPE  H14R 4583   5.134   3.413   3.368  0.4993  0.4634 -1.4427
   36DOPE  H14S 4584   4.974   3.488   3.376 -0.3523  0.4460  0.7171
   36DOPE  C215 4585   5.117   3.580   3.498 -0.1733  0.5723  0.1243
   36DOPE  H15R 4586   5.046   3.665   3.514 -1.1637 -0.5696  2.2222
   36DOPE  H15S 4587   5.220   3.623   3.494  0.0125  0.0864 -0.4546
   36DOPE  C216 4588   5.106   3.484   3.612 -0.2301  0.7838 -0.3543
   36DOPE  H16R 4589   5.176   3.400   3.593 -1.0980 -0.1632  0.5366
   36DOPE  H16S 4590   5.014   3.422   3.614  1.1786 -1.3856 -0.1488
   36DOPE  C217 4591   5.132   3.551   3.751  0.6335  0.1560  0.3152
   36DOPE  H17R 4592   5.130   3.482   3.838 -1.4431  0.3404  0.4632
   36DOPE  H17S 4593   5.054   3.626   3.775 -2.5838 -1.5405 -3.6290
   36DOPE  C218 4594   5.267   3.628   3.759 -0.2597  0.1329 -0.1936
   36DOPE  H18R 4595   5.279   3.644   3.869 -0.2110 -0.9395 -0.0381
   36DOPE  H18S 4596   5.270   3.730   3.715 -2.2200  0.0275 -0.6546
   36DOPE  H18T 4597   5.357   3.575   3.722  0.3474  1.5727 -0.8556
   36DOPE   C33 4598   4.781   4.891   3.449  0.1722  0.2086  0.2170
   36DOPE   H3X 4599   4.806   4.784   3.464  0.9080  0.5978  2.0890
   36DOPE   H3Y 4600   4.684   4.905   3.397  0.7639 -1.4212 -1.4269
   36DOPE   C34 4601   4.783   4.934   3.593 -0.4457  0.1245  0.7886
   36DOPE   H4X 4602   4.873   4.896   3.645 -0.9684 -1.2612  0.7171
   36DOPE   H4Y 4603   4.780   5.045   3.594 -2.2236  0.1500 -0.8160
   36DOPE   C35 4604   4.659   4.893   3.678 -0.5722  0.2811  0.1872
   36DOPE   H5X 4605   4.646   4.782   3.680 -1.0375  0.3387  0.6361
   36DOPE   H5Y 4606   4.566   4.927   3.628 -1.3170 -0.6480  0.8888
   36DOPE   C36 4607   4.672   4.936   3.825  0.7681 -0.5330  0.2202
   36DOPE   H6X 4608   4.675   5.047   3.834 -1.3515 -0.5736  2.4183
   36DOPE   H6Y 4609   4.762   4.893   3.873  0.2955 -1.8716 -0.0312
   36DOPE   C37 4610   4.544   4.897   3.906  0.4502  0.1997  0.4067
   36DOPE   H7X 4611   4.453   4.910   3.843  0.3725 -2.8027 -0.2232
   36DOPE   H7Y 4612   4.538   4.787   3.913  0.5396  0.0084 -1.7743
   36DOPE   C38 4613   4.538   4.974   4.043 -0.4629  0.1354  0.4892
   36DOPE   H8X 4614   4.442   4.950   4.093  1.0266  1.6535  4.5002
   36DOPE   H8Y 4615   4.536   5.080   4.008 -0.8538  0.0368  0.2029
   36DOPE   C39 4616   4.661   4.934   4.129 -0.4498  0.4745  0.1836
   36DOPE   H9X 4617   4.753   4.988   4.101  0.0270 -0.0208  0.7954
   36DOPE  C310 4618   4.661   4.853   4.241 -0.0256  0.5760  0.2942
   36DOPE  H10X 4619   4.761   4.847   4.286  1.3064 -0.1024 -2.5688
   36DOPE  C311 4620   4.543   4.785   4.317  0.5079 -0.4965 -0.7639
   36DOPE  H11X 4621   4.479   4.735   4.241 -2.2991  1.6548  0.0343
   36DOPE  H11Y 4622   4.580   4.704   4.384  1.4260  1.2481  0.9457
   36DOPE  C312 4623   4.471   4.892   4.394 -0.4559 -0.0584  0.2265
   36DOPE  H12X 4624   4.444   4.969   4.319  0.9100  0.4356  0.2055
   36DOPE  H12Y 4625   4.535   4.950   4.464 -0.5295  1.4143 -0.8688
   36DOPE  C313 4626   4.338   4.855   4.464  0.3844 -0.4363 -0.1680
   36DOPE  H13X 4627   4.311   4.932   4.539  2.8477  0.8898 -0.5261
   36DOPE  H13Y 4628   4.253   4.855   4.393 -1.7145  0.1565  2.1902
   36DOPE  C314 4629   4.336   4.721   4.538  0.5568 -0.1753 -0.2486
   36DOPE  H14X 4630   4.403   4.735   4.625  1.7895  1.5797 -1.3980
   36DOPE  H14Y 4631   4.363   4.642   4.465  2.0138  0.3867 -0.3624
   36DOPE  C315 4632   4.196   4.685   4.593 -0.4674  0.0438  0.2921
   36DOPE  H15X 4633   4.117   4.674   4.516  0.4903  0.5493 -0.7901
   36DOPE  H15Y 4634   4.171   4.768   4.662  0.0803 -0.0077  0.5607
   36DOPE  C316 4635   4.189   4.560   4.683 -0.3507 -0.5980  0.2229
   36DOPE  H16X 4636   4.248   4.576   4.776 -0.4399  1.9355 -0.0931
   36DOPE  H16Y 4637   4.230   4.476   4.622 -0.9191 -0.3284 -0.5484
   36DOPE  C317 4638   4.046   4.545   4.717 -0.3877  0.0145 -0.0929
   36DOPE  H17X 4639   4.020   4.633   4.781 -0.1885 -0.7026  0.9955
   36DOPE  H17Y 4640   3.979   4.537   4.628  1.0900  0.1692 -1.2509
   36DOPE  C318 4641   4.021   4.419   4.799 -0.0900  0.1975  0.0351
   36DOPE  H18X 4642   3.912   4.401   4.787 -0.1855  1.0709 -0.5025
   36DOPE  H18Y 4643   4.065   4.327   4.757 -1.4369  0.0022 -1.0378
   36DOPE  H18Z 4644   4.034   4.430   4.909 -1.6192  1.5701  0.1205
   37DOPE     N 4645   2.587   2.389   2.591 -0.0955  0.1560 -0.8177
   37DOPE   HN1 4646   2.549   2.353   2.501  1.3538 -1.4659 -0.8164
   37DOPE   HN2 4647   2.604   2.492   2.583 -3.0585  0.7702 -0.6026
   37DOPE   HN3 4648   2.667   2.338   2.633 -0.6311  1.1815  1.6260
   37DOPE   C12 4649   2.477   2.368   2.688  0.3126 -0.1207 -0.3821
   37DOPE  H12A 4650   2.494   2.434   2.776  2.6148 -1.8634  0.5798
   37DOPE  H12B 4651   2.484   2.265   2.729  3.1458  0.2636  0.3280
   37DOPE   C11 4652   2.336   2.388   2.623  0.2701  0.0249  0.3472
   37DOPE  H11A 4653   2.261   2.388   2.705  0.2601 -0.5370  0.3408
   37DOPE  H11B 4654   2.308   2.300   2.561  1.2309  0.0051 -0.0836
   37DOPE     P 4655   2.208   2.606   2.557 -0.1839 -0.0214  0.3019
   37DOPE   O13 4656   2.094   2.515   2.548  0.6840 -0.3026  0.1846
   37DOPE   O14 4657   2.216   2.718   2.455 -0.1518  0.7338 -0.1194
   37DOPE   O11 4658   2.216   2.674   2.698  0.2219  0.0326  0.3699
   37DOPE   O12 4659   2.335   2.512   2.540 -0.2295 -0.0086 -0.4494
   37DOPE    C1 4660   2.323   2.756   2.744 -0.7233  1.0197  0.3929
   37DOPE    HA 4661   2.322   2.856   2.696 -1.0715  0.4044 -0.9192
   37DOPE    HB 4662   2.410   2.698   2.707 -1.9328  0.3411 -1.5322
   37DOPE    C2 4663   2.311   2.767   2.897 -0.0304 -0.6685 -0.1325
   37DOPE    HS 4664   2.218   2.825   2.916 -0.3457 -0.1267 -2.9311
   37DOPE   O21 4665   2.431   2.833   2.946 -0.0999  0.1852  0.4074
   37DOPE   C21 4666   2.412   2.949   3.001  0.0240  0.2278  0.1778
   37DOPE   O22 4667   2.305   2.995   3.043  0.5507  0.1056  0.7291
   37DOPE   C22 4668   2.554   3.014   3.010 -0.0780 -0.1984  0.3208
   37DOPE   H2R 4669   2.590   3.020   2.906 -0.0327 -0.2602  0.3326
   37DOPE   H2S 4670   2.622   2.941   3.060 -0.0200 -0.8249 -0.6467
   37DOPE    C3 4671   2.293   2.633   2.964  0.1729  0.8228  0.9029
   37DOPE    HX 4672   2.381   2.571   2.935  0.7976  1.3959  1.5218
   37DOPE    HY 4673   2.201   2.599   2.913  0.2543  1.8024  0.0953
   37DOPE   O31 4674   2.279   2.654   3.101  0.1234 -0.1480  0.0594
   37DOPE   C31 4675   2.391   2.642   3.175 -0.4104  0.1846 -0.1761
   37DOPE   O32 4676   2.504   2.637   3.125  0.5168 -0.4411 -0.5977
   37DOPE   C32 4677   2.365   2.649   3.327  0.3137  0.2482 -1.4247
   37DOPE   H2X 4678   2.323   2.750   3.346 -2.6575 -0.9662 -0.9705
   37DOPE   H2Y 4679   2.281   2.581   3.353  0.0344  0.8737 -0.6682
   37DOPE   C23 4680   2.556   3.149   3.090 -0.1588 -0.5029  0.5995
   37DOPE   H3R 4681   2.525   3.127   3.194  0.9071  0.0563  1.0447
   37DOPE   H3S 4682   2.485   3.223   3.048 -0.6123  0.3600  2.7517
   37DOPE   C24 4683   2.696   3.209   3.086  0.0581  0.9173 -0.0598
   37DOPE   H4R 4684   2.691   3.306   3.140 -0.9264 -0.2285  2.0344
   37DOPE   H4S 4685   2.731   3.232   2.983  0.8442  0.0197 -0.0050
   37DOPE   C25 4686   2.802   3.120   3.160 -0.0462 -0.4233  0.3949
   37DOPE   H5R 4687   2.906   3.158   3.155  0.4071 -1.4241  1.6549
   37DOPE   H5S 4688   2.800   3.020   3.111  0.3958  0.5384 -1.7132
   37DOPE   C26 4689   2.762   3.105   3.304 -0.5641 -0.4361 -0.5622
   37DOPE   H6R 4690   2.673   3.041   3.320  0.1864 -1.0124  1.6864
   37DOPE   H6S 4691   2.742   3.211   3.333 -0.0564 -0.5793  0.3524
   37DOPE   C27 4692   2.884   3.047   3.390  0.4046  0.0534 -0.1703
   37DOPE   H7R 4693   2.978   3.089   3.349 -0.5883  1.7975 -0.7626
   37DOPE   H7S 4694   2.885   2.938   3.367 -0.9648 -0.3071  1.2770
   37DOPE   C28 4695   2.866   3.084   3.537 -0.7186  0.3051  0.3568
   37DOPE   H8R 4696   2.763   3.067   3.574 -0.4328  1.0714  1.5353
   37DOPE   H8S 4697   2.885   3.193   3.540 -1.2023  0.3808  0.6895
   37DOPE   C29 4698   2.957   3.006   3.632 -0.0264  0.3664 -0.0201
   37DOPE   H9R 4699   3.037   2.947   3.584 -0.5573  1.5739 -2.5310
   37DOPE  C210 4700   2.948   3.006   3.767  0.4338  0.4397  0.4124
   37DOPE  H10R 4701   3.013   2.943   3.830 -0.2106 -0.8349 -0.1697
   37DOPE  C211 4702   2.842   3.073   3.854 -0.3255 -0.1062  0.0898
   37DOPE  H11R 4703   2.840   3.026   3.954 -1.9356 -1.3464 -0.4744
   37DOPE  H11S 4704   2.745   3.068   3.799 -0.1061  1.6666 -0.5295
   37DOPE  C212 4705   2.859   3.228   3.889  0.2104 -0.7111  0.2037
   37DOPE  H12R 4706   2.863   3.291   3.798  2.2074 -0.1625  0.6240
   37DOPE  H12S 4707   2.959   3.239   3.936  0.2162 -0.3038  0.0967
   37DOPE  C213 4708   2.759   3.273   3.989 -0.1629 -0.1634 -0.2472
   37DOPE  H13R 4709   2.797   3.366   4.035 -0.5055  0.4081 -1.0957
   37DOPE  H13S 4710   2.748   3.204   4.076  1.3969 -0.3085 -0.1307
   37DOPE  C214 4711   2.619   3.293   3.935 -0.3970  0.4504 -0.4704
   37DOPE  H14R 4712   2.583   3.195   3.896  0.5318 -0.4120  0.7453
   37DOPE  H14S 4713   2.611   3.365   3.851 -0.9303  1.4516  0.4181
   37DOPE  C215 4714   2.515   3.339   4.056 -0.4063 -0.4197 -0.0125
   37DOPE  H15R 4715   2.550   3.443   4.072 -0.4830 -0.0516 -1.9407
   37DOPE  H15S 4716   2.536   3.279   4.147 -0.6856 -1.7560 -0.7931
   37DOPE  C216 4717   2.368   3.335   4.013  0.3366  0.5253  0.2328
   37DOPE  H16R 4718   2.379   3.355   3.905 -1.5706 -1.2755 -0.3565
   37DOPE  H16S 4719   2.319   3.417   4.069 -4.9083 -1.4715 -0.8731
   37DOPE  C217 4720   2.291   3.206   4.052  0.0749 -0.3115 -0.5095
   37DOPE  H17R 4721   2.270   3.205   4.161  0.7342  2.4187 -0.2831
   37DOPE  H17S 4722   2.361   3.123   4.028  2.7812  0.9836  2.3033
   37DOPE  C218 4723   2.155   3.175   3.985  0.3873 -0.6105  0.7162
   37DOPE  H18R 4724   2.165   3.214   3.882 -0.1946  1.6328  1.4556
   37DOPE  H18S 4725   2.081   3.247   4.026 -1.7249 -1.3903 -1.4785
   37DOPE  H18T 4726   2.119   3.072   4.003  0.4712 -0.1731  3.9827
   37DOPE   C33 4727   2.486   2.612   3.417  0.0035 -0.4298 -0.3943
   37DOPE   H3X 4728   2.561   2.694   3.416 -1.5752  1.1587  1.6610
   37DOPE   H3Y 4729   2.525   2.522   3.365 -0.2690 -0.8761  0.1721
   37DOPE   C34 4730   2.456   2.583   3.566  0.0141  0.3352 -0.0089
   37DOPE   H4X 4731   2.366   2.518   3.581  0.5411 -0.3948  0.0481
   37DOPE   H4Y 4732   2.537   2.519   3.606  0.0286 -0.2190 -0.9110
   37DOPE   C35 4733   2.431   2.699   3.655  0.9560 -0.3928 -0.5921
   37DOPE   H5X 4734   2.328   2.731   3.629  0.4564  0.5755  2.2565
   37DOPE   H5Y 4735   2.500   2.785   3.637  1.3862 -0.3947  0.9439
   37DOPE   C36 4736   2.437   2.670   3.803 -0.0221 -0.1647  0.1571
   37DOPE   H6X 4737   2.541   2.683   3.842 -0.0856  2.5670 -0.3913
   37DOPE   H6Y 4738   2.398   2.568   3.820 -0.2212 -0.3675 -1.3966
   37DOPE   C37 4739   2.358   2.774   3.881 -0.3400  0.0841 -0.4296
   37DOPE   H7X 4740   2.390   2.879   3.870  2.9329 -0.7015  0.3444
   37DOPE   H7Y 4741   2.252   2.770   3.847 -0.4850  0.7975 -0.0676
   37DOPE   C38 4742   2.365   2.740   4.032 -0.5049 -0.3571  0.2509
   37DOPE   H8X 4743   2.367   2.630   4.046  0.4054 -0.5701 -1.3280
   37DOPE   H8Y 4744   2.278   2.780   4.089  0.0136  2.7337 -0.9062
   37DOPE   C39 4745   2.497   2.785   4.089  0.1740 -0.0597  0.1620
   37DOPE   H9X 4746   2.586   2.752   4.033 -0.4728 -0.5387 -0.6013
   37DOPE  C310 4747   2.513   2.826   4.215  0.7329 -0.0998 -0.0383
   37DOPE  H10X 4748   2.612   2.853   4.254  0.6012  0.5998 -0.1839
   37DOPE  C311 4749   2.411   2.845   4.322  0.3903  0.2731  0.0674
   37DOPE  H11X 4750   2.431   2.943   4.370  2.2107  0.4316 -0.8979
   37DOPE  H11Y 4751   2.308   2.830   4.284  0.0823 -1.3000  1.3876
   37DOPE  C312 4752   2.425   2.734   4.430  0.6714 -0.4361 -0.2126
   37DOPE  H12X 4753   2.526   2.737   4.476  0.3910 -3.2165  0.7886
   37DOPE  H12Y 4754   2.415   2.637   4.378 -0.3365 -0.2572 -0.3740
   37DOPE  C313 4755   2.316   2.745   4.533  0.3396  0.3832 -0.3920
   37DOPE  H13X 4756   2.294   2.852   4.554  0.8215  0.7010 -1.4369
   37DOPE  H13Y 4757   2.215   2.705   4.506  0.8813 -1.0318 -0.3932
   37DOPE  C314 4758   2.336   2.658   4.656  0.0678 -0.3992 -0.8904
   37DOPE  H14X 4759   2.298   2.712   4.746  0.8359 -0.0418 -0.7767
   37DOPE  H14Y 4760   2.444   2.631   4.661  0.0747 -0.5197 -1.6237
   37DOPE  C315 4761   2.248   2.530   4.653  0.6729 -0.0442 -0.5112
   37DOPE  H15X 4762   2.292   2.475   4.567  0.3462 -0.0405 -0.6794
   37DOPE  H15Y 4763   2.147   2.572   4.634  1.0670  1.1555 -0.0494
   37DOPE  C316 4764   2.262   2.448   4.778  0.3842  0.3075  1.0055
   37DOPE  H16X 4765   2.223   2.497   4.870 -0.1886  0.5883  0.6184
   37DOPE  H16Y 4766   2.370   2.425   4.794  0.5650 -1.1843 -1.7689
   37DOPE  C317 4767   2.192   2.317   4.755 -0.3076 -0.2940  0.4423
   37DOPE  H17X 4768   2.087   2.347   4.732  0.4742  3.3865  0.9734
   37DOPE  H17Y 4769   2.243   2.268   4.670 -2.4014 -1.4799 -0.2179
   37DOPE  C318 4770   2.190   2.220   4.872 -0.5685 -0.1786 -0.1122
   37DOPE  H18X 4771   2.129   2.255   4.958 -1.2596 -3.3824  0.8257
   37DOPE  H18Y 4772   2.144   2.130   4.828  2.1732 -0.8348 -1.8990
   37DOPE  H18Z 4773   2.294   2.199   4.906  0.4499  0.5595 -2.5340
   38DOPE     N 4774   5.908   4.203   2.277  0.0722  0.7205 -0.0694
   38DOPE   HN1 4775   5.831   4.198   2.347  0.9259 -0.0548  0.8452
   38DOPE   HN2 4776   5.919   4.109   2.234 -1.5974  0.9121 -1.0032
   38DOPE   HN3 4777   5.996   4.239   2.318  1.1237 -1.3732 -0.3583
   38DOPE   C12 4778   5.857   4.285   2.162 -0.2962  0.4052  0.0166
   38DOPE  H12A 4779   5.767   4.230   2.127  0.0395  0.3292 -0.7327
   38DOPE  H12B 4780   5.938   4.288   2.086  2.0843 -0.6821  2.3612
   38DOPE   C11 4781   5.826   4.431   2.202 -0.2183  0.2034 -0.5938
   38DOPE  H11A 4782   5.775   4.479   2.116  2.1118 -0.1625 -2.3083
   38DOPE  H11B 4783   5.932   4.463   2.214 -0.5690  0.8580  0.8989
   38DOPE     P 4784   5.751   4.584   2.390 -0.1004  0.0903  0.0940
   38DOPE   O13 4785   5.694   4.566   2.523 -0.0244 -0.0822  0.0708
   38DOPE   O14 4786   5.688   4.683   2.295  0.1284 -0.0850 -0.3876
   38DOPE   O11 4787   5.907   4.616   2.390  0.6413  0.3971  0.2720
   38DOPE   O12 4788   5.745   4.437   2.320  0.5081 -0.4776 -0.1511
   38DOPE    C1 4789   6.000   4.528   2.452  0.3825 -0.2887  0.2686
   38DOPE    HA 4790   6.091   4.513   2.391  2.2064 -1.5615  3.1447
   38DOPE    HB 4791   5.962   4.424   2.457  0.8899 -0.4478  0.7719
   38DOPE    C2 4792   6.058   4.587   2.585  0.1563 -0.0536 -0.1308
   38DOPE    HS 4793   6.128   4.511   2.625 -1.3346 -1.8327 -0.7488
   38DOPE   O21 4794   5.955   4.609   2.680  0.1635 -0.0870 -0.1341
   38DOPE   C21 4795   5.906   4.504   2.739  0.2548  0.7077 -0.4350
   38DOPE   O22 4796   5.933   4.384   2.712  0.0177 -0.2340 -0.1801
   38DOPE   C22 4797   5.814   4.540   2.855 -0.2977  0.1227 -0.1004
   38DOPE   H2R 4798   5.712   4.556   2.812 -1.0832 -1.8790  0.8455
   38DOPE   H2S 4799   5.859   4.629   2.903 -0.1500  0.8337 -1.5019
   38DOPE    C3 4800   6.122   4.725   2.566  0.1440  0.0461  0.4011
   38DOPE    HX 4801   6.054   4.800   2.519 -0.3302  0.0408  1.0765
   38DOPE    HY 4802   6.200   4.713   2.488  0.3972  1.3868  0.4140
   38DOPE   O31 4803   6.187   4.761   2.697 -0.4052 -0.0597  0.0856
   38DOPE   C31 4804   6.122   4.859   2.756  0.2534  1.1938 -0.1156
   38DOPE   O32 4805   6.031   4.921   2.711  0.1832 -0.1812  0.4250
   38DOPE   C32 4806   6.178   4.890   2.891  0.0703  0.1743 -0.7780
   38DOPE   H2X 4807   6.263   4.822   2.912 -0.0740  0.1160 -0.3654
   38DOPE   H2Y 4808   6.216   4.995   2.895  1.0971 -0.2146  0.7858
   38DOPE   C23 4809   5.805   4.434   2.966  0.2549 -0.0083 -0.7209
   38DOPE   H3R 4810   5.910   4.412   2.996  0.2343 -0.3764 -0.9094
   38DOPE   H3S 4811   5.777   4.340   2.914  2.6809 -0.2917 -1.6648
   38DOPE   C24 4812   5.721   4.472   3.093  0.4462  0.8844  0.4551
   38DOPE   H4R 4813   5.672   4.388   3.147 -0.0176  1.7476  1.4151
   38DOPE   H4S 4814   5.632   4.531   3.061 -0.0323 -0.5536 -0.9803
   38DOPE   C25 4815   5.780   4.562   3.195  0.5760 -0.7941 -0.5145
   38DOPE   H5R 4816   5.703   4.601   3.264  2.1537  1.1631  0.2287
   38DOPE   H5S 4817   5.809   4.653   3.139 -1.3552  1.2594  1.5734
   38DOPE   C26 4818   5.905   4.517   3.276 -0.0657  0.3581  0.1445
   38DOPE   H6R 4819   5.971   4.447   3.221 -1.2342 -1.5298  1.0675
   38DOPE   H6S 4820   5.866   4.457   3.361 -2.0980  3.1591  1.3556
   38DOPE   C27 4821   5.989   4.635   3.328  0.2311 -0.5859 -0.0568
   38DOPE   H7R 4822   5.937   4.733   3.320  0.2420 -0.5777 -0.0288
   38DOPE   H7S 4823   6.073   4.648   3.256  0.7397  0.4016  0.6869
   38DOPE   C28 4824   6.053   4.618   3.467  0.3020  0.4280  0.7554
   38DOPE   H8R 4825   6.152   4.663   3.442  0.2984 -0.6935 -1.5967
   38DOPE   H8S 4826   6.053   4.509   3.488  2.7275  0.3540  0.6184
   38DOPE   C29 4827   5.973   4.680   3.578  0.1212 -0.3549 -0.0841
   38DOPE   H9R 4828   5.885   4.621   3.608  0.1381 -1.1861 -1.5776
   38DOPE  C210 4829   5.992   4.805   3.627 -0.3499 -0.5419 -0.1728
   38DOPE  H10R 4830   5.941   4.825   3.723  1.7971  0.6696  0.7745
   38DOPE  C211 4831   6.090   4.908   3.582 -0.9817  0.3911 -0.6010
   38DOPE  H11R 4832   6.146   4.866   3.495 -0.5991  0.7817 -0.5413
   38DOPE  H11S 4833   6.169   4.924   3.658 -0.9743 -1.6894 -0.1003
   38DOPE  C212 4834   6.026   5.042   3.547  0.2979 -0.4544  0.0655
   38DOPE  H12R 4835   5.946   5.068   3.619  0.3003  1.0215 -0.4449
   38DOPE  H12S 4836   5.966   5.030   3.454 -0.5751 -0.8485  0.6657
   38DOPE  C213 4837   6.121   5.163   3.520 -0.6381  0.0992 -0.5374
   38DOPE  H13R 4838   6.174   5.164   3.423 -2.7293 -0.1759 -1.7327
   38DOPE  H13S 4839   6.189   5.155   3.608 -0.1773 -0.9071 -0.9684
   38DOPE  C214 4840   6.054   5.295   3.540 -0.4092 -0.4354  0.2672
   38DOPE  H14R 4841   6.014   5.295   3.644 -2.0435  0.0834 -0.3201
   38DOPE  H14S 4842   5.963   5.302   3.476 -0.7341 -1.7031  0.5671
   38DOPE  C215 4843   6.142   5.413   3.511 -0.2835 -1.4974  0.1458
   38DOPE  H15R 4844   6.081   5.506   3.516 -1.1832 -2.1211  1.8531
   38DOPE  H15S 4845   6.174   5.408   3.405  1.3238 -1.3548  0.5968
   38DOPE  C216 4846   6.267   5.447   3.598 -0.1842 -0.2561 -0.0010
   38DOPE  H16R 4847   6.304   5.548   3.567  0.2803  0.2872  2.1648
   38DOPE  H16S 4848   6.343   5.372   3.566 -1.6263 -2.1225  0.8202
   38DOPE  C217 4849   6.240   5.437   3.744 -0.3689 -0.1193  0.6718
   38DOPE  H17R 4850   6.245   5.330   3.776 -1.0016 -0.3373  0.0537
   38DOPE  H17S 4851   6.138   5.471   3.770 -0.1647 -0.4412  2.0096
   38DOPE  C218 4852   6.350   5.504   3.826  0.0860 -0.4507  0.1261
   38DOPE  H18R 4853   6.336   5.472   3.932  1.4912  0.9883  0.7894
   38DOPE  H18S 4854   6.345   5.614   3.838 -1.5080 -0.1216 -2.7570
   38DOPE  H18T 4855   6.454   5.476   3.797  0.1100  0.0241 -0.2522
   38DOPE   C33 4856   6.074   4.863   3.005  0.9067  0.2863 -0.4974
   38DOPE   H3X 4857   6.129   4.873   3.101  3.1273 -0.2275 -1.6555
   38DOPE   H3Y 4858   6.036   4.759   3.004 -0.6698  0.8043  0.8982
   38DOPE   C34 4859   5.954   4.965   2.993 -0.1852 -1.3885 -0.1065
   38DOPE   H4X 4860   6.004   5.057   2.955  2.0932 -2.6575 -0.3405
   38DOPE   H4Y 4861   5.887   4.932   2.911 -0.8232 -3.7199  1.2680
   38DOPE   C35 4862   5.884   4.982   3.125 -0.2747  0.1433 -0.2747
   38DOPE   H5X 4863   5.961   5.004   3.202  0.1803 -0.1035 -0.6583
   38DOPE   H5Y 4864   5.840   4.883   3.152 -0.9892  0.5049 -0.0816
   38DOPE   C36 4865   5.778   5.093   3.115 -0.7183  0.0013  0.5872
   38DOPE   H6X 4866   5.716   5.063   3.027 -1.5643 -0.7813  1.4240
   38DOPE   H6Y 4867   5.810   5.197   3.090 -0.3245  0.0646  1.3277
   38DOPE   C37 4868   5.702   5.096   3.245 -0.2110 -0.5263 -0.2093
   38DOPE   H7X 4869   5.663   4.995   3.273 -0.6911  0.3586  2.6211
   38DOPE   H7Y 4870   5.765   5.135   3.328 -0.6170  0.4729 -0.3632
   38DOPE   C38 4871   5.584   5.185   3.252  0.4142 -0.3840  0.5792
   38DOPE   H8X 4872   5.614   5.292   3.252  0.7482 -0.4739 -0.3183
   38DOPE   H8Y 4873   5.534   5.185   3.352 -2.3762 -2.6776 -0.6890
   38DOPE   C39 4874   5.476   5.170   3.147 -0.3720 -0.0838  0.1170
   38DOPE   H9X 4875   5.510   5.193   3.045  2.0514 -1.1927  0.5818
   38DOPE  C310 4876   5.347   5.147   3.177 -0.7073 -0.3213  1.2724
   38DOPE  H10X 4877   5.283   5.134   3.088  2.0015 -2.4555 -0.5523
   38DOPE  C311 4878   5.287   5.120   3.309 -0.5380 -0.5713  0.3287
   38DOPE  H11X 4879   5.312   5.209   3.369 -0.7935 -0.3008  0.0367
   38DOPE  H11Y 4880   5.176   5.122   3.312 -0.6658 -2.0939 -1.1925
   38DOPE  C312 4881   5.337   4.985   3.368 -0.3653  0.3032  0.2333
   38DOPE  H12X 4882   5.438   4.960   3.329 -0.4259 -0.4910  0.5819
   38DOPE  H12Y 4883   5.281   4.897   3.330 -0.9498  0.5971  0.3983
   38DOPE  C313 4884   5.351   4.995   3.531  0.0664 -0.3253  0.5376
   38DOPE  H13X 4885   5.396   4.900   3.566  2.1759  0.8621  1.1755
   38DOPE  H13Y 4886   5.412   5.084   3.554 -0.9362  0.1000  1.6242
   38DOPE  C314 4887   5.220   5.022   3.610  0.6128  0.2772  0.5355
   38DOPE  H14X 4888   5.140   4.949   3.586 -0.2527  1.5103 -0.4839
   38DOPE  H14Y 4889   5.193   5.124   3.577  0.4441 -0.7852 -3.1271
   38DOPE  C315 4890   5.245   5.018   3.769 -0.6682 -0.0249  0.2683
   38DOPE  H15X 4891   5.337   5.077   3.790  0.2690 -0.8681 -1.2362
   38DOPE  H15Y 4892   5.280   4.913   3.783 -0.5243  0.1153  0.9805
   38DOPE  C316 4893   5.121   5.053   3.855  0.1410  0.3225  0.1817
   38DOPE  H16X 4894   5.136   5.023   3.961 -0.1625  0.2702  0.2081
   38DOPE  H16Y 4895   5.040   4.990   3.814 -1.1117  1.5625  0.6721
   38DOPE  C317 4896   5.073   5.195   3.854 -0.4075 -0.5536 -0.1063
   38DOPE  H17X 4897   5.147   5.267   3.896  0.7979 -0.7236 -1.8130
   38DOPE  H17Y 4898   5.047   5.226   3.750 -1.4401 -0.1446  0.2631
   38DOPE  C318 4899   4.951   5.206   3.946 -0.1590 -0.0426  1.0414
   38DOPE  H18X 4900   4.970   5.140   4.033  0.7829  0.3573  1.1543
   38DOPE  H18Y 4901   4.949   5.310   3.985 -1.0294  0.7734 -1.0091
   38DOPE  H18Z 4902   4.862   5.184   3.884 -0.0347  0.5699  0.6345
   39DOPE     N 4903   2.005   3.507   2.586 -0.8205 -0.5396 -0.7941
   39DOPE   HN1 4904   1.919   3.462   2.549 -1.8565 -0.3114  1.1734
   39DOPE   HN2 4905   2.024   3.591   2.528 -0.4397  0.9507  1.3395
   39DOPE   HN3 4906   2.081   3.438   2.566  0.7084  1.0520 -0.7732
   39DOPE   C12 4907   2.005   3.558   2.726 -0.1945  0.4595  0.2964
   39DOPE  H12A 4908   1.930   3.502   2.786  0.8784 -0.3299  0.9611
   39DOPE  H12B 4909   1.992   3.668   2.730 -1.5148  0.3105  0.4870
   39DOPE   C11 4910   2.143   3.525   2.786  0.1246  0.0684 -0.2566
   39DOPE  H11A 4911   2.148   3.414   2.793 -2.0484  0.0100  1.4777
   39DOPE  H11B 4912   2.152   3.549   2.894  0.9198 -0.9210 -0.0882
   39DOPE     P 4913   2.318   3.718   2.710  0.4606  0.2337  0.0323
   39DOPE   O13 4914   2.216   3.821   2.666 -0.0683 -0.2117  0.1668
   39DOPE   O14 4915   2.444   3.725   2.636 -0.0215  0.3917 -0.5630
   39DOPE   O11 4916   2.344   3.737   2.865 -0.3628  0.1992  0.1733
   39DOPE   O12 4917   2.255   3.578   2.703 -0.0954  0.8470  0.8878
   39DOPE    C1 4918   2.385   3.863   2.925  0.3632  0.4710  0.0445
   39DOPE    HA 4919   2.329   3.949   2.881 -2.1075 -1.3875 -0.7018
   39DOPE    HB 4920   2.494   3.881   2.914  0.3968 -0.2192 -0.8497
   39DOPE    C2 4921   2.361   3.860   3.077  0.2464  0.2142  0.0024
   39DOPE    HS 4922   2.387   3.960   3.117  1.5347  0.0251 -0.3179
   39DOPE   O21 4923   2.433   3.754   3.144 -0.5219  0.2416  0.1636
   39DOPE   C21 4924   2.546   3.792   3.212  0.4233  0.7628  0.1781
   39DOPE   O22 4925   2.591   3.904   3.220 -0.1478  0.4240 -0.0896
   39DOPE   C22 4926   2.608   3.659   3.261 -0.7087 -0.3801 -0.3637
   39DOPE   H2R 4927   2.678   3.619   3.185  0.4718 -0.3281  0.6716
   39DOPE   H2S 4928   2.532   3.580   3.277  0.5685 -1.1696  2.3474
   39DOPE    C3 4929   2.209   3.828   3.110 -0.6915 -0.4930 -0.2076
   39DOPE    HX 4930   2.160   3.760   3.037 -1.7137 -0.0341  0.0435
   39DOPE    HY 4931   2.153   3.923   3.097  0.8186  0.6851  1.4507
   39DOPE   O31 4932   2.183   3.779   3.244 -0.2441  0.0666  0.2333
   39DOPE   C31 4933   2.186   3.871   3.337 -0.3601 -0.4222  0.1599
   39DOPE   O32 4934   2.205   3.989   3.318 -0.2602 -0.2616  0.0509
   39DOPE   C32 4935   2.176   3.807   3.471  0.4842  0.1505 -0.1565
   39DOPE   H2X 4936   2.072   3.770   3.482  0.4198  0.4497  0.2797
   39DOPE   H2Y 4937   2.250   3.724   3.477  1.3663  0.8852 -0.7568
   39DOPE   C23 4938   2.697   3.688   3.387 -0.2893 -0.1835 -0.2157
   39DOPE   H3R 4939   2.764   3.773   3.362 -2.5495  2.2502  1.5244
   39DOPE   H3S 4940   2.755   3.595   3.404 -1.0752 -1.2408 -2.7405
   39DOPE   C24 4941   2.620   3.707   3.513  0.3601 -0.0944 -0.1448
   39DOPE   H4R 4942   2.562   3.617   3.543 -0.0173 -0.2915 -1.4163
   39DOPE   H4S 4943   2.541   3.785   3.501  1.6262  0.8864 -3.1028
   39DOPE   C25 4944   2.719   3.737   3.623  0.5243 -0.1391 -0.3884
   39DOPE   H5R 4945   2.777   3.825   3.589  0.5834  0.7005  1.7047
   39DOPE   H5S 4946   2.791   3.656   3.646 -0.0555  0.5453  5.3525
   39DOPE   C26 4947   2.665   3.776   3.763 -0.4487 -0.0545 -0.1924
   39DOPE   H6R 4948   2.622   3.874   3.738 -0.2879  0.4932  1.5525
   39DOPE   H6S 4949   2.754   3.788   3.829 -0.1671  1.9594 -0.8730
   39DOPE   C27 4950   2.556   3.693   3.827  0.3792 -0.2235 -0.2026
   39DOPE   H7R 4951   2.592   3.595   3.864  1.6135  0.6212  0.9688
   39DOPE   H7S 4952   2.478   3.683   3.749  1.2391  0.8782 -1.2530
   39DOPE   C28 4953   2.484   3.766   3.937  1.2039 -0.1864  0.2368
   39DOPE   H8R 4954   2.395   3.705   3.964  0.0220  1.4322  0.2049
   39DOPE   H8S 4955   2.452   3.866   3.901  2.2743 -0.4320 -1.5022
   39DOPE   C29 4956   2.573   3.781   4.056 -0.0115  1.2814 -0.1173
   39DOPE   H9R 4957   2.677   3.753   4.037 -0.4834  0.6712 -1.9892
   39DOPE  C210 4958   2.535   3.798   4.178 -0.0619 -0.2311 -0.4796
   39DOPE  H10R 4959   2.622   3.805   4.245  0.1386 -1.6519 -0.5563
   39DOPE  C211 4960   2.395   3.818   4.225  0.6697  0.2352 -0.8842
   39DOPE  H11R 4961   2.317   3.808   4.146  0.3749  0.1364 -0.5787
   39DOPE  H11S 4962   2.381   3.919   4.268 -3.4156 -0.9575  1.0843
   39DOPE  C212 4963   2.355   3.713   4.324  0.1759 -0.0615  0.1870
   39DOPE  H12R 4964   2.423   3.715   4.412 -1.8744  0.9076  1.8632
   39DOPE  H12S 4965   2.352   3.612   4.279 -1.7595  0.2281 -0.4556
   39DOPE  C213 4966   2.213   3.747   4.390  0.6348  0.3363 -0.1487
   39DOPE  H13R 4967   2.130   3.747   4.316  0.0277  0.8703  0.5211
   39DOPE  H13S 4968   2.208   3.845   4.442  2.1226 -1.0592  2.8591
   39DOPE  C214 4969   2.163   3.649   4.500  0.5820  0.0033 -0.6870
   39DOPE  H14R 4970   2.236   3.637   4.584 -0.7453 -1.0186  0.3749
   39DOPE  H14S 4971   2.160   3.544   4.465  0.2745  0.1726 -1.1799
   39DOPE  C215 4972   2.023   3.679   4.556 -0.5432  0.1321 -0.4915
   39DOPE  H15R 4973   2.028   3.775   4.612 -0.3159 -1.1490  1.8110
   39DOPE  H15S 4974   2.000   3.610   4.640  1.4187 -1.1248 -0.9381
   39DOPE  C216 4975   1.909   3.677   4.461  0.1351  0.3954 -0.1636
   39DOPE  H16R 4976   1.895   3.570   4.434  1.9932 -0.1680  0.9269
   39DOPE  H16S 4977   1.925   3.745   4.374  0.0584 -1.6919 -1.8889
   39DOPE  C217 4978   1.782   3.728   4.522  0.6019  0.0461 -0.5303
   39DOPE  H17R 4979   1.802   3.831   4.559 -0.7995  0.2364 -0.2413
   39DOPE  H17S 4980   1.747   3.664   4.605  1.6053  0.3648  0.1541
   39DOPE  C218 4981   1.665   3.740   4.416  0.7705  0.7632  0.0845
   39DOPE  H18R 4982   1.666   3.648   4.353 -0.9398 -0.1149  1.2891
   39DOPE  H18S 4983   1.675   3.836   4.360 -0.4390  0.4658 -0.6768
   39DOPE  H18T 4984   1.568   3.720   4.465  0.4397  0.4956 -0.6642
   39DOPE   C33 4985   2.194   3.898   3.595  0.5124 -0.3512  0.3479
   39DOPE   H3X 4986   2.109   3.969   3.593  0.4434 -0.4276 -2.2559
   39DOPE   H3Y 4987   2.285   3.962   3.589 -0.0629  0.7856  2.6781
   39DOPE   C34 4988   2.184   3.814   3.721  0.0180  0.4812 -0.2024
   39DOPE   H4X 4989   2.248   3.724   3.732 -1.1532 -0.6253 -1.9327
   39DOPE   H4Y 4990   2.219   3.880   3.804  1.2298  1.4659 -1.4617
   39DOPE   C35 4991   2.042   3.768   3.759  0.1494 -0.4233 -0.0469
   39DOPE   H5X 4992   2.014   3.693   3.682 -0.4948  0.9621 -1.2145
   39DOPE   H5Y 4993   1.969   3.852   3.753 -1.8767 -2.1638 -1.3845
   39DOPE   C36 4994   2.040   3.685   3.891 -0.4355 -0.4392  0.6256
   39DOPE   H6X 4995   2.073   3.754   3.971  0.9047  1.2693 -1.3029
   39DOPE   H6Y 4996   2.113   3.602   3.877  0.4629  0.5363 -0.6872
   39DOPE   C37 4997   1.911   3.615   3.917  0.2766 -0.5380 -0.0756
   39DOPE   H7X 4998   1.832   3.691   3.935 -0.5174 -1.4685  0.4635
   39DOPE   H7Y 4999   1.890   3.547   3.832 -0.2837 -0.7178  0.2016
   39DOPE   C38 5000   1.915   3.530   4.048  0.9340 -0.5246  0.1288
   39DOPE   H8X 5001   1.977   3.596   4.112  0.1223  1.0918 -0.6938
   39DOPE   H8Y 5002   1.970   3.436   4.025 -0.7468 -0.8382 -3.1352
   39DOPE   C39 5003   1.779   3.507   4.104  0.0583  0.0902 -0.4984
   39DOPE   H9X 5004   1.729   3.597   4.144  0.2397 -1.9901  5.2866
   39DOPE  C310 5005   1.723   3.389   4.132  0.0126 -0.1861  0.6469
   39DOPE  H10X 5006   1.630   3.391   4.190 -0.6769 -1.1928 -0.3926
   39DOPE  C311 5007   1.774   3.257   4.092 -0.2429 -1.2637 -0.6962
   39DOPE  H11X 5008   1.684   3.199   4.063 -0.5323 -0.9791 -0.3698
   39DOPE  H11Y 5009   1.841   3.279   4.005 -0.1813  1.0550 -0.1224
   39DOPE  C312 5010   1.850   3.196   4.207  0.3748 -0.2071 -0.0207
   39DOPE  H12X 5011   1.788   3.193   4.300  0.6887  0.7087  0.2281
   39DOPE  H12Y 5012   1.946   3.249   4.216 -1.2411  2.9799 -0.2149
   39DOPE  C313 5013   1.888   3.043   4.196 -0.1707  0.2038  0.0376
   39DOPE  H13X 5014   1.792   2.988   4.183 -1.1281  1.8724 -0.2519
   39DOPE  H13Y 5015   1.950   3.031   4.105  2.5181  2.3914  1.4295
   39DOPE  C314 5016   1.953   2.987   4.315  0.2620  0.1563 -0.0839
   39DOPE  H14X 5017   1.899   3.020   4.406  2.0234  0.8728  0.7460
   39DOPE  H14Y 5018   2.056   3.027   4.327 -0.2092  1.0541  1.1586
   39DOPE  C315 5019   1.983   2.836   4.308  0.6695  0.0450 -0.3475
   39DOPE  H15X 5020   2.065   2.798   4.373 -0.3181 -3.0347 -0.7734
   39DOPE  H15Y 5021   2.016   2.817   4.204  1.4879  2.8674 -0.6978
   39DOPE  C316 5022   1.869   2.745   4.345 -0.1049  0.4087 -0.6154
   39DOPE  H16X 5023   1.897   2.638   4.344  2.8862  0.9537  2.5472
   39DOPE  H16Y 5024   1.801   2.762   4.259  0.3201 -0.2557 -1.0945
   39DOPE  C317 5025   1.804   2.790   4.480  0.4327  0.2723 -0.0960
   39DOPE  H17X 5026   1.763   2.893   4.471  3.1057  1.3528 -0.8716
   39DOPE  H17Y 5027   1.727   2.712   4.496 -0.0212  0.3469 -1.8012
   39DOPE  C318 5028   1.902   2.797   4.601 -0.3482  0.1686 -0.0122
   39DOPE  H18X 5029   1.962   2.704   4.605  1.4526  1.3052  0.9087
   39DOPE  H18Y 5030   1.963   2.889   4.593 -0.2030  0.0960  0.2549
   39DOPE  H18Z 5031   1.849   2.820   4.696 -1.7229  3.3810 -1.3692
   40DOPE     N 5032   4.056   6.066   2.556 -0.4384 -0.3294  0.1391
   40DOPE   HN1 5033   4.125   6.007   2.606 -0.2580  0.3466  0.7067
   40DOPE   HN2 5034   3.981   6.066   2.628  0.1076 -0.1448  0.7218
   40DOPE   HN3 5035   4.028   6.031   2.462  0.8756  2.3332 -1.3776
   40DOPE   C12 5036   4.119   6.196   2.545 -1.0607 -0.8739 -0.1979
   40DOPE  H12A 5037   4.159   6.227   2.643 -0.2804 -1.1785 -0.4154
   40DOPE  H12B 5038   4.030   6.255   2.512 -1.5153 -0.8960  0.9536
   40DOPE   C11 5039   4.233   6.212   2.437 -0.6360  0.0083 -0.3141
   40DOPE  H11A 5040   4.259   6.318   2.418 -0.5299 -0.0761 -0.6321
   40DOPE  H11B 5041   4.191   6.170   2.343  1.5700 -1.2805 -0.8053
   40DOPE     P 5042   4.436   6.046   2.407 -0.0176  0.4553 -0.4433
   40DOPE   O13 5043   4.495   6.116   2.293  0.4069 -0.5046 -0.9221
   40DOPE   O14 5044   4.349   5.934   2.375  0.0144  0.4775  0.4167
   40DOPE   O11 5045   4.542   6.013   2.521 -0.1965 -0.9400  0.5010
   40DOPE   O12 5046   4.356   6.147   2.489  0.4493 -0.9067 -0.5588
   40DOPE    C1 5047   4.495   5.928   2.629  0.0231 -0.2419  0.6368
   40DOPE    HA 5048   4.510   5.821   2.604  0.0150 -0.3380  1.0396
   40DOPE    HB 5049   4.387   5.942   2.646 -0.5190 -2.2898 -0.7955
   40DOPE    C2 5050   4.565   5.957   2.765  0.2865  0.5924  1.0149
   40DOPE    HS 5051   4.537   6.063   2.786 -1.0490  1.1506 -2.7620
   40DOPE   O21 5052   4.704   5.925   2.754 -0.2953  0.5248 -0.4691
   40DOPE   C21 5053   4.777   5.991   2.838 -0.0286  0.0284 -0.7663
   40DOPE   O22 5054   4.741   6.083   2.911 -0.3470 -0.6361 -0.4255
   40DOPE   C22 5055   4.924   5.955   2.821  0.5239  0.1528  0.8328
   40DOPE   H2R 5056   4.938   5.934   2.712  1.3005  0.9067  0.7742
   40DOPE   H2S 5057   4.956   5.875   2.889 -0.1663  0.1307  1.1422
   40DOPE    C3 5058   4.501   5.870   2.878  0.2223  0.2580  0.0058
   40DOPE    HX 5059   4.537   5.767   2.858  1.3689  0.1430  2.2893
   40DOPE    HY 5060   4.391   5.877   2.870  0.1864  2.3788  1.5203
   40DOPE   O31 5061   4.550   5.904   3.007  0.1660 -0.3114  0.1161
   40DOPE   C31 5062   4.490   6.004   3.066 -0.3413  0.4459  0.2667
   40DOPE   O32 5063   4.404   6.077   3.016 -0.4252 -0.2594 -0.0442
   40DOPE   C32 5064   4.548   6.011   3.211  0.1860  0.2744  0.1493
   40DOPE   H2X 5065   4.557   5.909   3.254  0.8325  0.0515 -0.4984
   40DOPE   H2Y 5066   4.656   6.028   3.192  0.9174 -0.8450  2.8161
   40DOPE   C23 5067   5.014   6.083   2.831  0.2857  0.2171 -0.7476
   40DOPE   H3R 5068   4.964   6.161   2.769 -0.6154 -0.4979 -0.9420
   40DOPE   H3S 5069   5.111   6.052   2.787  0.6130 -0.2894  0.3054
   40DOPE   C24 5070   5.044   6.132   2.973 -0.3046 -0.4025 -0.5342
   40DOPE   H4R 5071   5.109   6.063   3.031  0.1661  2.5551  2.7797
   40DOPE   H4S 5072   4.951   6.143   3.033  0.9020  2.6028  0.9780
   40DOPE   C25 5073   5.116   6.272   2.985  0.0192 -0.4701  0.5992
   40DOPE   H5R 5074   5.042   6.345   2.946 -0.2564 -0.3179  1.3797
   40DOPE   H5S 5075   5.204   6.276   2.918  1.2638 -0.7536  2.1391
   40DOPE   C26 5076   5.156   6.324   3.128 -0.2355 -0.2392 -0.1851
   40DOPE   H6R 5077   5.236   6.400   3.117 -0.6693  0.1385 -0.7804
   40DOPE   H6S 5078   5.208   6.248   3.190 -0.4051  1.6087  2.4031
   40DOPE   C27 5079   5.042   6.381   3.202 -0.4753  0.0161  0.7788
   40DOPE   H7R 5080   4.976   6.294   3.225  1.0193 -0.8320  2.0051
   40DOPE   H7S 5081   4.985   6.450   3.136  0.6170 -2.6709 -3.4090
   40DOPE   C28 5082   5.097   6.442   3.331  0.7404 -0.2560  0.0627
   40DOPE   H8R 5083   5.178   6.509   3.297 -0.4011  1.0701 -0.0969
   40DOPE   H8S 5084   5.135   6.355   3.389  0.5441  0.7538  1.7689
   40DOPE   C29 5085   4.996   6.506   3.419 -0.1771 -0.1646 -0.1243
   40DOPE   H9R 5086   4.901   6.536   3.374 -1.1585  0.8392  2.3839
   40DOPE  C210 5087   5.001   6.536   3.549 -0.0821 -0.3282 -0.4691
   40DOPE  H10R 5088   4.916   6.586   3.599 -0.6024 -0.5273 -1.1450
   40DOPE  C211 5089   5.113   6.496   3.644 -0.0990  0.3857  0.4723
   40DOPE  H11R 5090   5.204   6.484   3.583 -2.4150 -1.5412 -2.8904
   40DOPE  H11S 5091   5.104   6.401   3.700 -1.3821  1.2685  1.8507
   40DOPE  C212 5092   5.134   6.597   3.750  0.6291 -0.3709 -0.3183
   40DOPE  H12R 5093   5.140   6.700   3.710  1.2168  0.3207  1.4727
   40DOPE  H12S 5094   5.231   6.587   3.804 -0.2386  1.2328  1.6360
   40DOPE  C213 5095   5.023   6.591   3.856  0.1920  0.0261 -0.0453
   40DOPE  H13R 5096   5.006   6.483   3.877 -0.4993  0.0585 -0.4048
   40DOPE  H13S 5097   4.928   6.640   3.825  0.6750  1.1372  0.1804
   40DOPE  C214 5098   5.064   6.646   3.990 -0.1941  0.1734  0.2244
   40DOPE  H14R 5099   4.973   6.656   4.054 -1.6397 -0.0748 -1.7118
   40DOPE  H14S 5100   5.116   6.742   3.974  1.0573 -0.5440 -0.0993
   40DOPE  C215 5101   5.156   6.546   4.054 -0.0421 -0.1235  0.3159
   40DOPE  H15R 5102   5.190   6.471   3.979 -1.3092 -0.2084 -0.2042
   40DOPE  H15S 5103   5.089   6.484   4.118 -2.5462  0.5780 -1.4741
   40DOPE  C216 5104   5.269   6.600   4.144 -0.2597 -0.0332 -0.5880
   40DOPE  H16R 5105   5.216   6.659   4.221 -1.7092  1.8588 -2.8728
   40DOPE  H16S 5106   5.322   6.665   4.070 -0.2439 -1.0303 -1.4755
   40DOPE  C217 5107   5.369   6.504   4.205 -0.3351  0.8049 -0.4742
   40DOPE  H17R 5108   5.306   6.435   4.266 -0.4256  1.4793  0.2119
   40DOPE  H17S 5109   5.443   6.564   4.264  0.3533 -0.1782 -0.3109
   40DOPE  C218 5110   5.455   6.429   4.106  0.2092  0.2926  1.0152
   40DOPE  H18R 5111   5.399   6.394   4.017  1.3178  2.4921 -0.6368
   40DOPE  H18S 5112   5.500   6.337   4.150  2.5283 -0.1028 -1.8403
   40DOPE  H18T 5113   5.527   6.506   4.071 -3.0016  3.5076  0.8684
   40DOPE   C33 5114   4.484   6.124   3.287 -0.0749 -0.8328 -0.4372
   40DOPE   H3X 5115   4.373   6.114   3.282 -0.5955  2.1094  2.1740
   40DOPE   H3Y 5116   4.498   6.221   3.235 -0.7743 -0.6184 -0.2396
   40DOPE   C34 5117   4.514   6.133   3.435  0.0195  0.6522  0.0733
   40DOPE   H4X 5118   4.520   6.030   3.476  1.9601  0.5760 -0.2935
   40DOPE   H4Y 5119   4.621   6.161   3.444  0.1458  0.3387 -0.4269
   40DOPE   C35 5120   4.416   6.211   3.517 -0.1217 -0.5721 -1.3556
   40DOPE   H5X 5121   4.310   6.185   3.496 -0.3630 -0.0673 -0.7798
   40DOPE   H5Y 5122   4.422   6.320   3.501  0.6337 -0.4879 -0.5777
   40DOPE   C36 5123   4.453   6.193   3.669  0.0428  0.2483 -0.9883
   40DOPE   H6X 5124   4.532   6.263   3.703 -2.2416  1.4520  2.3875
   40DOPE   H6Y 5125   4.499   6.093   3.684 -0.9389  0.0425  0.8332
   40DOPE   C37 5126   4.346   6.209   3.769 -0.3518  0.2429 -0.1685
   40DOPE   H7X 5127   4.382   6.258   3.862 -1.0443  0.3000  0.0769
   40DOPE   H7Y 5128   4.266   6.279   3.737 -0.2096  1.3992  1.8172
   40DOPE   C38 5129   4.280   6.079   3.813  0.0868 -0.8121  0.0445
   40DOPE   H8X 5130   4.353   6.061   3.895 -0.9437  1.1769  1.4763
   40DOPE   H8Y 5131   4.288   5.995   3.740 -1.0204 -0.2751 -0.7306
   40DOPE   C39 5132   4.143   6.101   3.875 -0.5621  0.1753  0.7531
   40DOPE   H9X 5133   4.063   6.120   3.802 -0.8858 -1.7093  0.5571
   40DOPE  C310 5134   4.116   6.131   4.000  0.1757  0.2099 -0.1574
   40DOPE  H10X 5135   4.011   6.140   4.030 -0.0688 -1.3877 -0.4539
   40DOPE  C311 5136   4.208   6.151   4.115  0.7288 -0.2769 -0.0775
   40DOPE  H11X 5137   4.299   6.087   4.109  1.0989  0.0912  1.1258
   40DOPE  H11Y 5138   4.232   6.259   4.126 -2.6128  0.4141  1.7636
   40DOPE  C312 5139   4.150   6.112   4.257 -0.0286 -0.1964  0.2768
   40DOPE  H12X 5140   4.225   6.142   4.334 -0.9817  1.0024  0.7637
   40DOPE  H12Y 5141   4.134   6.003   4.265 -1.4251 -0.0176  0.0518
   40DOPE  C313 5142   4.022   6.192   4.301  0.1532  0.5842  0.4108
   40DOPE  H13X 5143   4.038   6.302   4.294  0.3986  0.5236 -0.0444
   40DOPE  H13Y 5144   3.938   6.169   4.233 -0.2837 -0.9043  1.4058
   40DOPE  C314 5145   3.982   6.161   4.444  0.1682 -0.6190 -0.1906
   40DOPE  H14X 5146   4.074   6.198   4.495  1.1519 -2.8009 -0.3033
   40DOPE  H14Y 5147   3.966   6.054   4.467  2.2853 -0.9997 -0.2336
   40DOPE  C315 5148   3.861   6.245   4.495 -0.3625  0.2435  0.0470
   40DOPE  H15X 5149   3.778   6.222   4.425  1.2675  0.0276 -1.9098
   40DOPE  H15Y 5150   3.891   6.352   4.496 -2.2115  0.9527 -3.8766
   40DOPE  C316 5151   3.822   6.202   4.638  0.7684 -0.8692  0.8470
   40DOPE  H16X 5152   3.902   6.219   4.713 -1.4915 -1.1562  3.4884
   40DOPE  H16Y 5153   3.796   6.095   4.651 -0.4814 -0.7132 -0.1712
   40DOPE  C317 5154   3.695   6.284   4.687 -0.6811 -0.1800 -0.1183
   40DOPE  H17X 5155   3.724   6.390   4.702 -2.0963  0.0652  1.1140
   40DOPE  H17Y 5156   3.620   6.277   4.605 -0.7093 -0.0982 -0.0996
   40DOPE  C318 5157   3.639   6.229   4.815 -0.8456 -0.2388 -0.5031
   40DOPE  H18X 5158   3.621   6.310   4.888  1.1754 -2.2837  2.4759
   40DOPE  H18Y 5159   3.553   6.161   4.794 -0.9686 -0.2692  0.0926
   40DOPE  H18Z 5160   3.703   6.158   4.871 -2.2661 -2.4114 -1.5201
   41DOPE     N 5161   2.592   5.131   2.832  0.0102  0.1109  0.4806
   41DOPE   HN1 5162   2.571   5.029   2.838 -0.8087  0.3329  1.9220
   41DOPE   HN2 5163   2.575   5.158   2.733  2.7071  1.4469  0.2815
   41DOPE   HN3 5164   2.693   5.143   2.855  0.0877 -0.6461  0.5678
   41DOPE   C12 5165   2.489   5.198   2.923 -0.6277  0.6306  0.3152
   41DOPE  H12A 5166   2.520   5.158   3.022 -0.1985  1.8910  0.7089
   41DOPE  H12B 5167   2.386   5.168   2.894  1.3013 -3.7844 -3.2724
   41DOPE   C11 5168   2.501   5.352   2.915 -0.1316  0.1034 -0.3941
   41DOPE  H11A 5169   2.606   5.382   2.934 -0.2299  0.0960  0.1812
   41DOPE  H11B 5170   2.454   5.396   3.006  1.7064  0.0575  0.6359
   41DOPE     P 5171   2.312   5.456   2.761 -0.8056  0.2260 -0.3981
   41DOPE   O13 5172   2.274   5.399   2.633 -0.2380 -0.1579  0.2899
   41DOPE   O14 5173   2.292   5.603   2.790 -0.1043 -0.7184  0.2167
   41DOPE   O11 5174   2.232   5.372   2.863 -0.0802 -0.0354  0.1836
   41DOPE   O12 5175   2.462   5.413   2.792  0.1165  0.1809 -0.3975
   41DOPE    C1 5176   2.094   5.389   2.884  0.1051 -0.5498  0.4074
   41DOPE    HA 5177   2.034   5.377   2.790  0.4149 -1.3949  0.3118
   41DOPE    HB 5178   2.076   5.494   2.915 -1.1829  0.8483 -4.2454
   41DOPE    C2 5179   2.037   5.293   2.993  0.3628  0.5224  0.1361
   41DOPE    HS 5180   1.932   5.319   3.019  0.0001 -0.5597 -0.2131
   41DOPE   O21 5181   2.126   5.298   3.108 -0.0502  0.2848  0.2300
   41DOPE   C21 5182   2.105   5.405   3.188  0.1040  0.0433  0.3591
   41DOPE   O22 5183   2.009   5.477   3.167  0.5176  0.2963  0.0263
   41DOPE   C22 5184   2.214   5.411   3.287 -0.3148  0.0304  0.0251
   41DOPE   H2R 5185   2.246   5.517   3.299  1.1010 -0.3231 -0.4058
   41DOPE   H2S 5186   2.301   5.357   3.244 -0.2414  1.6410 -1.9889
   41DOPE    C3 5187   2.033   5.142   2.948 -1.3528 -0.2233 -0.2129
   41DOPE    HX 5188   2.140   5.116   2.933 -1.2545 -0.5321  0.8970
   41DOPE    HY 5189   1.978   5.127   2.853  0.5461  0.5816 -1.4928
   41DOPE   O31 5190   1.971   5.067   3.053 -0.1119 -0.2036  0.6115
   41DOPE   C31 5191   2.061   4.994   3.128  0.5989 -0.2070  0.5353
   41DOPE   O32 5192   2.179   4.973   3.097  0.2616  0.3337  0.0887
   41DOPE   C32 5193   1.974   4.917   3.230  0.2476 -0.1010  0.4170
   41DOPE   H2X 5194   1.877   4.965   3.256 -0.8255 -0.5221 -2.4158
   41DOPE   H2Y 5195   1.948   4.821   3.180  1.0449  0.3078 -0.8430
   41DOPE   C23 5196   2.182   5.334   3.420 -0.1435  0.0013 -0.7202
   41DOPE   H3R 5197   2.168   5.227   3.395  2.6395 -0.7442  0.5364
   41DOPE   H3S 5198   2.092   5.383   3.464  1.7554  2.3456  0.8535
   41DOPE   C24 5199   2.306   5.328   3.522  0.5261 -0.2146 -0.5412
   41DOPE   H4R 5200   2.352   5.421   3.564 -0.5884 -0.3613  1.1101
   41DOPE   H4S 5201   2.391   5.267   3.484  0.1849 -0.8530 -0.2821
   41DOPE   C25 5202   2.258   5.272   3.659  0.1751 -0.0204 -0.4096
   41DOPE   H5R 5203   2.222   5.168   3.646 -0.0023  0.1503 -1.3486
   41DOPE   H5S 5204   2.166   5.324   3.694 -0.8461 -1.0769 -1.4187
   41DOPE   C26 5205   2.377   5.283   3.765  0.5344  0.7278  0.1641
   41DOPE   H6R 5206   2.409   5.388   3.781  1.3971  0.1151  2.9270
   41DOPE   H6S 5207   2.465   5.240   3.712 -0.0213 -0.0795 -0.1277
   41DOPE   C27 5208   2.355   5.227   3.903 -0.1473  0.8891 -0.2141
   41DOPE   H7R 5209   2.456   5.208   3.946 -0.3566 -0.5582 -0.3126
   41DOPE   H7S 5210   2.295   5.134   3.915  1.7239 -0.1959  1.4659
   41DOPE   C28 5211   2.300   5.324   4.003  0.5263 -0.1258 -0.4020
   41DOPE   H8R 5212   2.189   5.330   3.992  0.6667 -1.1918 -2.9848
   41DOPE   H8S 5213   2.345   5.424   3.983 -0.5481  0.6556  0.8548
   41DOPE   C29 5214   2.338   5.294   4.149  0.0093  0.9446  0.5576
   41DOPE   H9R 5215   2.337   5.188   4.179  0.5557  1.1220  1.2315
   41DOPE  C210 5216   2.380   5.380   4.241  0.5119  0.0529  0.0797
   41DOPE  H10R 5217   2.381   5.347   4.346 -0.0652  1.0326  0.4073
   41DOPE  C211 5218   2.386   5.526   4.232 -0.3094 -0.3910  0.1534
   41DOPE  H11R 5219   2.283   5.559   4.205 -0.2029  1.0017  1.3271
   41DOPE  H11S 5220   2.455   5.557   4.151 -0.7132 -1.3643 -0.5715
   41DOPE  C212 5221   2.421   5.589   4.369  0.6795 -0.4501  0.6757
   41DOPE  H12R 5222   2.423   5.699   4.352 -1.0223 -0.2076  1.8165
   41DOPE  H12S 5223   2.525   5.565   4.402  0.7682 -0.1202  0.6422
   41DOPE  C213 5224   2.317   5.563   4.482 -0.1914 -0.5357 -0.2132
   41DOPE  H13R 5225   2.314   5.455   4.507  0.5369  0.0077  2.5371
   41DOPE  H13S 5226   2.219   5.601   4.446 -0.0761  1.9932  1.8413
   41DOPE  C214 5227   2.346   5.655   4.606 -0.5125  0.1100 -0.8091
   41DOPE  H14R 5228   2.331   5.762   4.581 -1.5702 -0.0898 -1.0836
   41DOPE  H14S 5229   2.454   5.651   4.632 -1.4917 -0.8719  3.9542
   41DOPE  C215 5230   2.277   5.612   4.740 -0.3119  0.1805  0.0457
   41DOPE  H15R 5231   2.313   5.509   4.760  0.1452  0.3861  0.2808
   41DOPE  H15S 5232   2.169   5.598   4.718 -0.3813 -0.5511  0.8092
   41DOPE  C216 5233   2.302   5.711   4.852 -1.0946 -0.0542 -0.0863
   41DOPE  H16R 5234   2.220   5.714   4.927  1.1457 -1.4232  2.6279
   41DOPE  H16S 5235   2.309   5.815   4.814 -0.1952  0.3492  1.0989
   41DOPE  C217 5236   2.436   5.686   4.925 -0.0374 -0.0900 -0.4242
   41DOPE  H17R 5237   2.442   5.773   4.995 -1.1965  0.0828 -0.5230
   41DOPE  H17S 5238   2.524   5.703   4.860 -0.6616 -1.3805 -1.6390
   41DOPE  C218 5239   2.455   5.554   5.000 -0.1778  0.3885 -0.4751
   41DOPE  H18R 5240   2.389   5.553   5.089 -0.1884  1.2243 -0.4662
   41DOPE  H18S 5241   2.559   5.545   5.038 -1.5571 -0.6048  3.5626
   41DOPE  H18T 5242   2.437   5.462   4.941  3.9973 -0.6990 -0.4053
   41DOPE   C33 5243   2.062   4.894   3.353  0.4811  0.0545 -0.0879
   41DOPE   H3X 5244   2.157   4.951   3.353  0.3411  0.4783 -3.6043
   41DOPE   H3Y 5245   2.097   4.789   3.347 -3.0451 -1.2090 -0.5805
   41DOPE   C34 5246   1.995   4.938   3.487 -0.1115  1.3508  0.3801
   41DOPE   H4X 5247   1.969   5.046   3.486 -0.9161  1.1643 -0.0051
   41DOPE   H4Y 5248   1.899   4.881   3.484  1.3706 -1.2985  0.3161
   41DOPE   C35 5249   2.072   4.906   3.620  0.3872 -0.4759 -0.3111
   41DOPE   H5X 5250   2.172   4.954   3.618 -0.7953  2.3299 -4.3408
   41DOPE   H5Y 5251   2.072   4.799   3.648  0.2956  0.1553  2.3117
   41DOPE   C36 5252   1.992   4.968   3.733 -0.6848  0.1858 -0.0980
   41DOPE   H6X 5253   1.996   5.078   3.716 -1.5350  0.2917  0.3348
   41DOPE   H6Y 5254   2.059   4.954   3.821  1.4957 -0.9597 -1.8529
   41DOPE   C37 5255   1.846   4.912   3.746  0.0662  0.3130  0.0037
   41DOPE   H7X 5256   1.789   4.941   3.655  0.0482 -1.7494 -0.6933
   41DOPE   H7Y 5257   1.861   4.802   3.742 -3.2087 -0.2833  0.8661
   41DOPE   C38 5258   1.769   4.948   3.884  0.5869 -0.0064 -0.4095
   41DOPE   H8X 5259   1.779   5.058   3.893  0.1079  0.1878 -1.8553
   41DOPE   H8Y 5260   1.838   4.893   3.951  2.0555  0.1725 -1.6979
   41DOPE   C39 5261   1.625   4.911   3.901  0.6606 -0.1698 -0.2406
   41DOPE   H9X 5262   1.590   4.835   3.829 -0.8925  1.2279 -1.0372
   41DOPE  C310 5263   1.537   4.972   3.988  0.0041  0.5954 -0.0680
   41DOPE  H10X 5264   1.431   4.943   3.982  0.2852 -0.6291  0.7185
   41DOPE  C311 5265   1.565   5.086   4.082 -0.4880  0.0044 -0.3267
   41DOPE  H11X 5266   1.669   5.081   4.122 -0.9679 -2.4344  0.7484
   41DOPE  H11Y 5267   1.551   5.187   4.038  2.1566  0.9896  0.8534
   41DOPE  C312 5268   1.487   5.082   4.216 -0.2725 -0.1088  0.2449
   41DOPE  H12X 5269   1.382   5.116   4.208 -0.4318 -0.9676 -1.9277
   41DOPE  H12Y 5270   1.545   5.157   4.275  0.8263 -1.1721  0.5705
   41DOPE  C313 5271   1.507   4.950   4.294  0.3898 -0.1927 -0.1848
   41DOPE  H13X 5272   1.422   4.880   4.281  0.7126 -0.8308  1.0416
   41DOPE  H13Y 5273   1.599   4.896   4.263  0.1852 -1.2228  0.9481
   41DOPE  C314 5274   1.534   4.968   4.441 -0.3631  0.5855  0.0028
   41DOPE  H14X 5275   1.447   5.022   4.485 -0.3169  2.3095 -1.8970
   41DOPE  H14Y 5276   1.625   5.026   4.466  2.3026 -2.5325 -1.6811
   41DOPE  C315 5277   1.558   4.831   4.512 -0.2470  0.4661 -0.1824
   41DOPE  H15X 5278   1.567   4.846   4.622  0.8842 -0.1255 -0.1774
   41DOPE  H15Y 5279   1.656   4.786   4.484  1.2452  2.4699  1.4448
   41DOPE  C316 5280   1.446   4.720   4.504 -0.4354 -1.1417 -0.3861
   41DOPE  H16X 5281   1.420   4.707   4.397 -1.9043 -0.9093 -0.0798
   41DOPE  H16Y 5282   1.357   4.763   4.555 -0.0813 -1.7788  0.8095
   41DOPE  C317 5283   1.483   4.588   4.571 -0.5036  0.7399 -0.0168
   41DOPE  H17X 5284   1.573   4.558   4.515 -1.0611  1.1062 -1.1393
   41DOPE  H17Y 5285   1.512   4.603   4.677  0.2573  1.2222 -0.2918
   41DOPE  C318 5286   1.363   4.488   4.565  0.5001  0.7333  0.6818
   41DOPE  H18X 5287   1.276   4.538   4.614  0.4344 -0.0442  1.3783
   41DOPE  H18Y 5288   1.337   4.457   4.462 -1.4949 -0.2710  1.4289
   41DOPE  H18Z 5289   1.390   4.392   4.614 -1.8544  0.4171  1.5364
   42DOPE     N 5290   1.657   4.609   2.592  0.0368 -0.6562  0.6179
   42DOPE   HN1 5291   1.685   4.687   2.529  0.2972 -1.6846 -0.5761
   42DOPE   HN2 5292   1.672   4.520   2.540 -0.6437  1.4349 -3.6273
   42DOPE   HN3 5293   1.557   4.624   2.616  0.1378  0.1618  0.5476
   42DOPE   C12 5294   1.743   4.622   2.721  1.0706 -0.2807  0.7210
   42DOPE  H12A 5295   1.729   4.729   2.748  4.0855  0.4580 -0.1847
   42DOPE  H12B 5296   1.848   4.601   2.688  1.3494 -1.9282  2.4980
   42DOPE   C11 5297   1.707   4.519   2.824 -0.2686 -0.5106 -0.9029
   42DOPE  H11A 5298   1.623   4.554   2.888  0.1053 -1.6405  0.2547
   42DOPE  H11B 5299   1.780   4.505   2.907 -0.4855 -0.7930 -0.7571
   42DOPE     P 5300   1.793   4.288   2.760  0.1305  0.0871  0.1350
   42DOPE   O13 5301   1.923   4.336   2.708 -0.7114 -0.5530  0.1038
   42DOPE   O14 5302   1.741   4.170   2.684  0.4499  0.0930 -0.1550
   42DOPE   O11 5303   1.808   4.246   2.910 -0.8579  0.1912 -0.4583
   42DOPE   O12 5304   1.679   4.399   2.760 -0.1094  0.2176  0.4057
   42DOPE    C1 5305   1.699   4.191   2.990 -0.3047  0.0458  0.3210
   42DOPE    HA 5306   1.621   4.133   2.935 -1.1220  0.1915  1.2941
   42DOPE    HB 5307   1.643   4.281   3.022  0.9918  1.4002 -1.0307
   42DOPE    C2 5308   1.753   4.112   3.109 -0.7234 -0.3076 -0.5666
   42DOPE    HS 5309   1.673   4.041   3.138  0.0711 -1.2850 -0.7103
   42DOPE   O21 5310   1.794   4.189   3.222 -0.0585  0.0209 -0.0943
   42DOPE   C21 5311   1.697   4.256   3.287 -0.5705 -0.5891  0.7385
   42DOPE   O22 5312   1.582   4.262   3.257  0.0543  0.2186 -0.0326
   42DOPE   C22 5313   1.753   4.287   3.423  0.4944  0.0343  0.8267
   42DOPE   H2R 5314   1.753   4.191   3.479  0.2832  0.4705  1.5948
   42DOPE   H2S 5315   1.679   4.360   3.463 -1.3248 -1.1775 -0.2017
   42DOPE    C3 5316   1.869   4.019   3.063  0.2735  0.3912  0.0425
   42DOPE    HX 5317   1.960   4.082   3.056 -1.4355  3.1422  1.0398
   42DOPE    HY 5318   1.846   3.969   2.966  1.1826 -1.7497  0.8621
   42DOPE   O31 5319   1.886   3.913   3.157 -0.9983  0.2787 -0.2647
   42DOPE   C31 5320   1.814   3.801   3.149 -0.2332  0.0865  0.7726
   42DOPE   O32 5321   1.741   3.778   3.053  0.2091 -0.2111 -0.0111
   42DOPE   C32 5322   1.834   3.702   3.268  0.0561 -0.2684 -0.4399
   42DOPE   H2X 5323   1.833   3.603   3.219  3.1100 -1.4225  1.5143
   42DOPE   H2Y 5324   1.937   3.720   3.306  0.9329  1.0832 -3.2109
   42DOPE   C23 5325   1.893   4.344   3.431  0.7160  0.3149  0.8221
   42DOPE   H3R 5326   1.919   4.387   3.332 -0.6148 -1.1362 -0.2197
   42DOPE   H3S 5327   1.963   4.257   3.437 -0.1387 -0.4504  0.0953
   42DOPE   C24 5328   1.912   4.446   3.539 -0.3442 -0.3739  0.2995
   42DOPE   H4R 5329   1.849   4.534   3.514  1.3960  0.7947 -0.1882
   42DOPE   H4S 5330   2.018   4.479   3.531  0.0167 -1.7326 -0.9127
   42DOPE   C25 5331   1.885   4.387   3.675  0.1752 -0.2703 -0.0141
   42DOPE   H5R 5332   1.956   4.301   3.680 -0.0261 -0.4367 -0.0435
   42DOPE   H5S 5333   1.781   4.349   3.676 -0.1832  0.6914  0.8748
   42DOPE   C26 5334   1.932   4.482   3.789  0.3405 -0.1730  0.6006
   42DOPE   H6R 5335   1.886   4.582   3.774  2.3434  0.6115 -0.6959
   42DOPE   H6S 5336   2.040   4.499   3.767  0.3361 -0.2076  0.5497
   42DOPE   C27 5337   1.904   4.424   3.926  0.4188  0.2378  0.1740
   42DOPE   H7R 5338   1.941   4.320   3.933  1.2405  0.4692 -0.5572
   42DOPE   H7S 5339   1.794   4.436   3.941 -0.0748  0.3798 -2.8515
   42DOPE   C28 5340   1.979   4.510   4.041  0.0130 -1.0806  0.2170
   42DOPE   H8R 5341   1.940   4.613   4.035  0.6462 -0.7896  0.9562
   42DOPE   H8S 5342   2.089   4.528   4.032 -0.4222  2.8146  0.9070
   42DOPE   C29 5343   1.937   4.445   4.168 -0.3121  0.5775 -0.0223
   42DOPE   H9R 5344   2.000   4.361   4.202  0.3992  1.4743  0.9216
   42DOPE  C210 5345   1.837   4.490   4.250 -0.4262 -0.0165 -0.5701
   42DOPE  H10R 5346   1.807   4.446   4.346  0.0859  4.6036  1.9968
   42DOPE  C211 5347   1.748   4.612   4.233  0.5692  0.3429  0.5184
   42DOPE  H11R 5348   1.808   4.702   4.207  1.5787  0.2518  2.3776
   42DOPE  H11S 5349   1.714   4.652   4.331  0.3255  1.1809  0.1007
   42DOPE  C212 5350   1.636   4.598   4.126  0.4368 -0.1649 -0.8728
   42DOPE  H12R 5351   1.689   4.587   4.029 -0.6114 -2.7229 -1.2457
   42DOPE  H12S 5352   1.581   4.694   4.120  0.2117 -0.1821  0.5246
   42DOPE  C213 5353   1.528   4.494   4.166  0.0513 -0.5627 -0.0207
   42DOPE  H13R 5354   1.511   4.500   4.275 -0.1215 -1.4945  0.0114
   42DOPE  H13S 5355   1.573   4.396   4.136  2.1814  0.1702  0.5828
   42DOPE  C214 5356   1.390   4.515   4.093  0.0554  0.2231  0.1649
   42DOPE  H14R 5357   1.409   4.523   3.984  0.8379 -1.5794  0.1246
   42DOPE  H14S 5358   1.330   4.600   4.131 -1.7862  0.1966 -2.4295
   42DOPE  C215 5359   1.294   4.392   4.115 -0.1121  0.5882 -0.1751
   42DOPE  H15R 5360   1.270   4.369   4.221 -1.1614  0.9262 -0.3258
   42DOPE  H15S 5361   1.345   4.300   4.080 -1.0604  0.0931 -0.2839
   42DOPE  C216 5362   1.163   4.411   4.038  0.1924 -0.3853  0.1614
   42DOPE  H16R 5363   1.181   4.381   3.932  2.3765  2.0152 -0.2451
   42DOPE  H16S 5364   1.137   4.518   4.025  0.5456  0.0753  2.6935
   42DOPE  C217 5365   1.049   4.326   4.085 -0.0916 -0.7611 -0.1648
   42DOPE  H17R 5366   1.002   4.365   4.177 -2.0181  0.5454 -1.6282
   42DOPE  H17S 5367   1.078   4.220   4.102 -2.8330 -1.6691 -0.6777
   42DOPE  C218 5368   0.941   4.311   3.981 -0.0224 -0.0682  0.1017
   42DOPE  H18R 5369   0.850   4.265   4.026 -1.0851  0.9860 -0.8903
   42DOPE  H18S 5370   0.969   4.258   3.888  0.3725 -0.2153  0.3043
   42DOPE  H18T 5371   0.922   4.416   3.950  0.8763 -0.0111 -0.2649
   42DOPE   C33 5372   1.730   3.714   3.383  0.2680 -0.1763 -0.7979
   42DOPE   H3X 5373   1.763   3.646   3.465 -1.6808 -0.7957 -0.4694
   42DOPE   H3Y 5374   1.632   3.676   3.346 -0.4484 -0.5446  1.3169
   42DOPE   C34 5375   1.719   3.849   3.439  0.3411  0.0785  0.2243
   42DOPE   H4X 5376   1.823   3.878   3.465  1.3596 -1.7822 -1.4957
   42DOPE   H4Y 5377   1.670   3.915   3.364  3.0050  0.8863 -0.8886
   42DOPE   C35 5378   1.622   3.846   3.558  0.7954  0.1141 -0.5503
   42DOPE   H5X 5379   1.647   3.753   3.612 -0.2720  0.2517  0.2257
   42DOPE   H5Y 5380   1.520   3.828   3.518  0.0096 -1.0548  1.8041
   42DOPE   C36 5381   1.628   3.972   3.639 -0.2002  0.0168 -0.0483
   42DOPE   H6X 5382   1.595   4.057   3.576  0.8930 -0.0027 -0.6815
   42DOPE   H6Y 5383   1.736   3.985   3.660 -0.4435  0.7668  0.8031
   42DOPE   C37 5384   1.566   3.961   3.778 -0.2982 -0.1485  0.2319
   42DOPE   H7X 5385   1.461   3.975   3.746  0.0665 -1.5489 -1.7790
   42DOPE   H7Y 5386   1.572   3.861   3.826 -2.3191 -1.1493 -1.4283
   42DOPE   C38 5387   1.612   4.072   3.874  0.4986 -0.7239  0.2726
   42DOPE   H8X 5388   1.536   4.076   3.955 -1.0615 -1.4719 -1.0955
   42DOPE   H8Y 5389   1.582   4.163   3.818  0.0642 -0.8063  0.3682
   42DOPE   C39 5390   1.755   4.071   3.917 -0.5125  0.0642 -0.2680
   42DOPE   H9X 5391   1.820   4.082   3.828  1.0859 -1.2533  0.6750
   42DOPE  C310 5392   1.821   4.063   4.039 -0.0152  0.2748 -0.3111
   42DOPE  H10X 5393   1.928   4.085   4.043  0.0208  0.4822 -1.7748
   42DOPE  C311 5394   1.746   4.037   4.165 -0.5636  0.3098  0.1644
   42DOPE  H11X 5395   1.636   4.025   4.150 -0.5986 -0.1570  0.7778
   42DOPE  H11Y 5396   1.797   3.948   4.208  1.2910  0.0090 -2.3988
   42DOPE  C312 5397   1.752   4.153   4.268 -0.2093  0.3406  0.2110
   42DOPE  H12X 5398   1.694   4.239   4.227 -0.0909  1.0574  1.4846
   42DOPE  H12Y 5399   1.857   4.187   4.282  0.1376  0.1724 -1.7750
   42DOPE  C313 5400   1.688   4.116   4.402  0.5422 -0.8465 -1.1777
   42DOPE  H13X 5401   1.585   4.082   4.377 -0.0533  0.5449 -0.7117
   42DOPE  H13Y 5402   1.750   4.031   4.438  0.6329 -0.1097  0.5055
   42DOPE  C314 5403   1.695   4.231   4.511  0.6128  0.3932 -0.2107
   42DOPE  H14X 5404   1.633   4.210   4.600  3.3776 -0.6677  1.6168
   42DOPE  H14Y 5405   1.660   4.325   4.463 -0.8573  0.7060  1.3709
   42DOPE  C315 5406   1.830   4.261   4.573 -0.3737  0.1495 -0.1255
   42DOPE  H15X 5407   1.906   4.285   4.496 -0.5529 -2.2330 -1.1655
   42DOPE  H15Y 5408   1.869   4.172   4.627  0.5189  0.4991 -0.1813
   42DOPE  C316 5409   1.813   4.377   4.666 -0.6415  0.1449  0.3283
   42DOPE  H16X 5410   1.710   4.387   4.707 -1.7924  2.6829 -2.8351
   42DOPE  H16Y 5411   1.828   4.469   4.607 -0.4257  0.9434  1.5877
   42DOPE  C317 5412   1.910   4.364   4.780  0.0905 -0.2540 -0.1007
   42DOPE  H17X 5413   1.892   4.291   4.862  3.5402  0.4302  1.4270
   42DOPE  H17Y 5414   2.009   4.333   4.741  1.0867  0.1270  2.0141
   42DOPE  C318 5415   1.933   4.497   4.847  0.3852 -0.0145 -0.3705
   42DOPE  H18X 5416   1.983   4.570   4.780  1.1965  0.2591  0.5010
   42DOPE  H18Y 5417   1.832   4.540   4.864  0.0130 -1.2539  0.8066
   42DOPE  H18Z 5418   1.986   4.497   4.945 -1.7265  0.7881  0.8254
   43DOPE     N 5419   1.337   2.835   2.252 -0.1954  0.5589 -0.3723
   43DOPE   HN1 5420   1.379   2.860   2.160 -0.1364  2.5851  0.1753
   43DOPE   HN2 5421   1.409   2.777   2.300 -1.5892  0.5076  1.7946
   43DOPE   HN3 5422   1.254   2.774   2.237  0.5725 -0.3528 -1.0534
   43DOPE   C12 5423   1.290   2.961   2.318 -0.1475  0.2690 -0.4562
   43DOPE  H12A 5424   1.382   3.021   2.339  0.2916  0.2594 -2.1916
   43DOPE  H12B 5425   1.244   2.937   2.416  0.5728  0.4985 -0.0523
   43DOPE   C11 5426   1.204   3.055   2.235  0.5489  0.5686 -0.5133
   43DOPE  H11A 5427   1.245   3.066   2.133 -1.4739  0.2357 -1.3959
   43DOPE  H11B 5428   1.185   3.147   2.294  3.9084  1.1922 -0.2345
   43DOPE     P 5429   0.942   3.041   2.260  0.3717  0.2522  0.0045
   43DOPE   O13 5430   0.849   3.032   2.142 -0.0772 -0.2368  0.1793
   43DOPE   O14 5431   0.962   3.175   2.320 -0.8003 -0.1417  0.1965
   43DOPE   O11 5432   0.904   2.942   2.372  0.1047  0.6015 -0.5362
   43DOPE   O12 5433   1.081   2.987   2.208 -0.3374 -0.3738 -0.4663
   43DOPE    C1 5434   0.977   2.859   2.454 -0.3859 -0.1705  0.6005
   43DOPE    HA 5435   1.068   2.815   2.407 -0.0626  1.4763 -0.3905
   43DOPE    HB 5436   0.909   2.774   2.474 -2.0729  0.3654 -2.2616
   43DOPE    C2 5437   1.019   2.934   2.587  0.2191 -0.3603 -0.1159
   43DOPE    HS 5438   1.092   3.014   2.565  1.6403 -1.7492 -0.6323
   43DOPE   O21 5439   1.064   2.842   2.690 -0.3745  0.4748  0.2872
   43DOPE   C21 5440   1.151   2.898   2.776 -0.0112 -0.7762 -0.1801
   43DOPE   O22 5441   1.210   3.002   2.761 -0.5554 -0.1330 -0.1650
   43DOPE   C22 5442   1.172   2.808   2.899 -0.0279 -0.4413 -0.6502
   43DOPE   H2R 5443   1.281   2.790   2.909 -0.0231 -1.5971 -2.3253
   43DOPE   H2S 5444   1.139   2.705   2.871  0.3595 -0.1891 -2.1141
   43DOPE    C3 5445   0.886   3.012   2.634 -1.1221 -0.4420 -0.1927
   43DOPE    HX 5446   0.808   2.933   2.632 -0.3369 -1.2155 -0.5825
   43DOPE    HY 5447   0.868   3.088   2.555 -2.6646 -1.0390 -0.4467
   43DOPE   O31 5448   0.903   3.069   2.765 -0.0672 -0.1609 -0.4365
   43DOPE   C31 5449   0.977   3.187   2.775 -0.5586  0.2148  0.1910
   43DOPE   O32 5450   1.020   3.250   2.677  0.6035  0.0860 -0.7667
   43DOPE   C32 5451   0.982   3.226   2.916 -0.8758 -0.0414  0.2070
   43DOPE   H2X 5452   0.900   3.174   2.969 -0.3843  0.5211  1.5660
   43DOPE   H2Y 5453   1.071   3.184   2.968 -0.2180  3.3094  2.0488
   43DOPE   C23 5454   1.123   2.857   3.036  0.2862  0.4350 -0.0458
   43DOPE   H3R 5455   1.147   2.965   3.044  0.9782  0.3287 -0.5750
   43DOPE   H3S 5456   1.193   2.805   3.105  0.6166  0.0772 -0.6390
   43DOPE   C24 5457   0.976   2.832   3.053 -0.0585 -0.1719 -0.8466
   43DOPE   H4R 5458   0.954   2.729   3.017 -1.2121 -0.9265  1.7845
   43DOPE   H4S 5459   0.908   2.904   3.004 -0.9128  1.0417  1.9411
   43DOPE   C25 5460   0.936   2.844   3.199 -0.7246 -0.6480  0.2732
   43DOPE   H5R 5461   0.990   2.932   3.241  1.9526 -2.1607  0.1468
   43DOPE   H5S 5462   0.971   2.750   3.247 -1.8007 -1.2382 -0.0609
   43DOPE   C26 5463   0.782   2.858   3.210  0.2120  0.2088  0.4874
   43DOPE   H6R 5464   0.734   2.792   3.135 -0.2401  1.1556 -0.0690
   43DOPE   H6S 5465   0.757   2.966   3.198  2.3317  0.8008  0.9206
   43DOPE   C27 5466   0.721   2.808   3.342 -0.2573  0.1168  0.3675
   43DOPE   H7R 5467   0.742   2.700   3.361  2.5410  0.4457 -0.3875
   43DOPE   H7S 5468   0.611   2.819   3.337 -0.3691  0.2279  2.2058
   43DOPE   C28 5469   0.779   2.881   3.466 -0.3740  0.2326 -0.2288
   43DOPE   H8R 5470   0.785   2.991   3.453 -0.8766  0.4537  1.2412
   43DOPE   H8S 5471   0.884   2.849   3.478  0.0245 -0.5994 -4.3792
   43DOPE   C29 5472   0.699   2.831   3.584 -0.0133  0.5715 -0.3335
   43DOPE   H9R 5473   0.707   2.722   3.595  1.2518  0.3391 -2.7980
   43DOPE  C210 5474   0.623   2.897   3.674 -0.4356 -0.9130  0.2427
   43DOPE  H10R 5475   0.568   2.840   3.750  0.8695 -0.4693  1.5532
   43DOPE  C211 5476   0.616   3.044   3.679 -0.4011  0.7865 -0.6563
   43DOPE  H11R 5477   0.702   3.090   3.625  0.5652  0.0108  0.1885
   43DOPE  H11S 5478   0.620   3.079   3.784 -2.4239  1.3810 -0.7260
   43DOPE  C212 5479   0.484   3.095   3.622 -0.2658 -0.7120  0.2252
   43DOPE  H12R 5480   0.461   3.032   3.533  1.7884 -0.8923 -0.2461
   43DOPE  H12S 5481   0.493   3.200   3.587 -0.3886  0.0448  2.3342
   43DOPE  C213 5482   0.371   3.096   3.721  0.1195 -0.4581  0.9456
   43DOPE  H13R 5483   0.397   3.154   3.812 -1.3901  1.1843  0.3892
   43DOPE  H13S 5484   0.355   2.993   3.759  1.4749 -0.5702  1.2671
   43DOPE  C214 5485   0.238   3.145   3.660 -0.6700 -0.0704  0.2093
   43DOPE  H14R 5486   0.205   3.080   3.577  0.9422 -0.5797 -0.0753
   43DOPE  H14S 5487   0.247   3.246   3.615 -0.3570 -0.8795 -1.6229
   43DOPE  C215 5488   0.134   3.138   3.773 -0.3690  0.1274  0.0389
   43DOPE  H15R 5489   0.152   3.041   3.825 -1.1095  0.7049  1.4122
   43DOPE  H15S 5490   0.031   3.122   3.733  0.3603 -0.4326 -1.7028
   43DOPE  C216 5491   0.132   3.247   3.881  0.5308 -0.4173 -0.8458
   43DOPE  H16R 5492   0.078   3.330   3.831 -1.0882 -0.4626  0.7372
   43DOPE  H16S 5493   0.225   3.288   3.924 -0.5702  0.3431  0.9001
   43DOPE  C217 5494   0.049   3.197   3.998  0.4864  0.1063 -0.4705
   43DOPE  H17R 5495   0.093   3.098   4.023 -1.1352 -0.5375 -0.0725
   43DOPE  H17S 5496  -0.058   3.178   3.978  0.1880  0.6040  0.6169
   43DOPE  C218 5497   0.051   3.300   4.116  0.0451 -0.4268  0.9075
   43DOPE  H18R 5498  -0.008   3.270   4.205 -2.0863  0.7939 -0.0261
   43DOPE  H18S 5499   0.014   3.399   4.080  2.9773  0.4052 -0.0978
   43DOPE  H18T 5500   0.155   3.325   4.145  0.0141  0.2433  0.4675
   43DOPE   C33 5501   0.974   3.382   2.933  0.2423  0.3171  0.4430
   43DOPE   H3X 5502   0.946   3.401   3.038  0.6094  0.6295  0.4899
   43DOPE   H3Y 5503   0.879   3.413   2.884 -0.0120 -2.5590 -1.1218
   43DOPE   C34 5504   1.106   3.454   2.901  0.5050 -0.3032 -0.4387
   43DOPE   H4X 5505   1.131   3.432   2.795  0.3027 -1.0386 -0.3398
   43DOPE   H4Y 5506   1.096   3.564   2.912  1.1361 -0.3074  0.3040
   43DOPE   C35 5507   1.226   3.406   2.979  0.3660  0.3505 -0.8377
   43DOPE   H5X 5508   1.310   3.474   2.952  1.4262 -0.8336 -0.6053
   43DOPE   H5Y 5509   1.251   3.300   2.958 -0.0981 -0.1423  0.9722
   43DOPE   C36 5510   1.203   3.424   3.129  0.5157 -0.0776 -0.5016
   43DOPE   H6X 5511   1.132   3.346   3.163  1.3524 -0.5424  0.2056
   43DOPE   H6Y 5512   1.151   3.519   3.153  1.6876  0.1521  1.2594
   43DOPE   C37 5513   1.324   3.396   3.218 -0.4578 -0.1121 -0.5963
   43DOPE   H7X 5514   1.361   3.294   3.191 -3.5796 -1.7440  0.7635
   43DOPE   H7Y 5515   1.408   3.464   3.194  0.2338 -0.1312  1.5980
   43DOPE   C38 5516   1.293   3.387   3.371  0.6589  0.0831  0.7932
   43DOPE   H8X 5517   1.371   3.328   3.423 -0.2480 -2.4767 -0.5787
   43DOPE   H8Y 5518   1.194   3.336   3.374  0.1430  0.8255 -1.6034
   43DOPE   C39 5519   1.268   3.513   3.448  0.0635  0.4626  0.2564
   43DOPE   H9X 5520   1.173   3.565   3.431 -0.3374 -0.4171 -0.2364
   43DOPE  C310 5521   1.322   3.552   3.565 -0.2827  0.0567  0.4359
   43DOPE  H10X 5522   1.272   3.636   3.616  0.4255 -0.1406  1.4756
   43DOPE  C311 5523   1.424   3.478   3.638  0.0667 -0.1513  0.7447
   43DOPE  H11X 5524   1.396   3.375   3.669  0.9758 -0.0556  1.9220
   43DOPE  H11Y 5525   1.512   3.468   3.572 -1.0540 -2.8205 -0.4950
   43DOPE  C312 5526   1.467   3.551   3.764  0.2787  0.1277  0.1076
   43DOPE  H12X 5527   1.465   3.659   3.737 -0.2932  0.1866  0.3699
   43DOPE  H12Y 5528   1.571   3.533   3.800 -0.0947  0.9189  1.6819
   43DOPE  C313 5529   1.365   3.539   3.875  0.8147  0.9502 -0.7699
   43DOPE  H13X 5530   1.259   3.541   3.841  0.2774 -0.1305  0.7036
   43DOPE  H13Y 5531   1.384   3.440   3.922  0.1696  1.1226 -0.1371
   43DOPE  C314 5532   1.387   3.648   3.980  0.1351 -0.3262  0.0813
   43DOPE  H14X 5533   1.356   3.746   3.938 -1.9969 -1.1901 -0.4957
   43DOPE  H14Y 5534   1.495   3.642   4.006  0.0987 -1.1357  0.0732
   43DOPE  C315 5535   1.308   3.633   4.117  0.1930 -0.1935 -0.3309
   43DOPE  H15X 5536   1.338   3.534   4.157  0.3037  0.4445  1.2061
   43DOPE  H15Y 5537   1.203   3.627   4.080  0.5474 -0.1791 -1.3859
   43DOPE  C316 5538   1.342   3.735   4.227 -0.1622  0.1077  0.2039
   43DOPE  H16X 5539   1.452   3.733   4.244 -0.4201 -1.2314  2.0648
   43DOPE  H16Y 5540   1.295   3.687   4.316 -3.2562 -0.4037 -1.5730
   43DOPE  C317 5541   1.283   3.879   4.217 -0.4962  0.0089  0.3926
   43DOPE  H17X 5542   1.322   3.924   4.123 -1.5982 -0.1550 -0.1619
   43DOPE  H17Y 5543   1.172   3.876   4.206 -0.4996 -1.1577  0.6595
   43DOPE  C318 5544   1.313   3.965   4.341  0.1220  0.2311 -0.4916
   43DOPE  H18X 5545   1.419   3.940   4.360  0.6802  3.1839  0.8656
   43DOPE  H18Y 5546   1.306   4.074   4.319  1.5713  0.3170 -0.6257
   43DOPE  H18Z 5547   1.244   3.945   4.426 -1.2387  1.2557 -1.3118
   44DOPE     N 5548   3.188   1.693   2.336 -0.1616 -0.0865 -0.0546
   44DOPE   HN1 5549   3.228   1.730   2.247 -1.8794  1.3944 -0.2643
   44DOPE   HN2 5550   3.237   1.603   2.353  1.9331  1.0695  0.5042
   44DOPE   HN3 5551   3.085   1.684   2.327 -0.1394  0.5953 -1.1791
   44DOPE   C12 5552   3.212   1.776   2.457 -0.5815  0.1889  0.2753
   44DOPE  H12A 5553   3.121   1.840   2.461 -0.7417 -0.0338  0.1899
   44DOPE  H12B 5554   3.299   1.841   2.433 -0.3447 -0.8158 -1.7721
   44DOPE   C11 5555   3.226   1.682   2.578 -0.1756 -0.0743  0.1072
   44DOPE  H11A 5556   3.136   1.626   2.612  0.3444 -1.1844 -0.3075
   44DOPE  H11B 5557   3.246   1.751   2.663 -0.6918  1.8417 -1.2665
   44DOPE     P 5558   3.315   1.439   2.564  0.3429  0.1551  0.0438
   44DOPE   O13 5559   3.416   1.365   2.474  0.2313 -0.1076  0.1700
   44DOPE   O14 5560   3.173   1.415   2.539  0.8263 -0.1023 -0.0532
   44DOPE   O11 5561   3.347   1.409   2.714  0.8097  0.0849 -0.1539
   44DOPE   O12 5562   3.335   1.591   2.560  0.1905  0.3040 -0.4658
   44DOPE    C1 5563   3.421   1.504   2.794  0.0252 -0.0524  0.7769
   44DOPE    HA 5564   3.361   1.597   2.786 -0.4211 -0.4251 -0.3298
   44DOPE    HB 5565   3.521   1.527   2.752 -1.1366  1.1815 -1.4648
   44DOPE    C2 5566   3.410   1.465   2.944 -0.1703  0.0969 -0.1781
   44DOPE    HS 5567   3.456   1.545   3.007 -1.4190 -0.7331  1.9076
   44DOPE   O21 5568   3.470   1.343   2.978 -0.0241 -0.1553 -0.2737
   44DOPE   C21 5569   3.603   1.342   2.958  0.2075 -0.5897 -1.1855
   44DOPE   O22 5570   3.673   1.421   2.900 -0.0631 -0.0934 -0.1944
   44DOPE   C22 5571   3.664   1.231   3.039  0.3322 -0.0915 -0.4328
   44DOPE   H2R 5572   3.766   1.206   3.003  0.3527  1.1997 -1.3459
   44DOPE   H2S 5573   3.597   1.143   3.023 -0.9276  0.6783  0.4037
   44DOPE    C3 5574   3.259   1.461   2.979  0.5072 -0.3827  0.0782
   44DOPE    HX 5575   3.204   1.385   2.919 -1.1436  0.9129 -0.1347
   44DOPE    HY 5576   3.221   1.563   2.956 -1.2584 -1.1030 -0.4487
   44DOPE   O31 5577   3.234   1.415   3.117 -0.0531 -0.2403 -0.1771
   44DOPE   C31 5578   3.240   1.503   3.215  0.4350  0.1976  0.6859
   44DOPE   O32 5579   3.253   1.623   3.198 -0.1408  0.4542  0.3055
   44DOPE   C32 5580   3.226   1.438   3.351  0.1690 -0.4905 -0.0341
   44DOPE   H2X 5581   3.120   1.439   3.383 -0.1528 -2.9817 -0.7633
   44DOPE   H2Y 5582   3.265   1.334   3.342 -0.2271 -0.8314  1.8340
   44DOPE   C23 5583   3.649   1.254   3.195  0.9922 -0.0590  0.3123
   44DOPE   H3R 5584   3.554   1.287   3.241  1.1050 -0.8628  1.1447
   44DOPE   H3S 5585   3.725   1.330   3.224 -0.2251  2.0995 -1.7845
   44DOPE   C24 5586   3.693   1.124   3.270  0.5564 -0.0099  0.3230
   44DOPE   H4R 5587   3.801   1.105   3.257  0.6078  0.5564 -0.1138
   44DOPE   H4S 5588   3.637   1.039   3.226 -1.2476  1.0603  0.4302
   44DOPE   C25 5589   3.678   1.132   3.418  0.0298 -0.2550  0.3765
   44DOPE   H5R 5590   3.574   1.160   3.445 -0.9498 -0.6800 -2.6119
   44DOPE   H5S 5591   3.745   1.215   3.447 -0.3501  1.1047 -2.3026
   44DOPE   C26 5592   3.710   1.003   3.491  0.6258 -0.6969 -0.1845
   44DOPE   H6R 5593   3.807   0.967   3.451  0.8796  1.2510 -1.4649
   44DOPE   H6S 5594   3.624   0.942   3.456 -0.3755 -0.7439  2.2145
   44DOPE   C27 5595   3.724   1.021   3.642 -0.8791 -0.3464  0.5051
   44DOPE   H7R 5596   3.642   1.085   3.681 -1.2861 -1.4866  1.5832
   44DOPE   H7S 5597   3.820   1.072   3.665 -1.6011  0.8971  0.9089
   44DOPE   C28 5598   3.716   0.892   3.727 -0.5947 -0.3184 -0.4399
   44DOPE   H8R 5599   3.790   0.825   3.678  0.8281  1.6961 -1.1345
   44DOPE   H8S 5600   3.613   0.851   3.716 -0.5558 -0.5509  0.0214
   44DOPE   C29 5601   3.751   0.921   3.873 -0.0956  0.3088 -0.6477
   44DOPE   H9R 5602   3.858   0.921   3.895  0.1130 -0.4164 -1.5595
   44DOPE  C210 5603   3.672   0.932   3.979  0.8960  0.5542 -0.1663
   44DOPE  H10R 5604   3.721   0.943   4.077  1.2569  2.0565 -0.4985
   44DOPE  C211 5605   3.522   0.904   3.971  0.5074 -0.2001  0.0366
   44DOPE  H11R 5606   3.483   0.913   3.868  0.0173 -1.0234  0.1400
   44DOPE  H11S 5607   3.466   0.985   4.023 -1.0709 -1.5703  0.5363
   44DOPE  C212 5608   3.483   0.765   4.029 -0.5540  0.7236  1.1085
   44DOPE  H12R 5609   3.527   0.680   3.973  0.9340  0.6879  2.2673
   44DOPE  H12S 5610   3.373   0.755   4.016 -0.6988  3.8434 -1.4668
   44DOPE  C213 5611   3.526   0.728   4.174 -0.1912 -0.0652  0.6495
   44DOPE  H13R 5612   3.636   0.736   4.189  0.0603 -1.5426 -0.2283
   44DOPE  H13S 5613   3.505   0.619   4.185  1.3611 -0.5055 -0.5051
   44DOPE  C214 5614   3.462   0.809   4.284  0.1392  0.3676  0.6550
   44DOPE  H14R 5615   3.354   0.780   4.291  0.3655 -1.5949 -2.2827
   44DOPE  H14S 5616   3.465   0.917   4.260  2.2818 -0.1906 -2.1194
   44DOPE  C215 5617   3.540   0.799   4.414 -0.6129 -0.5375  0.0552
   44DOPE  H15R 5618   3.561   0.695   4.447  1.3775  0.3011  1.6589
   44DOPE  H15S 5619   3.472   0.846   4.489 -0.4985 -0.5734  0.1808
   44DOPE  C216 5620   3.681   0.861   4.422 -0.2085  0.0254  0.4759
   44DOPE  H16R 5621   3.691   0.960   4.372  1.2428 -1.6835 -2.9479
   44DOPE  H16S 5622   3.757   0.801   4.368 -0.9449  0.2324 -0.8132
   44DOPE  C217 5623   3.731   0.864   4.566 -0.0387 -0.4721 -0.7412
   44DOPE  H17R 5624   3.841   0.860   4.577 -0.0208  0.5517 -0.4511
   44DOPE  H17S 5625   3.687   0.784   4.629 -0.6078  0.7863  0.5214
   44DOPE  C218 5626   3.695   0.998   4.623  0.7293  0.2469 -0.5267
   44DOPE  H18R 5627   3.765   1.050   4.691  0.3759 -0.1348  0.1496
   44DOPE  H18S 5628   3.595   1.003   4.673  1.0707 -1.7487  0.4744
   44DOPE  H18T 5629   3.675   1.065   4.537 -0.3503 -0.2209 -0.6650
   44DOPE   C33 5630   3.306   1.506   3.467  0.4387  0.3147  0.2305
   44DOPE   H3X 5631   3.296   1.616   3.454 -0.4367  0.0486 -1.5724
   44DOPE   H3Y 5632   3.414   1.496   3.442  0.8407  1.5304  1.3117
   44DOPE   C34 5633   3.267   1.462   3.611  0.6568 -0.8720  0.8343
   44DOPE   H4X 5634   3.262   1.555   3.671 -2.8702 -0.1645 -0.3016
   44DOPE   H4Y 5635   3.162   1.423   3.607 -2.4416  6.0847 -0.9545
   44DOPE   C35 5636   3.361   1.366   3.679 -0.2584  0.2571  0.2379
   44DOPE   H5X 5637   3.460   1.414   3.694  0.9295 -1.7736 -0.6731
   44DOPE   H5Y 5638   3.376   1.287   3.603 -1.9643  1.0160 -0.9537
   44DOPE   C36 5639   3.301   1.302   3.799 -0.2871 -0.7245 -0.4519
   44DOPE   H6X 5640   3.216   1.232   3.787 -0.2345 -0.9342  0.3483
   44DOPE   H6Y 5641   3.256   1.379   3.865  0.9569 -0.0252 -0.3848
   44DOPE   C37 5642   3.400   1.208   3.885 -0.2484 -0.3770  0.5187
   44DOPE   H7X 5643   3.339   1.191   3.976  0.2072  1.0597  1.1319
   44DOPE   H7Y 5644   3.417   1.112   3.832 -0.2771 -0.6381  0.9836
   44DOPE   C38 5645   3.527   1.287   3.925 -1.0970 -0.8056  0.2335
   44DOPE   H8X 5646   3.581   1.317   3.833  2.3853 -0.9383  2.0799
   44DOPE   H8Y 5647   3.603   1.218   3.968  1.5736  2.0351  0.4410
   44DOPE   C39 5648   3.525   1.401   4.025 -0.5078  0.0895  0.2725
   44DOPE   H9X 5649   3.428   1.452   4.034  0.4146  1.8300  0.7204
   44DOPE  C310 5650   3.626   1.443   4.094 -0.1794 -0.0878  0.5262
   44DOPE  H10X 5651   3.615   1.540   4.145  0.7323  1.0618 -1.3385
   44DOPE  C311 5652   3.765   1.377   4.113  0.1129  0.0558  0.1638
   44DOPE  H11X 5653   3.785   1.284   4.056  0.6700  1.3007 -1.7873
   44DOPE  H11Y 5654   3.840   1.450   4.075 -0.1599  0.7272  0.8733
   44DOPE  C312 5655   3.802   1.335   4.261  0.5463 -0.0638  0.8948
   44DOPE  H12X 5656   3.716   1.276   4.299 -0.5265  1.1312  0.4036
   44DOPE  H12Y 5657   3.803   1.431   4.317 -0.0795  0.0710  0.6869
   44DOPE  C313 5658   3.932   1.264   4.273  0.5689  0.2397 -0.0253
   44DOPE  H13X 5659   3.919   1.170   4.216 -0.6530 -1.5910  3.0183
   44DOPE  H13Y 5660   4.011   1.325   4.223  1.2091  0.0762  0.7814
   44DOPE  C314 5661   3.968   1.225   4.415  0.5530  0.0314  0.7058
   44DOPE  H14X 5662   4.046   1.146   4.420 -0.5619 -1.2826 -1.3361
   44DOPE  H14Y 5663   3.871   1.184   4.450  0.6919 -0.6472  0.2959
   44DOPE  C315 5664   4.007   1.348   4.507  0.0833 -0.2873 -0.1371
   44DOPE  H15X 5665   3.923   1.419   4.490 -0.6701 -1.7959 -3.5997
   44DOPE  H15Y 5666   4.099   1.397   4.468  0.6421 -1.5884 -0.5351
   44DOPE  C316 5667   4.022   1.317   4.658  0.7910  0.8101 -0.3108
   44DOPE  H16X 5668   4.097   1.236   4.660  1.4502  1.1736 -3.7103
   44DOPE  H16Y 5669   3.923   1.284   4.696  0.8966  2.4662  1.5729
   44DOPE  C317 5670   4.070   1.439   4.734  0.0148 -0.2112 -0.6323
   44DOPE  H17X 5671   4.168   1.476   4.697  0.8903 -3.5799 -2.1321
   44DOPE  H17Y 5672   4.002   1.527   4.734  0.9654  0.6297  1.8866
   44DOPE  C318 5673   4.086   1.404   4.885  0.2592  0.5021  0.3251
   44DOPE  H18X 5674   3.985   1.402   4.929 -0.1185  1.1282 -0.4810
   44DOPE  H18Y 5675   4.137   1.307   4.905 -0.7988  0.1321  1.3002
   44DOPE  H18Z 5676   4.150   1.482   4.932  1.3623 -0.4428  0.4481
   45DOPE     N 5677   4.097   1.038   2.329  0.8801  0.4905 -0.3331
   45DOPE   HN1 5678   4.005   1.023   2.376  0.3815  3.4232 -0.2253
   45DOPE   HN2 5679   4.083   1.056   2.228  2.4149 -0.0968 -0.6818
   45DOPE   HN3 5680   4.161   0.956   2.339  1.3688  0.7998 -0.8558
   45DOPE   C12 5681   4.155   1.160   2.383 -0.2201  0.3984  0.0126
   45DOPE  H12A 5682   4.135   1.168   2.492 -2.0246  0.1338 -0.2660
   45DOPE  H12B 5683   4.096   1.244   2.341 -1.6451 -0.3821  0.3686
   45DOPE   C11 5684   4.297   1.180   2.352  0.3555 -0.7031 -1.0261
   45DOPE  H11A 5685   4.353   1.094   2.394 -0.3687  0.0445  1.7017
   45DOPE  H11B 5686   4.333   1.264   2.415 -1.2000 -2.6575  2.8130
   45DOPE     P 5687   4.455   1.250   2.159  0.3849 -0.2438  0.5482
   45DOPE   O13 5688   4.431   1.267   2.015 -0.0288 -0.5099  0.1828
   45DOPE   O14 5689   4.555   1.155   2.205 -0.1637  0.1712  0.2533
   45DOPE   O11 5690   4.485   1.389   2.229  1.1024  0.6534  0.2169
   45DOPE   O12 5691   4.315   1.201   2.212 -0.0391  0.3867 -0.7806
   45DOPE    C1 5692   4.607   1.406   2.308  0.1157  0.2712 -0.1425
   45DOPE    HA 5693   4.644   1.510   2.292 -0.9332  0.6290 -0.3537
   45DOPE    HB 5694   4.688   1.344   2.265  0.4342  0.3924  0.2766
   45DOPE    C2 5695   4.587   1.372   2.454  0.8686 -1.4212 -0.2778
   45DOPE    HS 5696   4.557   1.265   2.460  0.1151 -1.1868  0.2970
   45DOPE   O21 5697   4.486   1.466   2.506 -0.6537  0.4370 -0.3260
   45DOPE   C21 5698   4.418   1.423   2.608  0.2544  0.7560 -0.0422
   45DOPE   O22 5699   4.424   1.307   2.652  0.6349 -0.2743 -0.5069
   45DOPE   C22 5700   4.322   1.527   2.662 -1.2526  0.3636  0.7505
   45DOPE   H2R 5701   4.262   1.478   2.742 -1.0220 -0.4177  0.4515
   45DOPE   H2S 5702   4.251   1.548   2.580 -0.9869 -0.4195  0.3128
   45DOPE    C3 5703   4.715   1.381   2.542 -0.1664 -0.5175  0.1901
   45DOPE    HX 5704   4.759   1.483   2.538  3.9181 -2.1323 -1.2231
   45DOPE    HY 5705   4.798   1.323   2.495 -0.0548 -0.2760  0.0922
   45DOPE   O31 5706   4.693   1.344   2.684  0.1850 -0.1951  0.3737
   45DOPE   C31 5707   4.727   1.220   2.701  0.3880 -0.1737 -0.3322
   45DOPE   O32 5708   4.771   1.140   2.620  0.2107 -0.1720 -0.8886
   45DOPE   C32 5709   4.706   1.200   2.850 -0.3537  0.2415 -0.9686
   45DOPE   H2X 5710   4.779   1.270   2.895 -2.3059  1.1358  1.0087
   45DOPE   H2Y 5711   4.609   1.244   2.882  0.1128  0.9055 -0.4226
   45DOPE   C23 5712   4.396   1.663   2.705  0.0456  0.6765  0.5954
   45DOPE   H3R 5713   4.314   1.736   2.716 -1.7832 -1.3375  1.1346
   45DOPE   H3S 5714   4.456   1.696   2.618 -2.2970  1.5092 -0.7819
   45DOPE   C24 5715   4.469   1.634   2.829 -0.4072  0.3471  0.5398
   45DOPE   H4R 5716   4.524   1.728   2.853 -0.2321  0.4534 -0.2620
   45DOPE   H4S 5717   4.533   1.545   2.808 -1.0493  0.2154 -0.9138
   45DOPE   C25 5718   4.385   1.598   2.954 -0.1324 -0.2011 -0.3723
   45DOPE   H5R 5719   4.339   1.497   2.943 -0.7183  0.1477 -1.1800
   45DOPE   H5S 5720   4.303   1.672   2.947  0.6381  0.5435 -1.7061
   45DOPE   C26 5721   4.461   1.629   3.079 -0.9373 -0.0038 -0.1937
   45DOPE   H6R 5722   4.391   1.655   3.161 -0.6213  2.4539 -0.6259
   45DOPE   H6S 5723   4.516   1.725   3.068  2.9443 -1.6289  2.9254
   45DOPE   C27 5724   4.550   1.505   3.120  0.1095 -0.1477  0.0113
   45DOPE   H7R 5725   4.627   1.495   3.040  0.5880 -0.5027  0.5047
   45DOPE   H7S 5726   4.496   1.408   3.124  2.5177 -1.5448  1.7735
   45DOPE   C28 5727   4.629   1.535   3.250  0.3264 -0.0979 -0.2848
   45DOPE   H8R 5728   4.654   1.643   3.261 -0.3367  0.0103  0.2414
   45DOPE   H8S 5729   4.723   1.476   3.244  0.7180  0.5462 -0.5143
   45DOPE   C29 5730   4.536   1.477   3.365  0.3974 -0.4012 -0.0089
   45DOPE   H9R 5731   4.476   1.387   3.349  1.4722 -1.3593  1.1373
   45DOPE  C210 5732   4.547   1.524   3.490  0.1636 -0.3341  0.1303
   45DOPE  H10R 5733   4.474   1.483   3.561 -0.7905  0.4818 -0.3644
   45DOPE  C211 5734   4.638   1.632   3.546 -0.4929  0.1670  0.5387
   45DOPE  H11R 5735   4.584   1.728   3.554  0.8035  1.1235 -1.4290
   45DOPE  H11S 5736   4.724   1.649   3.477 -1.1723 -1.5094 -0.8082
   45DOPE  C212 5737   4.692   1.588   3.687 -0.1514  0.0412 -0.4205
   45DOPE  H12R 5738   4.749   1.493   3.677  0.3484  0.4180 -1.2526
   45DOPE  H12S 5739   4.607   1.556   3.752 -1.8111  0.3690 -2.3543
   45DOPE  C213 5740   4.776   1.706   3.748 -0.3189 -0.3178 -0.5289
   45DOPE  H13R 5741   4.708   1.793   3.761  0.0238 -0.1402  0.1763
   45DOPE  H13S 5742   4.849   1.736   3.670 -0.8950 -0.9809 -1.3411
   45DOPE  C214 5743   4.855   1.671   3.879 -0.4604 -0.0056 -0.0355
   45DOPE  H14R 5744   4.908   1.762   3.915 -0.7687  0.5136 -0.8511
   45DOPE  H14S 5745   4.925   1.589   3.851 -0.4733  0.3825 -1.2693
   45DOPE  C215 5746   4.764   1.624   3.994  0.3606  0.1141  0.3410
   45DOPE  H15R 5747   4.714   1.528   3.967  0.7718 -0.2176  0.7432
   45DOPE  H15S 5748   4.696   1.706   4.022 -0.0734  0.2284 -0.9653
   45DOPE  C216 5749   4.835   1.585   4.129 -0.3151  0.8488 -0.0670
   45DOPE  H16R 5750   4.875   1.674   4.182 -0.3843 -0.7583  2.8888
   45DOPE  H16S 5751   4.919   1.519   4.100  0.6856  2.7231 -1.6995
   45DOPE  C217 5752   4.747   1.508   4.235 -0.3910 -0.2597  0.1542
   45DOPE  H17R 5753   4.803   1.479   4.326 -2.0124 -4.4045  0.0518
   45DOPE  H17S 5754   4.698   1.421   4.187 -0.5488  0.3319 -0.7873
   45DOPE  C218 5755   4.630   1.596   4.282  0.8749 -0.9999 -0.2102
   45DOPE  H18R 5756   4.546   1.535   4.320  0.8258 -0.8832 -0.1329
   45DOPE  H18S 5757   4.581   1.652   4.199  0.0709 -2.3955 -0.7130
   45DOPE  H18T 5758   4.664   1.660   4.366 -2.3196  1.4965 -0.6528
   45DOPE   C33 5759   4.737   1.054   2.906  0.1418  0.1600 -0.2018
   45DOPE   H3X 5760   4.831   1.016   2.861 -0.4678 -1.7973  0.0463
   45DOPE   H3Y 5761   4.663   0.984   2.861 -3.2755  1.9283  2.1598
   45DOPE   C34 5762   4.747   1.033   3.050 -0.8094  0.3596  0.3608
   45DOPE   H4X 5763   4.755   0.923   3.062  1.8937  0.5806  1.1747
   45DOPE   H4Y 5764   4.845   1.079   3.073 -0.4509 -0.1100 -0.1843
   45DOPE   C35 5765   4.636   1.102   3.125  0.1703  0.3572  0.2257
   45DOPE   H5X 5766   4.545   1.075   3.067  1.0590  0.9100 -1.4712
   45DOPE   H5Y 5767   4.647   1.212   3.114  1.1710  0.2372 -0.0669
   45DOPE   C36 5768   4.608   1.064   3.269 -0.1469 -0.1728  0.3748
   45DOPE   H6X 5769   4.545   0.973   3.279 -1.1821  0.6677  1.9312
   45DOPE   H6Y 5770   4.545   1.146   3.310  0.1277  0.0003  0.4593
   45DOPE   C37 5771   4.735   1.064   3.361 -0.6755 -0.1149 -0.2881
   45DOPE   H7X 5772   4.786   0.967   3.343 -1.4440 -0.6890  0.5339
   45DOPE   H7Y 5773   4.805   1.147   3.339  0.7823 -0.4570  2.5286
   45DOPE   C38 5774   4.697   1.085   3.503  0.2579 -0.1739  0.6800
   45DOPE   H8X 5775   4.624   1.168   3.516  0.0286 -0.1737 -0.5289
   45DOPE   H8Y 5776   4.799   1.115   3.537  1.7135 -0.8165 -2.7114
   45DOPE   C39 5777   4.664   0.967   3.588 -0.4175  0.0319  0.4265
   45DOPE   H9X 5778   4.718   0.875   3.559  0.5300  0.6762  0.1297
   45DOPE  C310 5779   4.585   0.965   3.696  0.3764 -0.7175  0.0794
   45DOPE  H10X 5780   4.575   0.875   3.758  2.8130 -1.5268 -0.5860
   45DOPE  C311 5781   4.506   1.083   3.761 -0.2224  0.1666  0.4387
   45DOPE  H11X 5782   4.522   1.187   3.727 -0.2269  1.3090  3.5823
   45DOPE  H11Y 5783   4.398   1.059   3.765 -0.9793  2.9715 -0.8538
   45DOPE  C312 5784   4.545   1.075   3.905  0.0867 -0.2003  0.6652
   45DOPE  H12X 5785   4.652   1.102   3.916 -0.4586  2.5000  0.0835
   45DOPE  H12Y 5786   4.536   0.974   3.950  0.5810 -1.5560 -2.0378
   45DOPE  C313 5787   4.461   1.170   3.991  0.3230  1.0521 -0.1559
   45DOPE  H13X 5788   4.438   1.259   3.928  2.1161  3.8679  2.7759
   45DOPE  H13Y 5789   4.371   1.112   4.019  0.5781  1.6855  2.2402
   45DOPE  C314 5790   4.537   1.215   4.121  0.3559 -0.0859  0.1547
   45DOPE  H14X 5791   4.511   1.317   4.155  1.0013 -0.2568  1.2043
   45DOPE  H14Y 5792   4.648   1.214   4.108  0.2622 -2.1877 -1.1241
   45DOPE  C315 5793   4.500   1.131   4.245  0.0940 -0.0293 -0.1366
   45DOPE  H15X 5794   4.537   1.026   4.234  0.5530 -0.0707  1.5128
   45DOPE  H15Y 5795   4.389   1.123   4.244  0.1973 -4.6706  0.3837
   45DOPE  C316 5796   4.546   1.187   4.375 -0.1475 -0.0691 -0.3415
   45DOPE  H16X 5797   4.522   1.294   4.391  1.1713  0.2767 -0.5240
   45DOPE  H16Y 5798   4.657   1.176   4.384 -0.1515 -0.4790 -0.7448
   45DOPE  C317 5799   4.490   1.116   4.498  0.0252  0.3944 -0.3029
   45DOPE  H17X 5800   4.520   1.009   4.498  1.3094  0.7240  0.6719
   45DOPE  H17Y 5801   4.533   1.165   4.588 -1.5234  2.1888 -0.4801
   45DOPE  C318 5802   4.346   1.147   4.514  0.2840 -1.3906  0.0842
   45DOPE  H18X 5803   4.321   1.117   4.618 -0.8085  0.0195  0.2638
   45DOPE  H18Y 5804   4.328   1.255   4.495  0.8456 -0.9401  1.9231
   45DOPE  H18Z 5805   4.273   1.083   4.461  0.9755 -2.0050 -0.1419
   46DOPE     N 5806   4.431   6.994   2.396  0.0635  0.1953 -0.4793
   46DOPE   HN1 5807   4.410   7.055   2.314  1.3702 -0.1018 -1.0607
   46DOPE   HN2 5808   4.351   6.938   2.431  1.8190 -1.8963  0.4015
   46DOPE   HN3 5809   4.449   7.061   2.474  0.3885 -0.0165 -0.3716
   46DOPE   C12 5810   4.548   6.901   2.362 -0.5398 -0.4161  0.2801
   46DOPE  H12A 5811   4.605   6.882   2.455 -2.2240 -0.0923  1.4325
   46DOPE  H12B 5812   4.611   6.953   2.286 -2.3167 -0.1622 -1.0900
   46DOPE   C11 5813   4.506   6.767   2.308  0.9126 -0.1217 -0.6762
   46DOPE  H11A 5814   4.600   6.707   2.307  0.5912 -0.7132  1.4253
   46DOPE  H11B 5815   4.467   6.769   2.204 -2.4312 -1.2910  0.4223
   46DOPE     P 5816   4.446   6.578   2.474  0.0911  0.2839 -0.0724
   46DOPE   O13 5817   4.540   6.486   2.403  0.2549 -0.1278  0.0980
   46DOPE   O14 5818   4.330   6.512   2.543 -0.0428 -0.8045 -0.0569
   46DOPE   O11 5819   4.536   6.654   2.583 -0.1121  0.0685  0.6653
   46DOPE   O12 5820   4.403   6.701   2.378 -0.1795 -0.0791 -0.2757
   46DOPE    C1 5821   4.472   6.734   2.680 -0.1543  0.5546 -0.3169
   46DOPE    HA 5822   4.367   6.704   2.699  0.0261  0.1123 -0.0140
   46DOPE    HB 5823   4.457   6.834   2.634  1.2000  0.6240 -0.6631
   46DOPE    C2 5824   4.552   6.741   2.812 -0.4575  0.0103  0.2040
   46DOPE    HS 5825   4.496   6.810   2.879 -0.1549  1.8795 -1.3666
   46DOPE   O21 5826   4.687   6.795   2.787  0.3301 -0.0649 -0.1449
   46DOPE   C21 5827   4.683   6.921   2.747 -0.2849  0.1651 -0.2340
   46DOPE   O22 5828   4.585   6.997   2.750  1.0520  0.3269  0.0738
   46DOPE   C22 5829   4.824   6.972   2.712  0.1008 -0.1954 -0.0370
   46DOPE   H2R 5830   4.843   6.988   2.604  0.2379 -0.5779 -0.0708
   46DOPE   H2S 5831   4.902   6.897   2.738  1.8463  0.4515 -2.9720
   46DOPE    C3 5832   4.551   6.598   2.866 -0.2688 -0.5179  0.1929
   46DOPE    HX 5833   4.609   6.538   2.793 -1.7076 -1.4161 -0.2555
   46DOPE    HY 5834   4.451   6.548   2.860  0.1449 -1.1905 -2.0050
   46DOPE   O31 5835   4.616   6.595   2.994  0.3294 -0.5100 -0.0171
   46DOPE   C31 5836   4.597   6.485   3.069 -0.3754 -0.4032  0.5899
   46DOPE   O32 5837   4.539   6.389   3.022 -0.5132 -0.0784  0.3855
   46DOPE   C32 5838   4.648   6.504   3.212  0.7615 -0.4104 -0.1343
   46DOPE   H2X 5839   4.706   6.409   3.220  0.5623 -0.6083 -0.9804
   46DOPE   H2Y 5840   4.722   6.587   3.209  0.2503  0.0319 -1.7007
   46DOPE   C23 5841   4.852   7.102   2.795 -0.1925  0.9426 -1.0785
   46DOPE   H3R 5842   4.829   7.094   2.904  0.7516  0.2911 -0.9172
   46DOPE   H3S 5843   4.788   7.188   2.766 -1.3016  0.4734 -0.1111
   46DOPE   C24 5844   5.000   7.141   2.802  0.3290  0.5075  0.0507
   46DOPE   H4R 5845   5.005   7.232   2.866 -1.7766  1.0849 -0.5326
   46DOPE   H4S 5846   5.027   7.174   2.699 -2.2692 -1.6078 -1.4522
   46DOPE   C25 5847   5.106   7.033   2.852  0.4742  0.2324  0.5208
   46DOPE   H5R 5848   5.135   6.959   2.774 -0.5933  0.2535  0.0972
   46DOPE   H5S 5849   5.056   6.983   2.938 -0.0411 -1.3051 -0.6366
   46DOPE   C26 5850   5.228   7.109   2.898  0.3216 -0.3733  0.1051
   46DOPE   H6R 5851   5.197   7.193   2.963  1.8569  0.5172 -0.2757
   46DOPE   H6S 5852   5.261   7.155   2.802 -0.8236  0.2252 -0.0203
   46DOPE   C27 5853   5.346   7.029   2.948  0.4322  0.4337  0.5006
   46DOPE   H7R 5854   5.368   6.950   2.873  2.1037 -0.5262  1.9104
   46DOPE   H7S 5855   5.314   6.979   3.042  1.8306  0.2982  0.9416
   46DOPE   C28 5856   5.476   7.105   2.969 -0.0932 -0.2177 -0.0410
   46DOPE   H8R 5857   5.444   7.193   3.028  0.5677 -0.1075  0.1676
   46DOPE   H8S 5858   5.505   7.149   2.871 -2.0603  0.5542 -0.3195
   46DOPE   C29 5859   5.579   7.025   3.040  0.0934  0.2701  0.0166
   46DOPE   H9R 5860   5.565   6.916   3.045  0.0892  0.3125  1.3946
   46DOPE  C210 5861   5.692   7.070   3.090  0.1378 -0.3787 -0.7688
   46DOPE  H10R 5862   5.751   6.990   3.137 -0.7105 -0.0249  1.0054
   46DOPE  C211 5863   5.755   7.208   3.092 -0.5440  0.5902 -0.1300
   46DOPE  H11R 5864   5.704   7.277   3.021 -0.7576  0.8656  0.2881
   46DOPE  H11S 5865   5.860   7.207   3.056 -0.3718 -1.3894  0.3286
   46DOPE  C212 5866   5.755   7.276   3.223  0.4644 -0.0366 -0.3817
   46DOPE  H12R 5867   5.647   7.291   3.245 -0.2819 -0.3120 -3.5179
   46DOPE  H12S 5868   5.795   7.379   3.209 -0.4297 -0.0437 -3.7616
   46DOPE  C213 5869   5.819   7.204   3.345 -0.1058 -1.4475  0.1358
   46DOPE  H13R 5870   5.929   7.194   3.336  0.2296  0.3776  1.6836
   46DOPE  H13S 5871   5.789   7.098   3.354  0.0652 -1.7269 -1.9833
   46DOPE  C214 5872   5.798   7.284   3.472 -0.7790  0.1411 -0.2060
   46DOPE  H14R 5873   5.796   7.395   3.461 -0.8232  0.4565  2.3926
   46DOPE  H14S 5874   5.880   7.267   3.546 -0.9501 -1.0778 -0.2781
   46DOPE  C215 5875   5.676   7.244   3.548  0.7130 -0.0112 -0.0051
   46DOPE  H15R 5876   5.663   7.134   3.558  0.5926  0.0276  0.2621
   46DOPE  H15S 5877   5.590   7.262   3.480  0.5006  0.9309  0.4999
   46DOPE  C216 5878   5.664   7.313   3.685  0.5556 -0.5207  0.2656
   46DOPE  H16R 5879   5.672   7.423   3.672  2.1193 -0.6192  0.1353
   46DOPE  H16S 5880   5.748   7.279   3.749  1.2164 -2.3847 -1.4990
   46DOPE  C217 5881   5.523   7.277   3.746  0.1409  0.5640  0.3226
   46DOPE  H17R 5882   5.517   7.166   3.744 -1.3332  0.6032  0.9287
   46DOPE  H17S 5883   5.448   7.311   3.672  0.8074  2.0806  0.2975
   46DOPE  C218 5884   5.479   7.319   3.887  0.0324 -0.8454  0.8224
   46DOPE  H18R 5885   5.440   7.423   3.883  0.9569 -0.4996  0.7083
   46DOPE  H18S 5886   5.565   7.312   3.956  1.3929  1.3724 -0.5130
   46DOPE  H18T 5887   5.400   7.249   3.922  0.2431 -1.9693 -0.8613
   46DOPE   C33 5888   4.544   6.523   3.325  0.0471 -0.0129  0.1140
   46DOPE   H3X 5889   4.474   6.436   3.318 -0.0789 -0.0524  1.6032
   46DOPE   H3Y 5890   4.485   6.616   3.317  0.1822  0.2254  1.6551
   46DOPE   C34 5891   4.606   6.534   3.460 -0.4295  0.3908 -0.5387
   46DOPE   H4X 5892   4.630   6.429   3.490 -1.0658  0.8106  1.6630
   46DOPE   H4Y 5893   4.704   6.584   3.447 -0.2523 -0.2426 -1.8160
   46DOPE   C35 5894   4.514   6.604   3.567 -0.5898  0.2427 -0.4415
   46DOPE   H5X 5895   4.413   6.559   3.563 -0.7968  0.7656 -1.7440
   46DOPE   H5Y 5896   4.523   6.714   3.550  1.6145  0.4186  1.3570
   46DOPE   C36 5897   4.567   6.600   3.711  0.3713  0.4783 -0.1227
   46DOPE   H6X 5898   4.673   6.626   3.731  0.9874 -1.6289 -0.3583
   46DOPE   H6Y 5899   4.558   6.500   3.759  1.0591  0.6919  0.4697
   46DOPE   C37 5900   4.482   6.687   3.803  0.1136 -1.3062  0.0740
   46DOPE   H7X 5901   4.496   6.794   3.780  0.9767 -1.5082 -0.3744
   46DOPE   H7Y 5902   4.374   6.672   3.782 -0.0644  1.4774 -1.4529
   46DOPE   C38 5903   4.496   6.667   3.958 -0.6971 -0.3098  0.5846
   46DOPE   H8X 5904   4.422   6.737   4.003 -2.4153 -1.3996 -0.4123
   46DOPE   H8Y 5905   4.596   6.710   3.983  0.6431 -1.9498 -1.6099
   46DOPE   C39 5906   4.457   6.529   4.012  0.3556 -0.3341 -0.5320
   46DOPE   H9X 5907   4.354   6.505   3.981  1.1961 -0.0850 -3.8937
   46DOPE  C310 5908   4.505   6.457   4.114  0.5892 -0.6267  0.0864
   46DOPE  H10X 5909   4.467   6.357   4.138  0.6106 -0.3580  1.2850
   46DOPE  C311 5910   4.628   6.479   4.195 -0.0141 -0.5575 -0.1245
   46DOPE  H11X 5911   4.617   6.585   4.228  0.0240 -0.6927  0.3304
   46DOPE  H11Y 5912   4.634   6.411   4.282 -0.3698 -0.5872 -0.1250
   46DOPE  C312 5913   4.752   6.458   4.103 -0.2467  0.1907 -0.3605
   46DOPE  H12X 5914   4.843   6.494   4.157  0.0167 -1.3237  0.2547
   46DOPE  H12Y 5915   4.742   6.514   4.008 -1.3809 -0.1169 -0.4306
   46DOPE  C313 5916   4.794   6.314   4.083 -0.4811  0.3258 -0.6083
   46DOPE  H13X 5917   4.718   6.261   4.022 -1.4332 -0.4822  1.1918
   46DOPE  H13Y 5918   4.887   6.311   4.022 -0.4795  0.8513 -0.6304
   46DOPE  C314 5919   4.830   6.219   4.197  0.0545 -0.3934 -0.1798
   46DOPE  H14X 5920   4.849   6.117   4.159 -1.0093 -0.3483 -0.8678
   46DOPE  H14Y 5921   4.739   6.216   4.260  0.1407  1.3461  0.0906
   46DOPE  C315 5922   4.954   6.266   4.266 -0.3130  0.0526  0.0875
   46DOPE  H15X 5923   4.935   6.373   4.290  0.7927  1.0417 -2.9958
   46DOPE  H15Y 5924   5.038   6.263   4.193  0.1259 -1.3206  0.6096
   46DOPE  C316 5925   4.996   6.188   4.390 -0.3171  0.0559 -0.0270
   46DOPE  H16X 5926   5.068   6.255   4.441 -1.1430  0.6008  0.4584
   46DOPE  H16Y 5927   5.037   6.087   4.371 -1.5333 -0.5193  0.2806
   46DOPE  C317 5928   4.883   6.175   4.492  1.0159  0.0529 -0.2529
   46DOPE  H17X 5929   4.928   6.181   4.593 -3.0456 -2.0092  1.9169
   46DOPE  H17Y 5930   4.812   6.260   4.491 -3.1950 -3.1072  0.7813
   46DOPE  C318 5931   4.811   6.038   4.496 -0.0454  0.0532  0.2135
   46DOPE  H18X 5932   4.881   5.953   4.515  2.7643  2.1034 -0.4162
   46DOPE  H18Y 5933   4.745   6.035   4.586  2.4197  0.2512  2.1548
   46DOPE  H18Z 5934   4.762   6.028   4.397  1.0186  1.2956 -0.4687
   47DOPE     N 5935   2.963   6.605   2.351  0.0560  0.4227  0.3551
   47DOPE   HN1 5936   3.046   6.623   2.412 -0.6453 -0.0259  1.4769
   47DOPE   HN2 5937   2.995   6.614   2.252 -4.0579  0.8463 -1.1435
   47DOPE   HN3 5938   2.877   6.662   2.366 -2.5533 -2.6449 -1.6713
   47DOPE   C12 5939   2.909   6.464   2.371 -0.4634  0.5040  0.1310
   47DOPE  H12A 5940   2.986   6.389   2.399 -0.8300 -0.4638 -1.3511
   47DOPE  H12B 5941   2.860   6.420   2.281 -2.9749 -0.6548  1.9163
   47DOPE   C11 5942   2.809   6.459   2.483  0.1653  0.4819 -0.4645
   47DOPE  H11A 5943   2.856   6.486   2.580 -1.3586 -1.6078  0.9461
   47DOPE  H11B 5944   2.777   6.354   2.501 -1.3063  0.6343 -1.9375
   47DOPE     P 5945   2.647   6.650   2.543  0.5424 -0.0831  0.0939
   47DOPE   O13 5946   2.530   6.716   2.490  0.7215  0.9071  0.1747
   47DOPE   O14 5947   2.764   6.739   2.564 -0.2086  0.1452 -0.0286
   47DOPE   O11 5948   2.610   6.578   2.677 -0.5185 -0.2164 -0.4525
   47DOPE   O12 5949   2.690   6.530   2.454 -0.1558  0.5497 -0.0111
   47DOPE    C1 5950   2.513   6.474   2.701 -1.1311 -0.2195  0.3023
   47DOPE    HA 5951   2.547   6.406   2.781  0.7729  1.3910  0.9423
   47DOPE    HB 5952   2.503   6.416   2.606  1.2806 -0.1886 -0.0397
   47DOPE    C2 5953   2.383   6.535   2.760  0.0997 -0.3030 -0.2996
   47DOPE    HS 5954   2.352   6.615   2.689  4.0503 -0.4021 -2.4527
   47DOPE   O21 5955   2.420   6.605   2.884 -0.2463 -0.0039  0.3757
   47DOPE   C21 5956   2.326   6.687   2.930 -0.0477 -0.1147  0.6486
   47DOPE   O22 5957   2.220   6.706   2.871  0.1487 -0.3754 -0.0783
   47DOPE   C22 5958   2.374   6.749   3.063 -1.5096 -0.3630 -0.3646
   47DOPE   H2R 5959   2.467   6.802   3.032 -0.5518 -1.2056  0.9862
   47DOPE   H2S 5960   2.402   6.672   3.137 -0.8900  0.7669  0.6177
   47DOPE    C3 5961   2.269   6.427   2.773 -0.4154 -0.0273 -0.1480
   47DOPE    HX 5962   2.242   6.416   2.665 -0.2177 -1.1970 -0.0985
   47DOPE    HY 5963   2.186   6.469   2.834  0.5375 -0.0451  1.1899
   47DOPE   O31 5964   2.317   6.302   2.835  0.5189  0.0225 -0.3176
   47DOPE   C31 5965   2.298   6.293   2.966 -0.3564 -1.1645 -0.1336
   47DOPE   O32 5966   2.259   6.385   3.038 -0.2723  1.0203 -0.0256
   47DOPE   C32 5967   2.335   6.149   3.010  0.5026 -1.2302  0.3757
   47DOPE   H2X 5968   2.256   6.080   2.975  1.2752 -2.1750  0.4660
   47DOPE   H2Y 5969   2.432   6.115   2.967 -0.4259 -2.7002 -0.6318
   47DOPE   C23 5970   2.259   6.834   3.122 -0.4812 -0.7259 -0.5418
   47DOPE   H3R 5971   2.166   6.774   3.113  0.3587 -2.2244  0.3203
   47DOPE   H3S 5972   2.248   6.926   3.062 -0.0013 -1.1931 -1.3677
   47DOPE   C24 5973   2.269   6.869   3.271  0.7297 -0.2827  0.6818
   47DOPE   H4R 5974   2.373   6.891   3.304  1.8009 -0.2597 -2.4028
   47DOPE   H4S 5975   2.230   6.781   3.326  1.5958 -0.1429  1.5552
   47DOPE   C25 5976   2.179   6.984   3.314  0.0140 -0.4149  0.2700
   47DOPE   H5R 5977   2.071   6.971   3.290  0.4358 -2.2040 -0.8867
   47DOPE   H5S 5978   2.213   7.073   3.258 -2.0286 -0.5988 -1.3591
   47DOPE   C26 5979   2.188   6.997   3.465 -0.5787  0.2195  0.3466
   47DOPE   H6R 5980   2.291   7.022   3.499 -0.6353  1.2801 -0.2361
   47DOPE   H6S 5981   2.155   6.899   3.507 -0.3886  0.7325  1.7639
   47DOPE   C27 5982   2.099   7.110   3.518  0.1338 -0.1029  0.1390
   47DOPE   H7R 5983   1.999   7.073   3.487  1.0262 -1.4032 -1.3272
   47DOPE   H7S 5984   2.121   7.204   3.464 -0.1725  1.4161  2.5182
   47DOPE   C28 5985   2.114   7.131   3.669 -0.2603  1.1730  0.4450
   47DOPE   H8R 5986   2.078   7.232   3.699  1.9912  1.9510  0.7438
   47DOPE   H8S 5987   2.224   7.127   3.684 -0.5138  0.0023  2.2075
   47DOPE   C29 5988   2.038   7.024   3.741 -0.6520 -0.2990  0.4322
   47DOPE   H9R 5989   2.051   6.927   3.691 -2.2824 -0.6317  0.6134
   47DOPE  C210 5990   1.969   7.037   3.852 -0.0423 -0.1271 -0.1506
   47DOPE  H10R 5991   1.931   6.945   3.899 -1.5736  0.5369 -0.0414
   47DOPE  C211 5992   1.963   7.167   3.935 -0.2247  0.6901 -0.4146
   47DOPE  H11R 5993   1.858   7.187   3.964  0.4212 -0.0607  2.8991
   47DOPE  H11S 5994   1.995   7.254   3.874 -1.1541  1.2112 -0.1630
   47DOPE  C212 5995   2.043   7.161   4.064 -0.1532  0.0616 -0.1215
   47DOPE  H12R 5996   2.149   7.135   4.041 -0.2768 -0.4605 -0.1286
   47DOPE  H12S 5997   1.997   7.081   4.127 -0.3027 -0.0108 -0.3243
   47DOPE  C213 5998   2.049   7.294   4.131  0.1777 -0.2358  0.5210
   47DOPE  H13R 5999   1.941   7.309   4.154  0.0417 -0.2763 -0.0759
   47DOPE  H13S 6000   2.082   7.372   4.059  0.6709 -0.7850  0.1403
   47DOPE  C214 6001   2.133   7.294   4.255 -0.2640  0.4263  0.4880
   47DOPE  H14R 6002   2.081   7.229   4.329 -0.8631 -1.5637 -1.5347
   47DOPE  H14S 6003   2.132   7.394   4.302  0.1366  0.6044  0.1216
   47DOPE  C215 6004   2.282   7.253   4.223  0.1550 -0.0688  0.6932
   47DOPE  H15R 6005   2.312   7.320   4.140  1.4960  0.6016  1.6809
   47DOPE  H15S 6006   2.281   7.145   4.196 -0.5509  0.1030 -0.0057
   47DOPE  C216 6007   2.382   7.276   4.338  0.2150 -0.2714  0.6557
   47DOPE  H16R 6008   2.346   7.209   4.420 -3.5016  0.3522 -0.2655
   47DOPE  H16S 6009   2.369   7.375   4.386  1.0853 -0.4027  1.1703
   47DOPE  C217 6010   2.518   7.241   4.294  0.3379  0.2092  0.8273
   47DOPE  H17R 6011   2.561   7.299   4.209  2.6378 -0.0672  1.7186
   47DOPE  H17S 6012   2.522   7.141   4.246  0.3608  0.6200 -0.0591
   47DOPE  C218 6013   2.626   7.250   4.407  0.4596 -0.6349 -0.0807
   47DOPE  H18R 6014   2.731   7.228   4.379  0.0590 -2.0965 -0.5111
   47DOPE  H18S 6015   2.591   7.192   4.495 -0.3863 -0.6620 -0.4247
   47DOPE  H18T 6016   2.624   7.356   4.442 -1.1017 -0.3578 -0.9278
   47DOPE   C33 6017   2.343   6.131   3.159  0.0200 -1.0742  0.2896
   47DOPE   H3X 6018   2.341   6.025   3.192 -1.9175 -1.1361  0.0861
   47DOPE   H3Y 6019   2.246   6.159   3.205  0.0944 -1.8399  0.9357
   47DOPE   C34 6020   2.470   6.197   3.213  0.8307 -0.5824  0.0711
   47DOPE   H4X 6021   2.552   6.171   3.142 -0.5801 -0.3921 -1.7168
   47DOPE   H4Y 6022   2.454   6.306   3.202 -0.2425 -0.9156 -2.2579
   47DOPE   C35 6023   2.504   6.169   3.355 -0.3633  0.7851  0.7331
   47DOPE   H5X 6024   2.599   6.218   3.386  0.8694 -0.1066 -1.4101
   47DOPE   H5Y 6025   2.538   6.064   3.373  0.3926  0.8251 -0.3760
   47DOPE   C36 6026   2.398   6.197   3.464  0.3812  0.1517 -0.3594
   47DOPE   H6X 6027   2.302   6.142   3.452 -0.0877  0.4032  1.7466
   47DOPE   H6Y 6028   2.362   6.302   3.459  1.7721  0.7788  1.3912
   47DOPE   C37 6029   2.437   6.173   3.614 -0.6794  0.3132  0.2258
   47DOPE   H7X 6030   2.383   6.085   3.654 -0.3183  0.2054  0.4824
   47DOPE   H7Y 6031   2.545   6.150   3.607 -0.0830  2.0398  2.5945
   47DOPE   C38 6032   2.437   6.298   3.711 -0.1124  0.2256  0.3024
   47DOPE   H8X 6033   2.344   6.356   3.692 -0.1435  0.5314  1.3313
   47DOPE   H8Y 6034   2.528   6.356   3.685  0.4299 -1.1386 -1.0201
   47DOPE   C39 6035   2.466   6.238   3.847  0.3981  0.0514 -0.0537
   47DOPE   H9X 6036   2.555   6.173   3.847  0.2947 -0.0888 -0.0796
   47DOPE  C310 6037   2.409   6.275   3.963 -0.0019 -0.3415 -0.1889
   47DOPE  H10X 6038   2.432   6.235   4.063 -4.4185 -3.4047 -0.0845
   47DOPE  C311 6039   2.291   6.366   3.967 -0.0556  0.0625 -0.6993
   47DOPE  H11X 6040   2.321   6.452   4.031  1.3600  0.8714 -2.3588
   47DOPE  H11Y 6041   2.270   6.416   3.870  0.7940 -0.3547 -1.1066
   47DOPE  C312 6042   2.178   6.282   4.031 -0.0825 -0.0544  0.3485
   47DOPE  H12X 6043   2.143   6.207   3.956 -0.1661  0.5889 -0.2623
   47DOPE  H12Y 6044   2.091   6.351   4.030 -0.5478 -0.6132  0.7734
   47DOPE  C313 6045   2.194   6.223   4.172  0.3087  0.4479 -0.0253
   47DOPE  H13X 6046   2.098   6.173   4.197  0.1178  0.3189 -0.9776
   47DOPE  H13Y 6047   2.262   6.135   4.171 -1.0185 -0.6591  1.4441
   47DOPE  C314 6048   2.217   6.332   4.276  0.1319  0.0743 -0.1191
   47DOPE  H14X 6049   2.149   6.417   4.252 -1.8030 -1.9401 -2.2548
   47DOPE  H14Y 6050   2.319   6.374   4.260 -0.4560  1.3961 -0.5616
   47DOPE  C315 6051   2.184   6.287   4.427 -0.2268  1.3401 -0.3123
   47DOPE  H15X 6052   2.257   6.336   4.494  0.4237 -0.9246  0.7434
   47DOPE  H15Y 6053   2.196   6.176   4.424 -0.1210  1.3268 -3.9780
   47DOPE  C316 6054   2.043   6.323   4.479  0.4269  0.0079  1.1524
   47DOPE  H16X 6055   2.010   6.245   4.550  0.4794 -1.5938 -0.4965
   47DOPE  H16Y 6056   1.976   6.309   4.391  1.9783 -3.5768  0.3357
   47DOPE  C317 6057   2.032   6.466   4.536  0.6717  0.2694  0.5834
   47DOPE  H17X 6058   2.132   6.503   4.565  1.0902  0.3496 -0.9021
   47DOPE  H17Y 6059   1.997   6.538   4.458 -0.4083 -0.0004  0.8007
   47DOPE  C318 6060   1.930   6.469   4.662  0.5246  0.9106 -0.3964
   47DOPE  H18X 6061   1.978   6.404   4.738  1.9683  0.3317 -1.7402
   47DOPE  H18Y 6062   1.917   6.565   4.715 -0.9049 -0.1490  1.2786
   47DOPE  H18Z 6063   1.828   6.433   4.637  0.3608  0.3102  1.0598
   48DOPE     N 6064   6.325   2.046   2.128 -0.6056 -0.0886  0.2516
   48DOPE   HN1 6065   6.328   1.952   2.173 -0.8357 -1.0508 -1.6568
   48DOPE   HN2 6066   6.234   2.058   2.079 -0.8042 -1.0965  0.3461
   48DOPE   HN3 6067   6.394   2.047   2.051 -0.1923 -1.5288  0.5717
   48DOPE   C12 6068   6.354   2.162   2.218 -0.0711 -0.8980 -0.0572
   48DOPE  H12A 6069   6.264   2.167   2.282 -0.3617 -1.4051 -0.4189
   48DOPE  H12B 6070   6.351   2.261   2.168 -1.8762 -0.0295  1.6217
   48DOPE   C11 6071   6.487   2.152   2.291 -1.2682  0.5319  0.7339
   48DOPE  H11A 6072   6.480   2.059   2.352 -2.2732 -0.1283 -0.3543
   48DOPE  H11B 6073   6.497   2.232   2.368  0.2501  0.4040  0.7036
   48DOPE     P 6074   6.726   2.244   2.204  0.1754 -0.5714 -0.3337
   48DOPE   O13 6075   6.674   2.369   2.268 -0.2533  0.1713  0.3469
   48DOPE   O14 6076   6.790   2.250   2.072  0.2753 -0.3508 -0.2880
   48DOPE   O11 6077   6.828   2.172   2.301  0.8855 -0.3151 -0.3458
   48DOPE   O12 6078   6.600   2.145   2.204  0.4668 -0.1845 -0.7158
   48DOPE    C1 6079   6.797   2.117   2.431 -0.3611  0.4848  0.1638
   48DOPE    HA 6080   6.765   2.012   2.415  2.9294 -0.7566  0.8944
   48DOPE    HB 6081   6.713   2.170   2.481 -0.7648 -2.5646  3.0557
   48DOPE    C2 6082   6.916   2.127   2.537 -0.0596 -1.1512  0.2740
   48DOPE    HS 6083   7.002   2.079   2.484 -0.2997  1.2153 -2.5556
   48DOPE   O21 6084   6.873   2.065   2.653  0.1958 -0.5276 -0.5003
   48DOPE   C21 6085   6.973   2.024   2.734 -0.5318 -0.4244 -0.8135
   48DOPE   O22 6086   7.090   2.060   2.732  0.5923  0.2555 -0.2397
   48DOPE   C22 6087   6.913   1.927   2.838  0.0996  1.0673  0.1630
   48DOPE   H2R 6088   6.889   1.825   2.802 -2.3679  1.5867  0.2041
   48DOPE   H2S 6089   6.817   1.974   2.867 -0.5439  0.5200 -0.9802
   48DOPE    C3 6090   6.957   2.280   2.557 -0.0873  0.6600 -0.3655
   48DOPE    HX 6091   6.987   2.325   2.459  0.9599  0.5081 -0.1267
   48DOPE    HY 6092   7.051   2.272   2.615  1.0896  0.8369 -2.1529
   48DOPE   O31 6093   6.864   2.354   2.627 -0.0941 -0.5304  0.3796
   48DOPE   C31 6094   6.834   2.484   2.583 -0.5245 -0.0539  0.3581
   48DOPE   O32 6095   6.892   2.544   2.495  0.2685 -0.2857  0.3207
   48DOPE   C32 6096   6.726   2.541   2.672 -0.3137  0.0462  0.5389
   48DOPE   H2X 6097   6.630   2.521   2.621  0.0351 -1.6794  0.4798
   48DOPE   H2Y 6098   6.726   2.481   2.766  0.9449 -1.5316 -0.4215
   48DOPE   C23 6099   7.009   1.903   2.955  0.8170 -0.5685 -0.0382
   48DOPE   H3R 6100   7.065   1.994   2.982  0.3025 -0.9479  2.5870
   48DOPE   H3S 6101   7.083   1.830   2.916  1.4972 -0.3615  0.8484
   48DOPE   C24 6102   6.929   1.856   3.080  1.1040  0.5223 -0.0626
   48DOPE   H4R 6103   6.864   1.773   3.046  1.4578 -0.4067  1.4540
   48DOPE   H4S 6104   6.853   1.934   3.104  0.6965 -0.3314  1.5031
   48DOPE   C25 6105   7.014   1.822   3.198 -0.5824  0.4129  0.6920
   48DOPE   H5R 6106   7.091   1.901   3.219  0.0691 -0.6112  2.3866
   48DOPE   H5S 6107   7.076   1.732   3.178  2.1918  2.0632  1.1580
   48DOPE   C26 6108   6.926   1.813   3.324 -0.5669 -0.2887  0.4756
   48DOPE   H6R 6109   6.871   1.716   3.321  2.3379 -2.1217  1.3446
   48DOPE   H6S 6110   6.850   1.893   3.322  0.5124  0.7539 -0.7778
   48DOPE   C27 6111   7.011   1.816   3.450  0.1306 -0.6790 -0.4484
   48DOPE   H7R 6112   7.040   1.923   3.455 -2.5761  0.2501 -2.1306
   48DOPE   H7S 6113   7.101   1.755   3.428  0.7275  0.8088 -2.4532
   48DOPE   C28 6114   6.927   1.774   3.572  0.2378  0.1390 -0.6321
   48DOPE   H8R 6115   6.889   1.671   3.557 -0.6471  0.6497 -2.1243
   48DOPE   H8S 6116   6.832   1.832   3.569  0.0080 -0.2584 -1.3811
   48DOPE   C29 6117   7.008   1.796   3.689  0.0858 -0.0633  0.0156
   48DOPE   H9R 6118   7.074   1.716   3.726 -0.8328 -0.0416  1.8481
   48DOPE  C210 6119   7.004   1.905   3.778 -0.4636  0.0644  0.2012
   48DOPE  H10R 6120   7.084   1.905   3.854 -0.5486  0.2381  0.2924
   48DOPE  C211 6121   6.930   2.035   3.774 -0.0060 -0.0228  0.1233
   48DOPE  H11R 6122   6.846   2.034   3.701 -0.4135 -1.7150  0.5720
   48DOPE  H11S 6123   7.004   2.109   3.737  0.4528 -0.7362 -0.4080
   48DOPE  C212 6124   6.876   2.069   3.916 -0.0534 -0.8678 -0.4608
   48DOPE  H12R 6125   6.965   2.069   3.982  0.1411 -0.9462 -0.7204
   48DOPE  H12S 6126   6.804   1.995   3.958 -0.1418  1.2182  3.5447
   48DOPE  C213 6127   6.813   2.211   3.935 -0.7386 -0.2698 -0.3989
   48DOPE  H13R 6128   6.764   2.232   4.032  1.2781  1.3433  0.3484
   48DOPE  H13S 6129   6.739   2.225   3.853  1.6417  2.0120 -2.3318
   48DOPE  C214 6130   6.910   2.330   3.925 -0.1053 -0.7640 -0.3561
   48DOPE  H14R 6131   6.959   2.324   3.826 -0.4070 -1.4748 -0.4702
   48DOPE  H14S 6132   6.984   2.338   4.007  0.4528 -1.0609 -0.8271
   48DOPE  C215 6133   6.843   2.468   3.921 -0.5850 -0.1890 -0.3084
   48DOPE  H15R 6134   6.920   2.542   3.891 -1.3533  0.6400 -0.2731
   48DOPE  H15S 6135   6.814   2.490   4.026 -0.2006  1.6958 -0.5651
   48DOPE  C216 6136   6.732   2.497   3.828 -0.5315 -0.6922 -0.5457
   48DOPE  H16R 6137   6.710   2.606   3.835 -0.3424 -0.6856 -0.0305
   48DOPE  H16S 6138   6.643   2.440   3.862 -0.4645 -1.9287 -2.2764
   48DOPE  C217 6139   6.756   2.457   3.682 -0.5612 -0.0034  0.8043
   48DOPE  H17R 6140   6.800   2.355   3.677  0.0840  0.3169 -3.1294
   48DOPE  H17S 6141   6.822   2.532   3.634 -3.7298  3.0621  0.8669
   48DOPE  C218 6142   6.623   2.454   3.609  0.0479  0.3676 -0.7054
   48DOPE  H18R 6143   6.637   2.415   3.506  0.6801 -0.9977 -0.1310
   48DOPE  H18S 6144   6.588   2.557   3.586 -1.1640 -0.2889 -1.9988
   48DOPE  H18T 6145   6.543   2.392   3.655 -1.7914  0.1807 -3.8298
   48DOPE   C33 6146   6.744   2.687   2.701  0.1865 -0.4677 -0.8561
   48DOPE   H3X 6147   6.713   2.758   2.621 -1.8181  0.5531  0.7466
   48DOPE   H3Y 6148   6.847   2.712   2.735  0.1183 -1.2428 -0.0406
   48DOPE   C34 6149   6.645   2.735   2.810  0.4900 -0.3744 -0.0989
   48DOPE   H4X 6150   6.543   2.700   2.784  0.7840 -0.5310 -1.0793
   48DOPE   H4Y 6151   6.677   2.680   2.900 -0.3194  0.7713  0.9174
   48DOPE   C35 6152   6.638   2.885   2.838 -0.7166 -0.3472 -0.2693
   48DOPE   H5X 6153   6.577   2.933   2.759 -0.2862 -0.7319 -0.8529
   48DOPE   H5Y 6154   6.738   2.934   2.838 -2.0189  2.5060  0.6767
   48DOPE   C36 6155   6.595   2.926   2.977 -0.9151 -0.1587  0.4008
   48DOPE   H6X 6156   6.492   2.894   3.005 -2.1340  2.0962 -1.1087
   48DOPE   H6Y 6157   6.607   3.036   2.976  3.3360 -0.4427  1.1473
   48DOPE   C37 6158   6.694   2.859   3.081 -0.0103  0.1689 -0.2420
   48DOPE   H7X 6159   6.654   2.757   3.103 -2.1055  1.0040  0.0940
   48DOPE   H7Y 6160   6.787   2.855   3.021  0.0239  1.0733 -0.2518
   48DOPE   C38 6161   6.696   2.937   3.221 -0.0749  0.1547  0.8284
   48DOPE   H8X 6162   6.590   2.935   3.255 -0.2091 -1.0630  0.3783
   48DOPE   H8Y 6163   6.725   3.044   3.215 -0.2289  0.1701  0.3052
   48DOPE   C39 6164   6.785   2.855   3.314  0.0353 -0.3082 -0.4955
   48DOPE   H9X 6165   6.876   2.818   3.266  0.9732  0.3154  0.7468
   48DOPE  C310 6166   6.766   2.829   3.440  0.1826  0.4531 -0.0368
   48DOPE  H10X 6167   6.826   2.754   3.493  0.9762  0.9104 -0.2690
   48DOPE  C311 6168   6.647   2.872   3.515  0.7950  0.1002 -0.0183
   48DOPE  H11X 6169   6.563   2.893   3.446 -0.6941 -0.9255  1.3972
   48DOPE  H11Y 6170   6.608   2.788   3.576 -0.4608  2.2756  2.4090
   48DOPE  C312 6171   6.682   2.987   3.603 -0.1073 -0.0496  0.3534
   48DOPE  H12X 6172   6.752   2.937   3.673 -1.1829 -3.2352 -0.6611
   48DOPE  H12Y 6173   6.588   3.014   3.657 -0.3617 -0.1256 -0.0444
   48DOPE  C313 6174   6.745   3.112   3.537  0.0860  0.1393 -0.4298
   48DOPE  H13X 6175   6.846   3.092   3.496 -0.2141  0.5947 -1.4342
   48DOPE  H13Y 6176   6.679   3.141   3.451 -0.8033 -0.0323  0.1773
   48DOPE  C314 6177   6.764   3.227   3.628 -0.2985 -0.3860 -0.5575
   48DOPE  H14X 6178   6.860   3.217   3.683 -1.6388  0.7086  2.1650
   48DOPE  H14Y 6179   6.686   3.227   3.707  1.0832  2.1689  0.9716
   48DOPE  C315 6180   6.759   3.367   3.564 -0.0859  0.4671  0.1214
   48DOPE  H15X 6181   6.658   3.373   3.517  0.3646 -1.4073 -1.2090
   48DOPE  H15Y 6182   6.839   3.378   3.487 -1.1342  0.9394 -0.9429
   48DOPE  C316 6183   6.778   3.476   3.662  0.1176 -0.5104  0.1084
   48DOPE  H16X 6184   6.736   3.568   3.614  2.1208 -0.0560 -0.8704
   48DOPE  H16Y 6185   6.885   3.484   3.691 -0.1467 -0.5043  1.1140
   48DOPE  C317 6186   6.703   3.470   3.796  0.4234  0.1614  0.7006
   48DOPE  H17X 6187   6.597   3.455   3.766  0.8454  0.0448 -0.8294
   48DOPE  H17Y 6188   6.730   3.386   3.863 -0.9207  0.9099  2.2581
   48DOPE  C318 6189   6.701   3.603   3.875  0.1234 -0.0985 -0.6929
   48DOPE  H18X 6190   6.623   3.599   3.953  1.5885 -2.0140  0.7938
   48DOPE  H18Y 6191   6.799   3.621   3.924  1.4438 -2.6925 -2.1586
   48DOPE  H18Z 6192   6.680   3.691   3.811 -1.8577  0.1085  0.1820
   49DOPE     N 6193   3.003   7.040   2.356  0.3026 -0.2527 -0.1367
   49DOPE   HN1 6194   2.925   6.976   2.379  0.8363 -0.6159  0.6900
   49DOPE   HN2 6195   3.019   7.094   2.443 -0.1863 -1.3523  0.6458
   49DOPE   HN3 6196   2.973   7.104   2.279  1.6115  0.3027 -0.2231
   49DOPE   C12 6197   3.133   6.977   2.310 -0.9597 -0.1557  0.9318
   49DOPE  H12A 6198   3.188   7.044   2.240  1.3063 -2.2123  0.6142
   49DOPE  H12B 6199   3.110   6.880   2.260 -0.5046 -0.3292  1.0491
   49DOPE   C11 6200   3.223   6.961   2.432 -0.2690  0.0837 -0.3226
   49DOPE  H11A 6201   3.248   7.063   2.466 -0.6083  0.0761 -0.0527
   49DOPE  H11B 6202   3.322   6.920   2.402  0.0694  0.9662 -0.4372
   49DOPE     P 6203   3.211   6.760   2.604 -0.0392 -0.2836  0.2370
   49DOPE   O13 6204   3.356   6.765   2.642  0.5836  0.0853 -0.1709
   49DOPE   O14 6205   3.175   6.661   2.501 -0.1102  0.3247 -0.2807
   49DOPE   O11 6206   3.110   6.751   2.726  0.1335  0.0780 -0.1287
   49DOPE   O12 6207   3.166   6.894   2.547  0.4438 -0.0435  0.3167
   49DOPE    C1 6208   3.140   6.804   2.863  0.6628 -0.1683  0.2145
   49DOPE    HA 6209   3.042   6.787   2.913 -0.1514  1.5512 -0.6962
   49DOPE    HB 6210   3.160   6.914   2.864 -4.3617  0.9990  1.1474
   49DOPE    C2 6211   3.251   6.732   2.952  0.0937 -0.0965  0.1821
   49DOPE    HS 6212   3.344   6.754   2.895 -0.5263 -1.5777 -1.4817
   49DOPE   O21 6213   3.217   6.595   2.946 -0.2515  0.2606 -0.2891
   49DOPE   C21 6214   3.321   6.517   2.965  0.0676 -1.0861  0.1601
   49DOPE   O22 6215   3.435   6.560   2.965 -0.6785 -0.2405 -0.3121
   49DOPE   C22 6216   3.285   6.372   2.984 -0.1826 -0.1056 -0.0773
   49DOPE   H2R 6217   3.308   6.322   2.887  1.2523  0.7779 -0.2151
   49DOPE   H2S 6218   3.179   6.361   3.018  0.2485  1.9318  2.1834
   49DOPE    C3 6219   3.240   6.805   3.097 -0.1981 -0.7164  0.0289
   49DOPE    HX 6220   3.138   6.794   3.138 -0.0417 -1.1678  0.3004
   49DOPE    HY 6221   3.247   6.915   3.084 -0.5719 -0.7444 -0.4218
   49DOPE   O31 6222   3.326   6.742   3.194 -0.3337 -0.1710 -0.1658
   49DOPE   C31 6223   3.454   6.790   3.189  0.0470  0.4019  0.0834
   49DOPE   O32 6224   3.488   6.893   3.135  0.7176  0.1150  0.5765
   49DOPE   C32 6225   3.555   6.702   3.265 -0.2925 -0.3927  1.0393
   49DOPE   H2X 6226   3.565   6.608   3.206 -2.1184  0.4724 -0.7625
   49DOPE   H2Y 6227   3.648   6.762   3.266 -0.0075 -0.8370  1.6600
   49DOPE   C23 6228   3.361   6.308   3.095  0.1510 -0.5104 -0.4819
   49DOPE   H3R 6229   3.466   6.343   3.107 -0.5650  1.3271  0.9620
   49DOPE   H3S 6230   3.350   6.198   3.093 -1.4160 -0.5517  2.9657
   49DOPE   C24 6231   3.282   6.344   3.227  0.4750  0.1357  1.3401
   49DOPE   H4R 6232   3.177   6.308   3.223  0.1859  0.7890  2.4648
   49DOPE   H4S 6233   3.272   6.455   3.233 -0.2458  0.2915 -1.3554
   49DOPE   C25 6234   3.346   6.303   3.355  0.5484  0.2594 -0.0861
   49DOPE   H5R 6235   3.443   6.352   3.381  0.8317  0.2659 -1.1059
   49DOPE   H5S 6236   3.365   6.194   3.357  1.0077  0.3455  0.8593
   49DOPE   C26 6237   3.249   6.326   3.471  0.0906 -0.1757 -0.5536
   49DOPE   H6R 6238   3.283   6.262   3.556  0.6399  3.5924  2.3314
   49DOPE   H6S 6239   3.146   6.291   3.450  0.2211 -0.9288 -0.0027
   49DOPE   C27 6240   3.244   6.469   3.524 -0.5913 -0.1341  0.2518
   49DOPE   H7R 6241   3.220   6.540   3.442 -0.9911 -0.1630  0.3389
   49DOPE   H7S 6242   3.346   6.482   3.564 -0.2738 -4.3104  1.3186
   49DOPE   C28 6243   3.142   6.486   3.632  0.1346 -0.3169 -0.8569
   49DOPE   H8R 6244   3.162   6.414   3.714  0.8448 -0.8949 -1.5262
   49DOPE   H8S 6245   3.044   6.447   3.596  0.1880 -0.6863 -0.6083
   49DOPE   C29 6246   3.115   6.629   3.694  0.9495 -0.5867  0.1475
   49DOPE   H9R 6247   3.104   6.713   3.624  0.2574  0.8250  1.8645
   49DOPE  C210 6248   3.125   6.657   3.826  0.4034  0.7366  0.7871
   49DOPE  H10R 6249   3.108   6.759   3.863 -0.9239  1.5219 -1.7535
   49DOPE  C211 6250   3.162   6.551   3.926  0.1036  0.1879 -0.3563
   49DOPE  H11R 6251   3.248   6.489   3.896  0.5267 -0.4228  1.9301
   49DOPE  H11S 6252   3.074   6.484   3.936  0.0540  0.3916  0.6938
   49DOPE  C212 6253   3.193   6.605   4.068 -0.1343  0.0133  0.0471
   49DOPE  H12R 6254   3.219   6.512   4.124  1.8920  0.7583  0.4474
   49DOPE  H12S 6255   3.099   6.632   4.121  0.1343 -0.3106  0.7056
   49DOPE  C213 6256   3.312   6.705   4.081 -0.2250  0.3818  0.5442
   49DOPE  H13R 6257   3.287   6.793   4.019 -0.2166 -0.3290 -0.4747
   49DOPE  H13S 6258   3.398   6.652   4.034 -2.8620 -3.7890 -0.0855
   49DOPE  C214 6259   3.346   6.752   4.225  0.4131 -0.6616  0.4661
   49DOPE  H14R 6260   3.268   6.829   4.242  0.5687 -0.5384  0.6339
   49DOPE  H14S 6261   3.437   6.816   4.219 -0.2184  0.1278 -1.6713
   49DOPE  C215 6262   3.338   6.652   4.336  0.7482 -0.0233  0.2119
   49DOPE  H15R 6263   3.396   6.564   4.301 -1.7975 -0.7366 -2.5602
   49DOPE  H15S 6264   3.234   6.616   4.344  0.5527  0.6458  0.7544
   49DOPE  C216 6265   3.390   6.714   4.470  0.4341  0.4186  0.2028
   49DOPE  H16R 6266   3.339   6.812   4.486  0.8145  1.2484 -3.0117
   49DOPE  H16S 6267   3.500   6.730   4.476  0.1590  2.8158  0.0293
   49DOPE  C217 6268   3.362   6.612   4.583 -0.1753 -0.0471 -0.5940
   49DOPE  H17R 6269   3.419   6.517   4.572  0.7183  0.0789  2.1442
   49DOPE  H17S 6270   3.253   6.592   4.574 -0.6897  2.0122  0.4354
   49DOPE  C218 6271   3.386   6.684   4.714  0.4758 -0.3626  0.3674
   49DOPE  H18R 6272   3.319   6.771   4.734  0.7871  0.8366 -3.1161
   49DOPE  H18S 6273   3.491   6.717   4.724 -0.1495  2.1314 -0.4356
   49DOPE  H18T 6274   3.387   6.607   4.794  1.8800 -1.5449 -0.7378
   49DOPE   C33 6275   3.507   6.678   3.405 -0.2163  0.5715 -0.0744
   49DOPE   H3X 6276   3.579   6.602   3.443 -2.8192 -0.8271  2.4914
   49DOPE   H3Y 6277   3.403   6.641   3.422  0.6649 -1.3297  1.4556
   49DOPE   C34 6278   3.527   6.793   3.499  0.1348 -0.4671  0.4510
   49DOPE   H4X 6279   3.636   6.815   3.502 -0.0498  0.5990 -0.1779
   49DOPE   H4Y 6280   3.475   6.881   3.455  0.5755 -0.8899 -0.9751
   49DOPE   C35 6281   3.470   6.752   3.637  0.1732 -0.2380  0.0795
   49DOPE   H5X 6282   3.529   6.664   3.671 -1.2492 -0.8867  0.9659
   49DOPE   H5Y 6283   3.369   6.709   3.618  1.0136 -2.9417  1.2217
   49DOPE   C36 6284   3.464   6.873   3.731  0.2598 -0.3986  0.1102
   49DOPE   H6X 6285   3.399   6.843   3.816 -0.5024 -3.6854 -1.4321
   49DOPE   H6Y 6286   3.410   6.952   3.675  0.6132 -0.5099 -0.3948
   49DOPE   C37 6287   3.607   6.922   3.774  0.7207  0.1796 -0.0815
   49DOPE   H7X 6288   3.654   6.847   3.841 -0.7614 -0.4427  0.3057
   49DOPE   H7Y 6289   3.677   6.934   3.689  1.6115 -0.8726  0.4685
   49DOPE   C38 6290   3.599   7.055   3.844  1.1589  0.3164 -0.0678
   49DOPE   H8X 6291   3.545   7.043   3.940 -1.0129 -1.3297 -1.3965
   49DOPE   H8Y 6292   3.540   7.118   3.774  1.2985  0.0990 -0.3829
   49DOPE   C39 6293   3.736   7.105   3.855  0.1287 -0.4095 -0.2543
   49DOPE   H9X 6294   3.783   7.150   3.766 -1.6069 -0.2620 -1.1514
   49DOPE  C310 6295   3.797   7.103   3.977 -0.6713 -0.0178 -0.0521
   49DOPE  H10X 6296   3.904   7.126   3.968 -1.2357  2.5008 -1.1041
   49DOPE  C311 6297   3.743   7.088   4.112  0.2703  0.0080 -0.0607
   49DOPE  H11X 6298   3.660   7.015   4.102  1.6772 -1.8021  0.8800
   49DOPE  H11Y 6299   3.820   7.053   4.183 -0.1078  2.2681  1.5748
   49DOPE  C312 6300   3.678   7.215   4.175  0.5505 -0.6333  0.4945
   49DOPE  H12X 6301   3.622   7.268   4.095  0.4469  0.0865  1.0260
   49DOPE  H12Y 6302   3.759   7.278   4.219  0.6820 -0.3643 -0.1156
   49DOPE  C313 6303   3.595   7.176   4.295  0.2029 -0.2068 -0.0930
   49DOPE  H13X 6304   3.514   7.113   4.253  0.4034  0.7582 -2.0394
   49DOPE  H13Y 6305   3.657   7.115   4.364  2.0700  2.6435  0.9341
   49DOPE  C314 6306   3.538   7.302   4.363 -0.9860 -0.5275  0.4469
   49DOPE  H14X 6307   3.485   7.365   4.290 -0.0028 -1.5531 -1.2112
   49DOPE  H14Y 6308   3.629   7.351   4.404  0.0178 -0.3259 -1.9125
   49DOPE  C315 6309   3.460   7.268   4.490  0.8895 -0.7510  0.0583
   49DOPE  H15X 6310   3.501   7.176   4.537  2.1896 -0.2408 -0.0362
   49DOPE  H15Y 6311   3.361   7.237   4.449 -0.9392  4.0084  0.1289
   49DOPE  C316 6312   3.463   7.382   4.591 -0.1549  0.6696 -0.0913
   49DOPE  H16X 6313   3.421   7.469   4.536 -0.1627  0.4019 -0.5122
   49DOPE  H16Y 6314   3.565   7.408   4.628  0.6077 -2.5617  0.4042
   49DOPE  C317 6315   3.373   7.349   4.709 -0.5270  0.5398  0.4456
   49DOPE  H17X 6316   3.283   7.298   4.668  0.7722 -2.7901  1.3667
   49DOPE  H17Y 6317   3.424   7.272   4.770  1.0912  1.2201 -0.0049
   49DOPE  C318 6318   3.336   7.470   4.795  0.5083 -0.3050  0.1307
   49DOPE  H18X 6319   3.277   7.545   4.737 -0.9521 -0.0343  1.8503
   49DOPE  H18Y 6320   3.266   7.428   4.870 -0.0330 -1.4969 -0.9966
   49DOPE  H18Z 6321   3.419   7.529   4.840 -2.4502  3.0432  1.7047
   50DOPE     N 6322   0.460   4.224   2.157 -0.5591 -0.2927  0.1549
   50DOPE   HN1 6323   0.491   4.316   2.194 -1.1819  0.2794 -0.7232
   50DOPE   HN2 6324   0.485   4.135   2.205 -0.1738 -1.5328 -2.2209
   50DOPE   HN3 6325   0.512   4.221   2.067 -0.7928 -2.5394  0.0326
   50DOPE   C12 6326   0.309   4.231   2.119  0.6450 -0.7001  0.4084
   50DOPE  H12A 6327   0.249   4.218   2.211 -0.6705 -1.1355 -0.4838
   50DOPE  H12B 6328   0.287   4.155   2.041  1.6809 -0.4435 -0.1596
   50DOPE   C11 6329   0.276   4.371   2.064  0.4252 -0.4476  0.0214
   50DOPE  H11A 6330   0.165   4.376   2.058  0.4334  1.3949  0.6793
   50DOPE  H11B 6331   0.316   4.377   1.961 -0.0321  1.3371 -0.0711
   50DOPE     P 6332   0.359   4.613   2.111  0.0197 -0.2174 -0.0317
   50DOPE   O13 6333   0.279   4.641   1.992 -0.3326 -0.1539 -0.8180
   50DOPE   O14 6334   0.507   4.624   2.097 -0.6284  0.3821 -0.3610
   50DOPE   O11 6335   0.316   4.710   2.221  0.0038 -0.0654 -0.5578
   50DOPE   O12 6336   0.329   4.468   2.155 -0.0470  0.3021  0.5352
   50DOPE    C1 6337   0.193   4.700   2.300 -0.3873 -0.1368 -0.4381
   50DOPE    HA 6338   0.119   4.634   2.249 -0.4384  0.6662 -1.4283
   50DOPE    HB 6339   0.138   4.796   2.297 -0.3567 -0.1390 -1.3659
   50DOPE    C2 6340   0.208   4.653   2.448  0.2858  0.3998 -0.2682
   50DOPE    HS 6341   0.106   4.659   2.492  0.1408 -0.1366 -0.5280
   50DOPE   O21 6342   0.287   4.756   2.507  1.3387  0.0277 -0.1725
   50DOPE   C21 6343   0.307   4.750   2.642 -0.1600  0.1279 -0.1985
   50DOPE   O22 6344   0.242   4.687   2.723 -0.6887  0.6002  0.4996
   50DOPE   C22 6345   0.427   4.836   2.680  0.2724 -0.0621 -0.3900
   50DOPE   H2R 6346   0.389   4.937   2.653  0.2169  0.1029  0.3024
   50DOPE   H2S 6347   0.517   4.813   2.618  2.2957  1.3367  1.8504
   50DOPE    C3 6348   0.264   4.508   2.468 -0.6642  0.2171 -0.1110
   50DOPE    HX 6349   0.374   4.524   2.464 -0.7547  0.8944 -0.0215
   50DOPE    HY 6350   0.229   4.447   2.382  0.9177 -1.3650  0.3040
   50DOPE   O31 6351   0.211   4.447   2.588  0.3166 -0.2186  0.2719
   50DOPE   C31 6352   0.303   4.411   2.673  0.2812 -0.4995 -0.0382
   50DOPE   O32 6353   0.421   4.432   2.651  0.0685 -0.6739 -0.1611
   50DOPE   C32 6354   0.246   4.332   2.787 -0.1784 -0.2958  0.1022
   50DOPE   H2X 6355   0.158   4.392   2.818 -0.0023 -0.6649  1.3698
   50DOPE   H2Y 6356   0.213   4.231   2.757 -0.3693 -0.0926 -0.3919
   50DOPE   C23 6357   0.478   4.824   2.830  0.6461  0.5863  0.2332
   50DOPE   H3R 6358   0.386   4.822   2.891  0.4135 -0.9981 -0.1432
   50DOPE   H3S 6359   0.540   4.916   2.846  2.6606 -0.5354 -0.7229
   50DOPE   C24 6360   0.566   4.702   2.858 -0.0708 -0.8031  0.9965
   50DOPE   H4R 6361   0.666   4.711   2.811 -0.1728  1.2090  1.0811
   50DOPE   H4S 6362   0.508   4.613   2.824 -1.8044  0.0501  1.5768
   50DOPE   C25 6363   0.590   4.676   3.004 -0.0809 -0.5551  0.0489
   50DOPE   H5R 6364   0.496   4.656   3.059 -0.3898  1.9533  0.5812
   50DOPE   H5S 6365   0.625   4.775   3.042  1.7410 -0.7015 -1.1505
   50DOPE   C26 6366   0.689   4.568   3.012  0.0077 -0.5213  0.0222
   50DOPE   H6R 6367   0.784   4.602   2.965 -0.3582  0.2479 -0.1714
   50DOPE   H6S 6368   0.647   4.487   2.948 -0.5600 -0.4382  0.2883
   50DOPE   C27 6369   0.717   4.517   3.149  0.3021  0.2756 -0.1414
   50DOPE   H7R 6370   0.622   4.498   3.202 -0.0070 -0.4893 -0.9504
   50DOPE   H7S 6371   0.771   4.596   3.207 -1.4944  0.7703  0.9261
   50DOPE   C28 6372   0.786   4.372   3.143 -0.5751 -0.0505  0.6340
   50DOPE   H8R 6373   0.870   4.374   3.070 -0.8522 -1.3991  0.2391
   50DOPE   H8S 6374   0.717   4.297   3.098 -0.3807 -0.4956  1.0677
   50DOPE   C29 6375   0.840   4.318   3.276 -0.4233 -0.2763 -0.4057
   50DOPE   H9R 6376   0.777   4.242   3.325 -0.2122 -1.3150 -1.7054
   50DOPE  C210 6377   0.959   4.354   3.334  0.4061  0.4674  0.5900
   50DOPE  H10R 6378   0.984   4.303   3.429  0.0297 -0.1447  0.3662
   50DOPE  C211 6379   1.062   4.451   3.273 -0.1377  0.2594 -0.2660
   50DOPE  H11R 6380   1.021   4.505   3.185 -2.1640  1.5384  1.3838
   50DOPE  H11S 6381   1.144   4.389   3.231 -1.5650 -1.3592 -0.7367
   50DOPE  C212 6382   1.105   4.561   3.366 -0.1691  0.6408 -0.3140
   50DOPE  H12R 6383   1.016   4.625   3.384 -0.2882  0.6285 -0.8446
   50DOPE  H12S 6384   1.178   4.617   3.305 -1.5430 -1.3930 -4.1439
   50DOPE  C213 6385   1.169   4.509   3.505  0.0080  0.4708  0.7135
   50DOPE  H13R 6386   1.260   4.446   3.494  0.8753  1.2109  3.1301
   50DOPE  H13S 6387   1.088   4.466   3.567  0.8090 -0.8010  0.9055
   50DOPE  C214 6388   1.213   4.633   3.580 -0.2696  0.0783 -0.1271
   50DOPE  H14R 6389   1.174   4.630   3.684 -0.1173  1.1222 -0.0356
   50DOPE  H14S 6390   1.170   4.721   3.527  1.3853  0.9229 -0.1243
   50DOPE  C215 6391   1.360   4.668   3.575 -0.3987  0.4124  0.1820
   50DOPE  H15R 6392   1.414   4.595   3.639  1.5169  0.2389 -1.5386
   50DOPE  H15S 6393   1.373   4.763   3.632  1.6359 -0.9618  2.1659
   50DOPE  C216 6394   1.429   4.661   3.439  0.9079 -0.6984  0.4970
   50DOPE  H16R 6395   1.371   4.722   3.365  0.7186  0.4715  1.5767
   50DOPE  H16S 6396   1.416   4.560   3.394  0.8845 -0.9588  1.0751
   50DOPE  C217 6397   1.576   4.714   3.432  0.3152  0.3385  0.2121
   50DOPE  H17R 6398   1.655   4.650   3.478  0.4656  0.5226  0.2091
   50DOPE  H17S 6399   1.588   4.817   3.471 -1.8251  1.3165 -1.5302
   50DOPE  C218 6400   1.618   4.729   3.283 -0.8247 -1.0320 -0.7040
   50DOPE  H18R 6401   1.555   4.802   3.228 -1.2742 -1.5286 -0.8595
   50DOPE  H18S 6402   1.593   4.628   3.244 -1.3219 -0.9117 -0.7028
   50DOPE  H18T 6403   1.722   4.760   3.264 -0.8607 -1.0874 -0.9974
   50DOPE   C33 6404   0.343   4.334   2.904 -0.1217  0.7063  0.3269
   50DOPE   H3X 6405   0.385   4.436   2.916  0.9770  0.4786 -1.3062
   50DOPE   H3Y 6406   0.421   4.259   2.879 -2.2304 -1.1613 -1.1161
   50DOPE   C34 6407   0.277   4.296   3.026  0.8865  0.2871  0.5482
   50DOPE   H4X 6408   0.190   4.359   3.054  0.3440 -0.4075  0.4712
   50DOPE   H4Y 6409   0.247   4.189   3.025 -0.2166  0.5544  2.0728
   50DOPE   C35 6410   0.369   4.309   3.148  0.5577 -0.3807  0.0269
   50DOPE   H5X 6411   0.414   4.411   3.155  1.9576 -0.8889 -1.0380
   50DOPE   H5Y 6412   0.457   4.242   3.133  1.5284  0.4826  1.5725
   50DOPE   C36 6413   0.311   4.267   3.285  0.6388  0.4352  0.2456
   50DOPE   H6X 6414   0.254   4.172   3.271  1.0994 -0.0414  1.5124
   50DOPE   H6Y 6415   0.237   4.345   3.312 -1.5344 -1.2899 -0.3805
   50DOPE   C37 6416   0.413   4.255   3.393 -0.6454 -0.4332 -0.2856
   50DOPE   H7X 6417   0.469   4.160   3.376 -0.7664 -0.4646 -0.5150
   50DOPE   H7Y 6418   0.483   4.337   3.367 -0.1837 -0.6877  0.1301
   50DOPE   C38 6419   0.363   4.265   3.542 -0.0045 -0.1977 -0.0624
   50DOPE   H8X 6420   0.438   4.228   3.615 -0.6419  0.1675  0.7866
   50DOPE   H8Y 6421   0.277   4.199   3.566  0.4522 -0.8620 -0.2029
   50DOPE   C39 6422   0.315   4.406   3.571 -0.2096  0.0303  0.3443
   50DOPE   H9X 6423   0.213   4.428   3.537 -0.0750  2.7485  1.4961
   50DOPE  C310 6424   0.378   4.496   3.646  0.3389  0.4389 -0.0004
   50DOPE  H10X 6425   0.328   4.593   3.656  1.7338  1.2598 -0.7028
   50DOPE  C311 6426   0.511   4.484   3.704 -0.3472 -0.0268  0.0846
   50DOPE  H11X 6427   0.526   4.550   3.792 -0.4221 -0.4480  0.4133
   50DOPE  H11Y 6428   0.529   4.380   3.738  0.0980  0.2770  0.8060
   50DOPE  C312 6429   0.627   4.504   3.606 -0.1103 -0.3663 -0.4475
   50DOPE  H12X 6430   0.616   4.608   3.569  3.3762  0.2225 -0.1665
   50DOPE  H12Y 6431   0.621   4.434   3.519 -1.1434 -1.7851  0.6999
   50DOPE  C313 6432   0.768   4.503   3.672  0.1693  0.6528  0.6805
   50DOPE  H13X 6433   0.788   4.404   3.718 -0.8078 -0.3611 -1.0117
   50DOPE  H13Y 6434   0.847   4.522   3.596 -1.6376 -0.0945 -1.4949
   50DOPE  C314 6435   0.787   4.603   3.777 -0.2796  0.1832 -0.1515
   50DOPE  H14X 6436   0.748   4.584   3.879 -3.2591  0.2160 -1.1720
   50DOPE  H14Y 6437   0.718   4.687   3.755 -1.3343 -0.5230  0.3636
   50DOPE  C315 6438   0.933   4.653   3.783  0.3411  0.3717 -0.2577
   50DOPE  H15X 6439   0.963   4.702   3.688  0.0445  0.7899 -0.1386
   50DOPE  H15Y 6440   1.007   4.572   3.803  1.6630  1.5770 -0.0711
   50DOPE  C316 6441   0.952   4.737   3.899 -0.7786 -0.7854 -0.1366
   50DOPE  H16X 6442   0.929   4.678   3.990 -0.8837 -0.4533  0.0517
   50DOPE  H16Y 6443   0.884   4.824   3.895 -0.9481 -0.7977  1.7399
   50DOPE  C317 6444   1.092   4.786   3.911  0.0167 -0.4979 -0.0299
   50DOPE  H17X 6445   1.169   4.706   3.909  1.0490  0.3425  2.2850
   50DOPE  H17Y 6446   1.113   4.846   3.819  1.0568 -0.5113  0.1843
   50DOPE  C318 6447   1.123   4.873   4.030  0.2029 -0.7134  0.1793
   50DOPE  H18X 6448   1.213   4.935   4.016 -1.1637  0.8263 -2.6062
   50DOPE  H18Y 6449   1.040   4.946   4.036 -0.7758 -1.7609 -0.2211
   50DOPE  H18Z 6450   1.116   4.816   4.126 -0.8366  0.0537  0.5876
   51DOPE     N 6451   3.902   6.903   2.296 -0.0583  0.5490 -0.3688
   51DOPE   HN1 6452   3.980   6.969   2.277 -0.0285  0.7666  0.4618
   51DOPE   HN2 6453   3.841   6.897   2.212 -1.0577  1.6028  0.2570
   51DOPE   HN3 6454   3.845   6.944   2.373  1.8497  0.7748  0.9969
   51DOPE   C12 6455   3.962   6.769   2.325 -0.4769  0.1974 -0.3702
   51DOPE  H12A 6456   3.981   6.723   2.226  3.8940 -1.0811  0.8489
   51DOPE  H12B 6457   3.885   6.713   2.382 -0.9435  0.2479 -0.9378
   51DOPE   C11 6458   4.083   6.793   2.419 -0.1738 -0.4668  0.8297
   51DOPE  H11A 6459   4.161   6.857   2.372 -0.4573 -0.2735  0.6201
   51DOPE  H11B 6460   4.135   6.697   2.442 -0.8905 -1.0743 -0.0215
   51DOPE     P 6461   4.121   6.920   2.644 -0.2080  0.0143 -0.0586
   51DOPE   O13 6462   4.224   6.999   2.570 -0.0266 -0.4222  0.0992
   51DOPE   O14 6463   4.165   6.828   2.757 -0.2306  0.2806 -0.1600
   51DOPE   O11 6464   4.030   7.028   2.703 -0.2318 -0.6578 -0.2994
   51DOPE   O12 6465   4.029   6.842   2.542  0.3821  0.0819  0.3808
   51DOPE    C1 6466   3.907   6.989   2.773  0.2594  0.2044  0.2173
   51DOPE    HA 6467   3.910   6.886   2.813  0.9576 -0.1397 -0.6995
   51DOPE    HB 6468   3.822   6.984   2.702 -1.0063  0.8488  1.6220
   51DOPE    C2 6469   3.894   7.078   2.901 -0.5075 -0.2130 -0.5357
   51DOPE    HS 6470   3.869   7.181   2.869 -1.4132  0.0740  1.0151
   51DOPE   O21 6471   4.006   7.061   2.983 -0.1806 -0.0966 -0.3185
   51DOPE   C21 6472   4.092   7.163   2.972 -0.5913 -0.6588 -0.2447
   51DOPE   O22 6473   4.083   7.259   2.895  0.1658 -0.2315 -0.4389
   51DOPE   C22 6474   4.207   7.144   3.064 -0.3487  0.1399  0.4941
   51DOPE   H2R 6475   4.172   7.089   3.154  0.0580  0.5633  0.9200
   51DOPE   H2S 6476   4.254   7.241   3.090  1.3852 -0.8446  1.2310
   51DOPE    C3 6477   3.761   7.035   2.972 -0.8682 -0.5245  0.3132
   51DOPE    HX 6478   3.791   6.931   3.000  1.6523 -0.0174 -0.2274
   51DOPE    HY 6479   3.684   7.037   2.892 -0.8468 -0.1123  0.3022
   51DOPE   O31 6480   3.720   7.120   3.075 -0.0827 -0.0078 -0.5990
   51DOPE   C31 6481   3.739   7.083   3.199  0.0027 -0.7920 -0.1236
   51DOPE   O32 6482   3.797   6.983   3.235  0.6699 -0.0203 -0.2551
   51DOPE   C32 6483   3.686   7.195   3.298 -0.1934 -0.3800  0.6326
   51DOPE   H2X 6484   3.704   7.298   3.263 -2.3871  0.0163  0.5050
   51DOPE   H2Y 6485   3.576   7.182   3.310 -0.2113  0.3919  1.4291
   51DOPE   C23 6486   4.320   7.076   2.973 -0.0092 -0.3874 -0.1158
   51DOPE   H3R 6487   4.354   7.136   2.886 -0.6241 -1.5998 -1.2212
   51DOPE   H3S 6488   4.298   6.972   2.940 -0.9473 -1.5513  3.6351
   51DOPE   C24 6489   4.445   7.050   3.058 -0.0547  0.4700  0.2653
   51DOPE   H4R 6490   4.487   7.150   3.084 -1.0046  0.7124  0.9242
   51DOPE   H4S 6491   4.525   6.995   3.004  1.3338  1.7866  0.8830
   51DOPE   C25 6492   4.411   6.968   3.189 -0.4193 -0.7018  0.3296
   51DOPE   H5R 6493   4.382   6.862   3.171 -0.4217 -1.2109  3.0304
   51DOPE   H5S 6494   4.333   7.013   3.253 -0.6918 -2.3646  1.2180
   51DOPE   C26 6495   4.535   6.957   3.280 -0.7437 -0.1681  0.4858
   51DOPE   H6R 6496   4.512   6.879   3.355 -1.1763 -2.8930 -2.3075
   51DOPE   H6S 6497   4.558   7.049   3.339  3.4500  0.3524 -1.6219
   51DOPE   C27 6498   4.657   6.895   3.208 -0.0499 -0.1429  0.7426
   51DOPE   H7R 6499   4.713   6.960   3.137 -0.0097 -1.5818 -0.5933
   51DOPE   H7S 6500   4.633   6.803   3.151 -2.9134  0.2284  1.2196
   51DOPE   C28 6501   4.766   6.870   3.312  0.2853  0.5600 -0.3329
   51DOPE   H8R 6502   4.719   6.801   3.385  0.6355 -1.2976 -1.7978
   51DOPE   H8S 6503   4.787   6.962   3.370  2.3228  1.0483 -1.7392
   51DOPE   C29 6504   4.894   6.814   3.243 -0.6730 -0.6179 -0.4065
   51DOPE   H9R 6505   4.870   6.734   3.171 -3.1903  0.1508 -0.5192
   51DOPE  C210 6506   5.019   6.874   3.242 -0.3152  0.8944  0.4409
   51DOPE  H10R 6507   5.101   6.835   3.180 -0.6425  0.7112  0.1216
   51DOPE  C211 6508   5.054   6.995   3.325 -0.4456  0.4398 -0.4017
   51DOPE  H11R 6509   5.071   6.956   3.428 -0.2654  0.5247 -0.4000
   51DOPE  H11S 6510   4.969   7.066   3.325 -0.7571  0.1511  1.9176
   51DOPE  C212 6511   5.187   7.078   3.293 -0.6042 -0.4104  0.0104
   51DOPE  H12R 6512   5.191   7.170   3.354  1.3323 -0.9150  0.7152
   51DOPE  H12S 6513   5.173   7.119   3.190 -3.3780  0.0310  0.4872
   51DOPE  C213 6514   5.312   6.995   3.300 -0.1209 -0.0311 -0.1498
   51DOPE  H13R 6515   5.395   7.039   3.240 -1.8405  0.4297 -2.2910
   51DOPE  H13S 6516   5.295   6.896   3.254 -1.1712  0.1076 -0.0886
   51DOPE  C214 6517   5.364   6.970   3.450 -0.8771  0.3962  0.7508
   51DOPE  H14R 6518   5.271   6.988   3.508 -3.1337 -1.5191 -1.9546
   51DOPE  H14S 6519   5.440   7.046   3.478 -1.8139  0.3128  3.9264
   51DOPE  C215 6520   5.427   6.834   3.459  0.3104  0.5371 -0.2610
   51DOPE  H15R 6521   5.521   6.837   3.399  2.2871  3.5874  2.5962
   51DOPE  H15S 6522   5.361   6.759   3.411  0.6545 -0.3544  0.6136
   51DOPE  C216 6523   5.448   6.774   3.603  0.5323 -0.2337  0.1981
   51DOPE  H16R 6524   5.356   6.785   3.665  0.4379 -2.0588  0.4485
   51DOPE  H16S 6525   5.530   6.837   3.642  0.2944 -0.0891  0.4736
   51DOPE  C217 6526   5.501   6.631   3.594 -0.6136 -0.0622 -0.0556
   51DOPE  H17R 6527   5.587   6.625   3.525 -0.3538 -0.5570  0.3079
   51DOPE  H17S 6528   5.420   6.572   3.546 -0.8368 -1.8234  2.3215
   51DOPE  C218 6529   5.531   6.566   3.729 -0.3915 -0.0765  0.0995
   51DOPE  H18R 6530   5.604   6.626   3.788 -1.6683  2.0832 -0.4067
   51DOPE  H18S 6531   5.562   6.463   3.702  0.5545  0.5274 -1.2152
   51DOPE  H18T 6532   5.437   6.561   3.788 -2.0059  2.2271 -2.0989
   51DOPE   C33 6533   3.763   7.182   3.430  0.6938  0.4028 -0.2342
   51DOPE   H3X 6534   3.756   7.079   3.469  0.5031  0.8961  1.0896
   51DOPE   H3Y 6535   3.720   7.235   3.518 -0.5101 -1.7814  0.5473
   51DOPE   C34 6536   3.914   7.216   3.418 -0.3335  0.5801 -0.1070
   51DOPE   H4X 6537   3.974   7.152   3.349 -0.2429  1.6173 -1.0215
   51DOPE   H4Y 6538   3.936   7.314   3.369 -0.1564  0.6745  0.1543
   51DOPE   C35 6539   3.981   7.203   3.557 -1.1538  0.1218  0.4958
   51DOPE   H5X 6540   4.091   7.189   3.548 -1.1893 -1.1393  1.8139
   51DOPE   H5Y 6541   3.951   7.107   3.604 -1.2683 -0.0605  0.0578
   51DOPE   C36 6542   3.950   7.324   3.641  0.3870 -1.5015 -0.4968
   51DOPE   H6X 6543   3.849   7.327   3.686  0.6844  1.3898  0.1865
   51DOPE   H6Y 6544   3.963   7.413   3.575 -0.3989  0.0154  1.3004
   51DOPE   C37 6545   4.051   7.320   3.757 -0.1619 -1.2424 -0.1458
   51DOPE   H7X 6546   4.044   7.220   3.804 -1.0834 -0.2077  2.0701
   51DOPE   H7Y 6547   4.154   7.340   3.721 -0.2301  1.1159  0.7724
   51DOPE   C38 6548   4.033   7.423   3.871  0.5467  0.4852  1.3073
   51DOPE   H8X 6549   3.930   7.399   3.905 -0.8630  1.2862 -2.0110
   51DOPE   H8Y 6550   4.033   7.524   3.823 -1.3130  0.0104  0.1876
   51DOPE   C39 6551   4.143   7.413   3.968 -0.2299  0.0566 -0.2047
   51DOPE   H9X 6552   4.241   7.438   3.924 -1.1921  1.1729 -1.8392
   51DOPE  C310 6553   4.141   7.376   4.100 -0.2250 -1.0397 -0.1287
   51DOPE  H10X 6554   4.240   7.361   4.146  0.5366 -1.3381 -1.8081
   51DOPE  C311 6555   4.023   7.338   4.187  0.0189 -0.2829  0.4243
   51DOPE  H11X 6556   3.943   7.408   4.157 -0.6360 -0.2593  2.1305
   51DOPE  H11Y 6557   4.000   7.234   4.155  2.4330 -0.2144 -1.9694
   51DOPE  C312 6558   4.033   7.345   4.340 -0.7364 -0.2417 -0.1601
   51DOPE  H12X 6559   3.938   7.309   4.385  0.1695  0.0133  2.1098
   51DOPE  H12Y 6560   4.050   7.451   4.370 -2.3436 -0.4061  1.4912
   51DOPE  C313 6561   4.137   7.251   4.390 -0.1735 -0.1695  0.0441
   51DOPE  H13X 6562   4.107   7.147   4.363 -0.5569  0.4740 -2.1657
   51DOPE  H13Y 6563   4.230   7.266   4.332 -2.1938  3.1365 -2.6956
   51DOPE  C314 6564   4.161   7.258   4.539  0.0425  0.4898 -0.9874
   51DOPE  H14X 6565   4.060   7.267   4.584  1.3343 -3.3905  3.5555
   51DOPE  H14Y 6566   4.219   7.349   4.569 -0.5016  0.2844  0.7631
   51DOPE  C315 6567   4.217   7.127   4.607 -0.8699 -0.0874  0.2919
   51DOPE  H15X 6568   4.135   7.059   4.637  0.0887 -1.6023 -0.4055
   51DOPE  H15Y 6569   4.283   7.142   4.695 -1.4262 -1.4366  0.9580
   51DOPE  C316 6570   4.311   7.056   4.508 -0.8297 -0.2027  0.4424
   51DOPE  H16X 6571   4.389   7.124   4.468 -1.4732 -0.8721 -2.1165
   51DOPE  H16Y 6572   4.257   7.025   4.416  0.7240 -2.3699  0.1753
   51DOPE  C317 6573   4.378   6.924   4.563  0.2508  0.0913  0.2626
   51DOPE  H17X 6574   4.402   6.941   4.670  0.8304  0.7265  0.0385
   51DOPE  H17Y 6575   4.304   6.843   4.544 -0.0811  0.8971 -2.3904
   51DOPE  C318 6576   4.508   6.880   4.491 -0.0659 -0.6553 -0.0534
   51DOPE  H18X 6577   4.579   6.964   4.476 -1.4034  0.4173 -0.6533
   51DOPE  H18Y 6578   4.554   6.789   4.535  1.8458 -0.1947 -0.9990
   51DOPE  H18Z 6579   4.479   6.866   4.384 -1.1883  2.0115 -0.1936
   52DOPE     N 6580   7.150   5.237   1.924 -0.4240 -0.2157  0.6151
   52DOPE   HN1 6581   7.162   5.176   1.841  2.8441  0.7679  0.2282
   52DOPE   HN2 6582   7.168   5.335   1.892 -0.7777 -0.0693  0.8555
   52DOPE   HN3 6583   7.209   5.218   2.007  1.9336  0.9550 -0.6855
   52DOPE   C12 6584   7.010   5.240   1.972  0.4901  0.5057 -0.2146
   52DOPE  H12A 6585   6.954   5.248   1.876  1.6377 -1.4244 -1.1051
   52DOPE  H12B 6586   6.994   5.332   2.031  0.4542 -1.2260  2.7067
   52DOPE   C11 6587   6.969   5.117   2.055 -0.6207 -0.0567  0.0444
   52DOPE  H11A 6588   6.859   5.104   2.047 -1.1944  1.8375  3.0671
   52DOPE  H11B 6589   6.995   5.151   2.158  2.4121 -1.8939 -0.0006
   52DOPE     P 6590   6.994   4.862   1.986  0.5470  0.2291  0.5790
   52DOPE   O13 6591   7.109   4.778   1.964 -0.0878 -0.4429 -0.2283
   52DOPE   O14 6592   6.897   4.867   1.869  0.3156  0.2005  0.1999
   52DOPE   O11 6593   6.917   4.825   2.115  0.4298 -0.2652 -0.0880
   52DOPE   O12 6594   7.046   5.003   2.018 -0.2301 -0.8733  0.1307
   52DOPE    C1 6595   6.987   4.803   2.241  0.4875  0.0304  0.4205
   52DOPE    HA 6596   6.920   4.828   2.326  1.9481  0.7928  1.3816
   52DOPE    HB 6597   7.076   4.869   2.245 -0.1510  0.8466  2.3264
   52DOPE    C2 6598   7.026   4.649   2.275  0.0911  0.0687  0.7441
   52DOPE    HS 6599   7.044   4.612   2.171 -1.2314  0.7633  0.2375
   52DOPE   O21 6600   6.914   4.588   2.338  0.2313 -0.1082  0.1945
   52DOPE   C21 6601   6.920   4.451   2.322  0.2422 -0.1661  0.5753
   52DOPE   O22 6602   6.995   4.394   2.245  0.5754 -0.1781 -0.2679
   52DOPE   C22 6603   6.826   4.383   2.424 -0.1804 -0.0855  0.0822
   52DOPE   H2R 6604   6.728   4.376   2.371  0.4424  2.1411 -1.5350
   52DOPE   H2S 6605   6.821   4.456   2.507  0.4501 -1.3311  1.2559
   52DOPE    C3 6606   7.161   4.629   2.358  0.2262 -0.1706 -0.4570
   52DOPE    HX 6607   7.235   4.699   2.313 -0.6689 -0.0313 -1.7955
   52DOPE    HY 6608   7.194   4.526   2.332  0.0345 -0.1568 -0.7596
   52DOPE   O31 6609   7.139   4.629   2.504  0.7719 -0.3032  0.0388
   52DOPE   C31 6610   7.121   4.749   2.558 -0.2071  0.3378  0.2182
   52DOPE   O32 6611   7.147   4.855   2.498 -0.4696 -0.1486  1.4356
   52DOPE   C32 6612   7.090   4.748   2.713 -0.9069  0.3628  0.7603
   52DOPE   H2X 6613   6.990   4.796   2.723 -0.9783  0.4474 -0.2593
   52DOPE   H2Y 6614   7.074   4.644   2.748 -0.2597  0.2663  0.7873
   52DOPE   C23 6615   6.871   4.243   2.482  1.3589 -0.0037 -0.1317
   52DOPE   H3R 6616   6.896   4.181   2.394 -0.6858 -1.5551  0.3094
   52DOPE   H3S 6617   6.793   4.187   2.537  0.5254 -1.2407 -2.4734
   52DOPE   C24 6618   6.994   4.242   2.559 -0.1793 -0.1635 -0.0726
   52DOPE   H4R 6619   6.990   4.310   2.647 -0.6193 -0.6858  0.3205
   52DOPE   H4S 6620   7.070   4.293   2.496 -0.7830  1.1294  0.2198
   52DOPE   C25 6621   7.055   4.099   2.598  0.9184  0.1023  0.7677
   52DOPE   H5R 6622   7.054   4.037   2.506  0.1989 -0.2836  1.0312
   52DOPE   H5S 6623   6.980   4.052   2.665  0.0311  0.6019  0.1450
   52DOPE   C26 6624   7.198   4.106   2.655  0.1016 -0.3762 -0.5585
   52DOPE   H6R 6625   7.258   4.172   2.589  2.3955 -0.8776  0.8809
   52DOPE   H6S 6626   7.236   4.002   2.648 -1.7834 -1.2866  1.4423
   52DOPE   C27 6627   7.192   4.163   2.795  0.2006  0.0483 -0.1739
   52DOPE   H7R 6628   7.122   4.109   2.861 -0.8441 -1.4249 -2.3527
   52DOPE   H7S 6629   7.151   4.266   2.784  1.7446  0.6137 -1.0603
   52DOPE   C28 6630   7.331   4.185   2.867 -0.3664 -0.3069  0.0985
   52DOPE   H8R 6631   7.303   4.261   2.942 -0.2235 -0.6000  0.4502
   52DOPE   H8S 6632   7.399   4.228   2.791 -0.1757 -0.5292  0.1424
   52DOPE   C29 6633   7.364   4.042   2.917  0.0322  0.5013 -0.4496
   52DOPE   H9R 6634   7.403   3.967   2.847  0.6979 -0.5541  0.9800
   52DOPE  C210 6635   7.352   3.996   3.051  1.1398  0.1173  0.0854
   52DOPE  H10R 6636   7.376   3.892   3.075  0.7046 -0.2539 -1.0243
   52DOPE  C211 6637   7.310   4.086   3.167  0.1475  0.3802 -0.1119
   52DOPE  H11R 6638   7.253   4.017   3.233  0.7564  0.3468  0.3943
   52DOPE  H11S 6639   7.254   4.174   3.132  1.5596  1.0914 -0.6603
   52DOPE  C212 6640   7.437   4.131   3.245  0.4273  1.2887  0.6644
   52DOPE  H12R 6641   7.415   4.206   3.324  1.0399 -1.0559  3.2403
   52DOPE  H12S 6642   7.504   4.165   3.163 -1.1415  0.6167 -0.9784
   52DOPE  C213 6643   7.503   4.009   3.321 -0.2114 -0.2488  0.1287
   52DOPE  H13R 6644   7.582   3.966   3.256 -0.6461  2.4349 -2.3593
   52DOPE  H13S 6645   7.429   3.934   3.354 -0.5227  0.5286  1.2583
   52DOPE  C214 6646   7.564   4.060   3.449  0.6226  0.1514 -0.1404
   52DOPE  H14R 6647   7.496   4.130   3.503 -0.9830 -0.7875 -0.9014
   52DOPE  H14S 6648   7.648   4.127   3.420  0.0487  1.1021  0.3247
   52DOPE  C215 6649   7.616   3.945   3.530  0.6905 -0.7897  0.0628
   52DOPE  H15R 6650   7.649   3.859   3.468 -2.5383 -2.8110  0.8856
   52DOPE  H15S 6651   7.534   3.903   3.592 -0.5958  0.0764 -0.9723
   52DOPE  C216 6652   7.723   3.987   3.628 -0.3549  0.3438  0.2341
   52DOPE  H16R 6653   7.771   4.080   3.591  0.5586 -0.4400 -0.6033
   52DOPE  H16S 6654   7.802   3.910   3.632 -1.1137 -0.6469 -1.9515
   52DOPE  C217 6655   7.690   4.002   3.776  0.2534  0.0531  0.0591
   52DOPE  H17R 6656   7.674   3.900   3.817 -3.5491  0.8840  0.9925
   52DOPE  H17S 6657   7.588   4.046   3.781  0.1834 -0.0778 -0.1883
   52DOPE  C218 6658   7.798   4.079   3.851  0.5457  0.1105  0.2288
   52DOPE  H18R 6659   7.900   4.033   3.848 -0.2087 -1.5718 -1.3130
   52DOPE  H18S 6660   7.808   4.180   3.806  4.2925  0.3507  1.2201
   52DOPE  H18T 6661   7.770   4.096   3.957  2.0558  2.0712  0.3725
   52DOPE   C33 6662   7.198   4.811   2.795 -0.4904  0.2088 -0.2381
   52DOPE   H3X 6663   7.216   4.920   2.777 -0.7809  0.1133 -1.1477
   52DOPE   H3Y 6664   7.290   4.753   2.774 -0.8891 -0.4922 -0.0690
   52DOPE   C34 6665   7.169   4.795   2.946 -0.1505 -0.4997  0.6941
   52DOPE   H4X 6666   7.091   4.865   2.983 -1.8733 -1.4074 -1.0598
   52DOPE   H4Y 6667   7.130   4.692   2.956  2.0438 -1.3635  0.8379
   52DOPE   C35 6668   7.296   4.808   3.035 -0.7124  0.0607  0.5105
   52DOPE   H5X 6669   7.362   4.728   2.994 -0.6425  0.9680 -1.2284
   52DOPE   H5Y 6670   7.282   4.779   3.142 -2.3106  1.7416  0.8088
   52DOPE   C36 6671   7.372   4.945   3.029 -0.1037  0.2031 -0.5630
   52DOPE   H6X 6672   7.340   4.992   3.124  1.5011 -0.0492  0.1431
   52DOPE   H6Y 6673   7.340   5.012   2.946  2.4664 -0.2146 -2.0105
   52DOPE   C37 6674   7.525   4.926   3.004 -0.2518 -0.1886  0.0065
   52DOPE   H7X 6675   7.546   4.864   2.914  0.8944 -0.9861  0.7858
   52DOPE   H7Y 6676   7.565   5.027   2.984 -0.3467  0.0039  0.7481
   52DOPE   C38 6677   7.608   4.877   3.125  0.1736  0.6864  0.2542
   52DOPE   H8X 6678   7.568   4.786   3.176  0.8083  0.6658  0.7294
   52DOPE   H8Y 6679   7.599   4.960   3.199 -0.2225  0.8181  0.0611
   52DOPE   C39 6680   7.759   4.856   3.089 -0.6396  0.3015 -0.3920
   52DOPE   H9X 6681   7.768   4.761   3.034 -1.5965 -0.0956  0.1155
   52DOPE  C310 6682   7.869   4.927   3.124  0.5145 -0.1485 -0.2156
   52DOPE  H10X 6683   7.971   4.897   3.095  0.2817 -0.2585 -0.9322
   52DOPE  C311 6684   7.868   5.055   3.212  0.8577  0.9007 -0.6067
   52DOPE  H11X 6685   7.928   5.132   3.159  0.7078  1.6273  0.2558
   52DOPE  H11Y 6686   7.762   5.088   3.214 -0.4175 -2.6338 -1.4408
   52DOPE  C312 6687   7.925   5.048   3.359 -0.0549 -0.2396 -0.2091
   52DOPE  H12X 6688   8.036   5.040   3.349 -0.0841 -0.6183 -0.2384
   52DOPE  H12Y 6689   7.897   4.956   3.415  0.1631  0.4573  1.0859
   52DOPE  C313 6690   7.904   5.174   3.450 -0.2590  0.4644  0.1845
   52DOPE  H13X 6691   7.972   5.169   3.538  0.2900 -1.3367 -0.2987
   52DOPE  H13Y 6692   7.944   5.264   3.399  5.2264 -1.3867  0.5090
   52DOPE  C314 6693   7.758   5.193   3.500  0.4272 -0.1242  0.1966
   52DOPE  H14X 6694   7.700   5.210   3.406 -0.6820 -3.9192  0.0314
   52DOPE  H14Y 6695   7.765   5.287   3.558 -0.4077 -0.7685  1.3897
   52DOPE  C315 6696   7.696   5.090   3.593 -0.2755 -0.5754 -0.4075
   52DOPE  H15X 6697   7.702   4.988   3.548 -0.0735 -0.0234 -1.6945
   52DOPE  H15Y 6698   7.589   5.117   3.601  0.3096  1.7605  0.2522
   52DOPE  C316 6699   7.754   5.086   3.735  0.3545  0.3607 -0.1961
   52DOPE  H16X 6700   7.860   5.057   3.721 -0.2955 -1.4167 -1.8734
   52DOPE  H16Y 6701   7.703   5.011   3.799  1.3694 -0.7990 -0.7004
   52DOPE  C317 6702   7.751   5.215   3.821 -0.0825 -0.4555  0.2414
   52DOPE  H17X 6703   7.786   5.201   3.926  1.6827 -0.6246 -0.3330
   52DOPE  H17Y 6704   7.830   5.279   3.777  0.1324  0.2443  1.5792
   52DOPE  C318 6705   7.615   5.289   3.848 -0.0532  0.0418  0.3727
   52DOPE  H18X 6706   7.542   5.245   3.919  0.5619  0.5680  1.3579
   52DOPE  H18Y 6707   7.641   5.389   3.890  1.2531 -0.6801  1.3687
   52DOPE  H18Z 6708   7.554   5.310   3.758 -0.5418  3.4277  1.3294
   53DOPE     N 6709   7.389   6.637   2.108 -0.4077 -0.7688  0.2050
   53DOPE   HN1 6710   7.480   6.684   2.091 -1.2682  0.4379 -1.3222
   53DOPE   HN2 6711   7.338   6.697   2.176  1.8416  1.9702 -0.3473
   53DOPE   HN3 6712   7.419   6.549   2.154  1.1576 -0.0454  0.6157
   53DOPE   C12 6713   7.326   6.617   1.967 -0.2827  0.1357 -0.2076
   53DOPE  H12A 6714   7.393   6.538   1.927 -2.1228 -1.3347 -0.5083
   53DOPE  H12B 6715   7.339   6.707   1.902  3.7090 -0.6319 -0.7681
   53DOPE   C11 6716   7.175   6.576   1.977 -0.1097 -0.4359 -0.7613
   53DOPE  H11A 6717   7.122   6.541   1.886 -1.0008  0.8184 -0.7475
   53DOPE  H11B 6718   7.129   6.673   2.006  1.6145  0.1340  0.2629
   53DOPE     P 6719   7.007   6.443   2.113 -0.3156  0.4898 -0.4279
   53DOPE   O13 6720   6.997   6.294   2.114  0.1777 -0.0596 -0.2203
   53DOPE   O14 6721   6.916   6.517   2.030 -0.2153  0.2791 -0.4557
   53DOPE   O11 6722   7.000   6.485   2.263  0.1643  0.0730  0.3437
   53DOPE   O12 6723   7.160   6.482   2.079 -0.1913 -0.1294  0.4647
   53DOPE    C1 6724   7.116   6.506   2.348  0.5793 -0.8259 -0.0365
   53DOPE    HA 6725   7.171   6.599   2.323 -0.0704 -0.4445 -0.0823
   53DOPE    HB 6726   7.181   6.417   2.340  0.1911 -1.0254 -1.1549
   53DOPE    C2 6727   7.082   6.535   2.493  0.0112 -0.2813 -0.5754
   53DOPE    HS 6728   7.174   6.531   2.555  0.6018  0.1481 -1.3992
   53DOPE   O21 6729   6.980   6.461   2.548 -0.4896 -0.1330  0.0918
   53DOPE   C21 6730   7.005   6.326   2.557 -0.1271 -0.4219 -0.7090
   53DOPE   O22 6731   7.096   6.265   2.507 -0.0633  0.0686 -0.1068
   53DOPE   C22 6732   6.899   6.257   2.639  0.0682  0.6947 -0.2625
   53DOPE   H2R 6733   6.803   6.266   2.584 -0.1475 -1.3479 -0.2794
   53DOPE   H2S 6734   6.889   6.314   2.734  2.0539  1.4557 -0.4489
   53DOPE    C3 6735   7.029   6.683   2.493 -0.2484 -0.8564 -0.6635
   53DOPE    HX 6736   6.930   6.697   2.446 -0.7375  1.3570  0.8831
   53DOPE    HY 6737   7.096   6.739   2.425  0.0438 -3.2659 -2.5129
   53DOPE   O31 6738   7.023   6.743   2.625 -0.0730 -0.3124  0.4172
   53DOPE   C31 6739   6.905   6.784   2.678 -0.5354 -0.0473 -0.0936
   53DOPE   O32 6740   6.796   6.770   2.628 -0.3612  0.3435  0.4315
   53DOPE   C32 6741   6.936   6.852   2.808  0.5597 -0.5491 -0.1785
   53DOPE   H2X 6742   6.956   6.960   2.790  0.3166 -0.4929 -0.1162
   53DOPE   H2Y 6743   6.835   6.865   2.851  1.1359  0.8481  0.8218
   53DOPE   C23 6744   6.936   6.109   2.669 -0.2725 -1.0847  0.3772
   53DOPE   H3R 6745   7.021   6.106   2.741 -1.9282 -1.4792  2.3901
   53DOPE   H3S 6746   6.956   6.055   2.573 -0.6018  1.9305 -1.5170
   53DOPE   C24 6747   6.825   6.033   2.755 -0.0092  0.0644 -0.4214
   53DOPE   H4R 6748   6.778   6.101   2.829 -0.8499 -0.2709 -0.6328
   53DOPE   H4S 6749   6.871   5.947   2.807 -1.0835 -1.1870 -1.4591
   53DOPE   C25 6750   6.718   5.976   2.664  0.6772  0.1960 -0.1282
   53DOPE   H5R 6751   6.766   5.931   2.575  1.8658 -0.8999  1.0265
   53DOPE   H5S 6752   6.642   6.051   2.634 -0.5342 -0.3716  1.4089
   53DOPE   C26 6753   6.634   5.865   2.735  0.8132  0.3880 -0.4382
   53DOPE   H6R 6754   6.558   5.843   2.657 -3.2972  1.2370  3.0113
   53DOPE   H6S 6755   6.583   5.904   2.825 -0.3162 -0.3428 -0.7471
   53DOPE   C27 6756   6.713   5.734   2.754  0.0790  0.1473  0.2288
   53DOPE   H7R 6757   6.779   5.744   2.842 -0.1496  2.3049  0.2084
   53DOPE   H7S 6758   6.783   5.721   2.669 -0.3342  0.6456 -0.1916
   53DOPE   C28 6759   6.626   5.620   2.791  0.6849 -0.0635  0.4543
   53DOPE   H8R 6760   6.539   5.658   2.849 -1.4389  0.2351 -2.6914
   53DOPE   H8S 6761   6.680   5.542   2.848  4.5264 -0.2033 -2.9663
   53DOPE   C29 6762   6.573   5.547   2.672 -0.0770 -0.0487 -0.1673
   53DOPE   H9R 6763   6.648   5.512   2.599 -2.1508 -0.8059 -2.0368
   53DOPE  C210 6764   6.444   5.509   2.662  0.3587 -0.1245  0.2894
   53DOPE  H10R 6765   6.416   5.438   2.583  0.4604  1.1625 -0.9511
   53DOPE  C211 6766   6.324   5.553   2.746 -0.3610 -0.0638 -0.4442
   53DOPE  H11R 6767   6.236   5.565   2.679 -0.1881  2.5773 -0.2832
   53DOPE  H11S 6768   6.345   5.651   2.794 -1.2029 -0.5744  1.0496
   53DOPE  C212 6769   6.285   5.459   2.862  0.3661  0.9168 -0.4835
   53DOPE  H12R 6770   6.353   5.456   2.950  0.2160  1.4996 -0.3423
   53DOPE  H12S 6771   6.280   5.355   2.823 -1.0592  0.4026  0.9570
   53DOPE  C213 6772   6.143   5.489   2.918  0.6060 -0.3674 -0.2878
   53DOPE  H13R 6773   6.091   5.397   2.954 -0.4291  0.0745 -0.6187
   53DOPE  H13S 6774   6.068   5.541   2.854  1.3379  0.8454 -0.1843
   53DOPE  C214 6775   6.158   5.580   3.042 -0.3263  0.5729  0.1889
   53DOPE  H14R 6776   6.208   5.673   3.007  2.1348 -0.6245  0.3036
   53DOPE  H14S 6777   6.233   5.537   3.112  1.8512  3.6794 -0.0243
   53DOPE  C215 6778   6.021   5.617   3.104 -0.3547  0.0431  0.6841
   53DOPE  H15R 6779   5.952   5.656   3.027  0.2678 -0.7720 -0.3245
   53DOPE  H15S 6780   6.041   5.701   3.173  0.5111 -0.6362  1.2894
   53DOPE  C216 6781   5.957   5.505   3.183  0.2865  0.5344  0.7101
   53DOPE  H16R 6782   6.025   5.465   3.261 -0.0169 -0.6383  0.3891
   53DOPE  H16S 6783   5.931   5.420   3.117  0.9523  0.7676  0.1310
   53DOPE  C217 6784   5.824   5.548   3.253  0.6163  0.1208  0.1015
   53DOPE  H17R 6785   5.809   5.473   3.333 -0.9665  0.8127  0.4933
   53DOPE  H17S 6786   5.744   5.549   3.175 -1.4617  0.2013  2.1313
   53DOPE  C218 6787   5.832   5.687   3.320 -0.0644 -0.1510 -0.0287
   53DOPE  H18R 6788   5.742   5.711   3.381  1.0603  2.5129  0.7134
   53DOPE  H18S 6789   5.837   5.766   3.242 -0.6802  0.7300  0.8037
   53DOPE  H18T 6790   5.920   5.691   3.387 -1.2857  0.4656  1.6289
   53DOPE   C33 6791   7.045   6.785   2.889 -0.1327 -0.2864 -0.4604
   53DOPE   H3X 6792   7.063   6.860   2.968 -2.2696  0.3199 -0.4879
   53DOPE   H3Y 6793   7.138   6.769   2.830 -0.6260 -0.5995 -1.1732
   53DOPE   C34 6794   7.010   6.638   2.932  0.6513 -0.4536 -0.5421
   53DOPE   H4X 6795   7.022   6.577   2.839  0.6003 -0.6563 -0.4148
   53DOPE   H4Y 6796   7.067   6.593   3.016  0.3443  1.9941  1.0446
   53DOPE   C35 6797   6.864   6.609   2.978  0.6773 -0.4164 -0.0034
   53DOPE   H5X 6798   6.791   6.614   2.895  1.4565  0.2643 -0.6637
   53DOPE   H5Y 6799   6.834   6.688   3.050 -0.7803 -1.0709  0.1471
   53DOPE   C36 6800   6.858   6.475   3.054  0.9571  0.2726 -0.0054
   53DOPE   H6X 6801   6.940   6.477   3.129  0.8964  2.0355  0.0538
   53DOPE   H6Y 6802   6.889   6.400   2.978  1.0362  1.8712 -1.6073
   53DOPE   C37 6803   6.714   6.436   3.103  0.0289  0.0169 -0.2972
   53DOPE   H7X 6804   6.638   6.465   3.028  0.8343  3.9593  0.2296
   53DOPE   H7Y 6805   6.709   6.326   3.122 -1.8261  0.4473  2.1655
   53DOPE   C38 6806   6.673   6.520   3.226 -0.3039  0.1658 -0.2154
   53DOPE   H8X 6807   6.562   6.527   3.219 -0.1922  2.3757 -0.7788
   53DOPE   H8Y 6808   6.700   6.628   3.225 -0.2618  0.1545 -1.0413
   53DOPE   C39 6809   6.715   6.446   3.345 -0.4055 -0.5634 -0.9363
   53DOPE   H9X 6810   6.825   6.450   3.356 -0.6081 -1.0650  1.8990
   53DOPE  C310 6811   6.635   6.363   3.418 -0.9732  0.7319  0.1392
   53DOPE  H10X 6812   6.676   6.307   3.504 -0.0434  1.9292  0.5012
   53DOPE  C311 6813   6.489   6.342   3.397 -0.1655 -0.4994 -0.4687
   53DOPE  H11X 6814   6.473   6.323   3.289  0.6684  1.2350 -0.9222
   53DOPE  H11Y 6815   6.440   6.257   3.450 -1.8866 -0.1579 -1.4322
   53DOPE  C312 6816   6.415   6.470   3.441 -0.0121 -0.0368 -0.4101
   53DOPE  H12X 6817   6.439   6.552   3.370  0.1563  1.8713  1.7485
   53DOPE  H12Y 6818   6.447   6.494   3.544 -0.8104 -0.0901 -0.1415
   53DOPE  C313 6819   6.256   6.456   3.442  0.1838  0.5250 -0.1847
   53DOPE  H13X 6820   6.205   6.555   3.439 -0.1742  0.3780  0.7901
   53DOPE  H13Y 6821   6.233   6.406   3.345  0.9265 -0.4007  0.1030
   53DOPE  C314 6822   6.208   6.366   3.556  0.8902 -0.4500  0.2070
   53DOPE  H14X 6823   6.252   6.411   3.648  2.0633 -1.0463 -0.0355
   53DOPE  H14Y 6824   6.241   6.260   3.559  2.8953  0.1242  2.7696
   53DOPE  C315 6825   6.054   6.352   3.582 -0.0863  0.1164 -0.1287
   53DOPE  H15X 6826   6.022   6.270   3.514  0.3962 -1.0825  1.0485
   53DOPE  H15Y 6827   6.000   6.446   3.559 -0.0101  0.6096  1.5710
   53DOPE  C316 6828   6.032   6.332   3.731 -0.0729  0.1253 -0.6311
   53DOPE  H16X 6829   6.042   6.432   3.778 -1.2333 -0.0029 -0.0755
   53DOPE  H16Y 6830   6.097   6.255   3.777 -0.4679  0.5072  0.6132
   53DOPE  C317 6831   5.890   6.287   3.765  0.5139 -0.0438 -0.1390
   53DOPE  H17X 6832   5.872   6.281   3.874  1.0065 -0.5753 -0.0813
   53DOPE  H17Y 6833   5.817   6.359   3.722  0.6157  1.3337  1.8400
   53DOPE  C318 6834   5.849   6.150   3.711  0.0886 -0.1116 -0.4860
   53DOPE  H18X 6835   5.906   6.069   3.761  0.1717  1.5850  2.3856
   53DOPE  H18Y 6836   5.740   6.130   3.721  0.0486 -0.4485 -1.4639
   53DOPE  H18Z 6837   5.880   6.145   3.604  0.9002  2.3074 -0.4254
   54DOPE     N 6838   7.548   3.934   1.705  0.0363 -0.6781 -0.6181
   54DOPE   HN1 6839   7.589   3.875   1.630  0.0777  2.4139 -3.2317
   54DOPE   HN2 6840   7.564   3.876   1.790  1.5844 -2.2522 -1.9075
   54DOPE   HN3 6841   7.446   3.951   1.694  0.2089  0.6187 -0.3118
   54DOPE   C12 6842   7.619   4.068   1.718 -0.1928 -0.6800 -0.3650
   54DOPE  H12A 6843   7.588   4.124   1.627  0.1470 -0.5720 -0.4124
   54DOPE  H12B 6844   7.727   4.049   1.701 -0.5274 -2.2069 -1.0063
   54DOPE   C11 6845   7.595   4.140   1.853  0.2456  0.0900  0.2149
   54DOPE  H11A 6846   7.520   4.221   1.838 -0.0956 -0.1294  0.6889
   54DOPE  H11B 6847   7.689   4.193   1.879  1.4274  0.0896 -3.5267
   54DOPE     P 6848   7.625   4.002   2.067  0.0349 -0.3124  0.0766
   54DOPE   O13 6849   7.732   3.925   1.998 -0.1148  0.5068 -0.4286
   54DOPE   O14 6850   7.537   3.914   2.150  0.3435 -0.4411  0.3805
   54DOPE   O11 6851   7.666   4.140   2.129 -0.5349  0.8173 -0.4283
   54DOPE   O12 6852   7.541   4.056   1.950 -0.6998 -0.1315 -0.1565
   54DOPE    C1 6853   7.571   4.243   2.142 -0.2659 -0.3143 -0.9707
   54DOPE    HA 6854   7.471   4.222   2.100 -0.7180  1.2091 -0.7076
   54DOPE    HB 6855   7.619   4.328   2.088  0.1272 -1.2464 -2.1341
   54DOPE    C2 6856   7.548   4.276   2.291  0.4888 -0.0848 -0.4667
   54DOPE    HS 6857   7.635   4.331   2.332 -0.1490  0.3785  0.3062
   54DOPE   O21 6858   7.514   4.160   2.361 -0.2226 -0.0620 -0.5114
   54DOPE   C21 6859   7.581   4.131   2.470 -0.6549  0.6400 -0.5567
   54DOPE   O22 6860   7.678   4.195   2.515  0.4719  0.1702 -0.2139
   54DOPE   C22 6861   7.525   4.009   2.537 -0.3483 -0.0973 -0.4677
   54DOPE   H2R 6862   7.466   3.946   2.467  0.3891  0.0426 -1.2273
   54DOPE   H2S 6863   7.456   4.046   2.616 -0.6588  0.4500 -0.9947
   54DOPE    C3 6864   7.427   4.367   2.315 -0.3378 -0.2588  0.4383
   54DOPE    HX 6865   7.337   4.321   2.270  0.3850 -0.5468 -0.7720
   54DOPE    HY 6866   7.452   4.460   2.260 -0.9561  0.6195  1.6057
   54DOPE   O31 6867   7.400   4.390   2.455 -0.1375  0.1695 -0.1539
   54DOPE   C31 6868   7.496   4.471   2.507 -0.0644 -0.0217 -0.1561
   54DOPE   O32 6869   7.587   4.523   2.445 -0.6234 -0.3707 -0.0897
   54DOPE   C32 6870   7.466   4.509   2.654 -0.8178  0.8996 -0.0375
   54DOPE   H2X 6871   7.419   4.610   2.658 -1.6009  0.5874 -0.9740
   54DOPE   H2Y 6872   7.394   4.440   2.702  0.3730  0.5502  1.3167
   54DOPE   C23 6873   7.628   3.905   2.585  0.3596 -0.0795 -0.0947
   54DOPE   H3R 6874   7.690   3.875   2.498  0.8494 -1.9928  0.8670
   54DOPE   H3S 6875   7.574   3.815   2.621 -2.0226  2.2923  2.8337
   54DOPE   C24 6876   7.718   3.963   2.695 -0.2329 -0.5628 -0.7907
   54DOPE   H4R 6877   7.665   4.004   2.784 -0.4161 -0.9033 -0.7427
   54DOPE   H4S 6878   7.787   4.045   2.664 -0.3528  0.1816  0.7867
   54DOPE   C25 6879   7.819   3.860   2.746  0.1589 -0.3458  0.4156
   54DOPE   H5R 6880   7.880   3.813   2.666  0.2541 -0.5297  0.5954
   54DOPE   H5S 6881   7.762   3.779   2.797 -0.5942 -0.8199 -1.1347
   54DOPE   C26 6882   7.900   3.900   2.872 -0.8332 -0.2174  0.0969
   54DOPE   H6R 6883   7.849   3.972   2.941  4.7158  1.6879  2.7807
   54DOPE   H6S 6884   7.987   3.963   2.842 -0.3545 -0.5697  0.7383
   54DOPE   C27 6885   7.973   3.787   2.936  0.1601  0.1680  0.5837
   54DOPE   H7R 6886   8.029   3.730   2.859  0.1960 -0.7896  1.2882
   54DOPE   H7S 6887   7.897   3.709   2.961 -0.0217 -0.1554 -0.8931
   54DOPE   C28 6888   8.053   3.823   3.064  0.2617  0.0907 -0.7990
   54DOPE   H8R 6889   8.137   3.888   3.032 -1.1181  1.1433 -2.4582
   54DOPE   H8S 6890   8.100   3.738   3.118 -1.8014 -0.1490  0.7303
   54DOPE   C29 6891   7.968   3.894   3.165 -0.4569  0.1605  1.0018
   54DOPE   H9R 6892   7.976   4.004   3.171  1.7853 -0.0421  3.0449
   54DOPE  C210 6893   7.881   3.844   3.253  0.3628 -0.0867 -0.3941
   54DOPE  H10R 6894   7.829   3.912   3.321  1.2594  0.4381 -0.2143
   54DOPE  C211 6895   7.827   3.707   3.263  0.3346 -0.1047  0.1450
   54DOPE  H11R 6896   7.859   3.663   3.360 -0.3048 -1.0677 -0.0697
   54DOPE  H11S 6897   7.870   3.640   3.185  0.3550 -2.5570  2.1291
   54DOPE  C212 6898   7.669   3.686   3.242  0.0465 -0.2192  0.3284
   54DOPE  H12R 6899   7.617   3.768   3.296  0.4797  1.0471 -1.1176
   54DOPE  H12S 6900   7.639   3.584   3.274  0.2836 -0.5783 -0.5754
   54DOPE  C213 6901   7.618   3.708   3.097  0.5000  0.7641  0.3241
   54DOPE  H13R 6902   7.685   3.785   3.054  1.1479 -0.0943 -0.2313
   54DOPE  H13S 6903   7.512   3.741   3.094 -0.8213 -2.9583  0.6272
   54DOPE  C214 6904   7.606   3.572   3.023  0.0885  0.7040  0.8119
   54DOPE  H14R 6905   7.533   3.506   3.075 -0.7724 -0.4611 -1.6836
   54DOPE  H14S 6906   7.707   3.525   3.022 -1.2734 -2.5284 -0.0234
   54DOPE  C215 6907   7.559   3.586   2.873  0.4794  0.3117  0.7300
   54DOPE  H15R 6908   7.563   3.696   2.857 -0.6272  0.0501 -1.8331
   54DOPE  H15S 6909   7.456   3.547   2.858  0.6307  0.0006  0.5005
   54DOPE  C216 6910   7.648   3.506   2.770 -0.6094 -1.5483 -0.2031
   54DOPE  H16R 6911   7.755   3.531   2.788 -0.7923 -1.6057  1.1201
   54DOPE  H16S 6912   7.630   3.555   2.672  0.6053  1.8605  1.1081
   54DOPE  C217 6913   7.635   3.355   2.762 -0.0582  0.0051  0.2624
   54DOPE  H17R 6914   7.689   3.324   2.671 -0.0417  1.8862 -0.4113
   54DOPE  H17S 6915   7.531   3.328   2.734  0.2244 -2.3602  1.2527
   54DOPE  C218 6916   7.658   3.282   2.895 -0.1979  0.7192  0.1586
   54DOPE  H18R 6917   7.749   3.320   2.946  0.8267  0.9200 -1.7288
   54DOPE  H18S 6918   7.656   3.173   2.877 -3.2738  0.7406 -0.3168
   54DOPE  H18T 6919   7.570   3.312   2.956 -0.2462  1.3948 -0.2277
   54DOPE   C33 6920   7.606   4.512   2.719 -0.0577  0.6069  0.0156
   54DOPE   H3X 6921   7.674   4.580   2.662  2.6289 -2.7988 -1.1821
   54DOPE   H3Y 6922   7.647   4.409   2.713 -1.3132 -0.0438  1.8163
   54DOPE   C34 6923   7.586   4.558   2.866  0.1386  0.5118  0.2222
   54DOPE   H4X 6924   7.684   4.586   2.910 -0.9280  2.7743  1.3120
   54DOPE   H4Y 6925   7.523   4.650   2.864 -0.0098  0.3885 -1.1447
   54DOPE   C35 6926   7.520   4.450   2.960 -0.2413  0.4951  0.7966
   54DOPE   H5X 6927   7.574   4.353   2.961 -1.5436 -0.2930 -0.4138
   54DOPE   H5Y 6928   7.418   4.441   2.917  0.6566  0.5992 -1.5317
   54DOPE   C36 6929   7.509   4.486   3.107 -0.1635  0.3633 -0.1916
   54DOPE   H6X 6930   7.430   4.432   3.163 -1.0599  1.9835  0.1766
   54DOPE   H6Y 6931   7.492   4.593   3.130 -1.5387  0.5694 -1.9603
   54DOPE   C37 6932   7.647   4.460   3.177 -0.1482 -0.2573  0.8784
   54DOPE   H7X 6933   7.678   4.353   3.175 -0.2424 -0.2834  0.8067
   54DOPE   H7Y 6934   7.721   4.517   3.117  0.2171 -0.6451  0.9564
   54DOPE   C38 6935   7.654   4.522   3.313 -0.8193  0.7001 -1.2239
   54DOPE   H8X 6936   7.649   4.632   3.299  1.3338  1.0661  0.3711
   54DOPE   H8Y 6937   7.754   4.503   3.358  0.1877  3.8989 -1.8509
   54DOPE   C39 6938   7.557   4.466   3.414  0.0999 -1.1070  0.1792
   54DOPE   H9X 6939   7.576   4.362   3.445  1.1623 -0.6801  1.0156
   54DOPE  C310 6940   7.444   4.520   3.454 -0.3118  0.2040  0.4265
   54DOPE  H10X 6941   7.378   4.473   3.527 -2.9779  0.5333 -1.6340
   54DOPE  C311 6942   7.394   4.657   3.414 -0.3123  0.2143 -0.2625
   54DOPE  H11X 6943   7.472   4.720   3.365 -0.5007  0.0555 -0.7644
   54DOPE  H11Y 6944   7.313   4.635   3.342  1.0091 -0.8992 -1.4456
   54DOPE  C312 6945   7.349   4.758   3.525 -0.6617  0.1546  0.1638
   54DOPE  H12X 6946   7.432   4.801   3.584 -0.4435 -0.8331  0.5867
   54DOPE  H12Y 6947   7.280   4.698   3.588  0.0159 -0.8932 -0.0791
   54DOPE  C313 6948   7.265   4.877   3.472 -0.4149  0.2129 -0.1736
   54DOPE  H13X 6949   7.332   4.931   3.402  0.4215 -2.0867 -1.2461
   54DOPE  H13Y 6950   7.179   4.847   3.408 -2.4392 -0.2598  2.5742
   54DOPE  C314 6951   7.215   4.962   3.589  0.0201  0.6729  0.3736
   54DOPE  H14X 6952   7.297   4.963   3.663 -1.5798 -0.6665  2.2994
   54DOPE  H14Y 6953   7.135   4.901   3.637 -0.8125  0.4798 -1.1751
   54DOPE  C315 6954   7.151   5.104   3.564  0.5088  0.1560 -0.3912
   54DOPE  H15X 6955   7.117   5.155   3.657 -2.8757  0.3270 -1.5592
   54DOPE  H15Y 6956   7.062   5.075   3.504  0.5445  0.5569 -0.6421
   54DOPE  C316 6957   7.237   5.185   3.466 -0.2155  0.2045 -0.5844
   54DOPE  H16X 6958   7.174   5.248   3.400  0.1875 -0.3954 -1.5667
   54DOPE  H16Y 6959   7.303   5.125   3.400 -3.2349 -2.0255 -1.7863
   54DOPE  C317 6960   7.320   5.280   3.545  0.3561  0.0947 -0.9604
   54DOPE  H17X 6961   7.251   5.346   3.601  3.0099  1.4066  0.9883
   54DOPE  H17Y 6962   7.377   5.223   3.621  0.1834  2.5402  1.1188
   54DOPE  C318 6963   7.409   5.367   3.459 -0.2762 -0.1691 -0.1942
   54DOPE  H18X 6964   7.357   5.455   3.417  0.4460 -0.0828 -0.9232
   54DOPE  H18Y 6965   7.485   5.418   3.522 -1.3947  2.8256 -1.0991
   54DOPE  H18Z 6966   7.461   5.309   3.380 -0.9389 -3.1827  1.4029
   55DOPE     N 6967   1.680   6.132   2.187 -0.0017 -0.7662 -0.2873
   55DOPE   HN1 6968   1.580   6.102   2.180 -0.9227  1.6913  1.1121
   55DOPE   HN2 6969   1.681   6.236   2.190  1.1438 -0.7907  0.7231
   55DOPE   HN3 6970   1.739   6.096   2.110 -0.1234  0.0956 -0.7990
   55DOPE   C12 6971   1.731   6.086   2.320  0.6048 -0.2141 -0.4432
   55DOPE  H12A 6972   1.841   6.079   2.312  0.8008 -0.6421  2.0426
   55DOPE  H12B 6973   1.700   5.980   2.328  1.7963 -0.7247 -1.9838
   55DOPE   C11 6974   1.680   6.182   2.432  0.0262  0.2539  0.1286
   55DOPE  H11A 6975   1.731   6.135   2.519  0.4438  1.0376  0.3182
   55DOPE  H11B 6976   1.570   6.180   2.448 -0.0400  1.5207 -0.1302
   55DOPE     P 6977   1.859   6.390   2.429  0.0800  0.1284  0.0035
   55DOPE   O13 6978   1.843   6.534   2.414  0.1241 -0.3018 -0.3064
   55DOPE   O14 6979   1.966   6.322   2.355 -0.2081 -0.0958  0.3399
   55DOPE   O11 6980   1.890   6.337   2.570 -0.4820  0.2629  0.3149
   55DOPE   O12 6981   1.725   6.318   2.411 -0.3698 -0.4473 -0.7732
   55DOPE    C1 6982   1.830   6.393   2.686 -0.0056  0.1510 -1.0756
   55DOPE    HA 6983   1.738   6.451   2.663 -0.6331 -0.2060  0.4223
   55DOPE    HB 6984   1.896   6.476   2.719 -0.3854  0.1398 -0.2489
   55DOPE    C2 6985   1.796   6.296   2.804 -0.5571  0.2815  0.2073
   55DOPE    HS 6986   1.778   6.199   2.754  2.5503  0.6894 -1.9907
   55DOPE   O21 6987   1.672   6.333   2.866 -0.2389 -0.1988 -0.4281
   55DOPE   C21 6988   1.619   6.247   2.956 -0.6267 -0.5502  0.0024
   55DOPE   O22 6989   1.648   6.130   2.974  0.5955 -0.1668  0.5268
   55DOPE   C22 6990   1.518   6.317   3.043 -0.2577  0.2881 -0.5612
   55DOPE   H2R 6991   1.418   6.320   2.994 -0.6606  0.2037  0.2344
   55DOPE   H2S 6992   1.542   6.425   3.046 -1.7037  0.6370 -0.8391
   55DOPE    C3 6993   1.918   6.286   2.905 -0.3439 -0.5237  0.0446
   55DOPE    HX 6994   2.005   6.247   2.848  0.7586  0.0079  1.3063
   55DOPE    HY 6995   1.891   6.213   2.984  1.4158  0.1747  1.3373
   55DOPE   O31 6996   1.943   6.411   2.963 -0.0195 -0.4856 -0.3759
   55DOPE   C31 6997   1.919   6.439   3.089  0.4018 -0.3247 -0.0001
   55DOPE   O32 6998   1.855   6.372   3.170  0.3793 -0.4763  0.3054
   55DOPE   C32 6999   1.982   6.578   3.117 -0.4012  0.9400  0.5718
   55DOPE   H2X 7000   2.085   6.571   3.076 -0.3740  1.3890  0.5593
   55DOPE   H2Y 7001   1.934   6.646   3.044  3.3804  0.2334 -2.9275
   55DOPE   C23 7002   1.497   6.256   3.178 -0.3743  0.4009 -0.4775
   55DOPE   H3R 7003   1.452   6.331   3.246 -2.0917  2.4493 -3.6072
   55DOPE   H3S 7004   1.597   6.229   3.217 -0.6836 -1.2895 -0.7707
   55DOPE   C24 7005   1.408   6.132   3.184  0.1993 -0.2904 -0.0118
   55DOPE   H4R 7006   1.439   6.065   3.100 -3.5033 -1.6970 -0.4514
   55DOPE   H4S 7007   1.307   6.172   3.160 -0.1177 -1.1870 -0.2142
   55DOPE   C25 7008   1.419   6.049   3.315  0.0494 -0.9459  0.7836
   55DOPE   H5R 7009   1.525   6.026   3.337 -0.2887 -2.5244  0.9265
   55DOPE   H5S 7010   1.361   5.955   3.304 -0.7137 -0.3689 -0.3093
   55DOPE   C26 7011   1.352   6.118   3.437  0.0647 -0.2329  0.1635
   55DOPE   H6R 7012   1.246   6.086   3.447 -0.5048  1.6140  0.3223
   55DOPE   H6S 7013   1.344   6.226   3.412 -0.7671 -0.4538 -0.5845
   55DOPE   C27 7014   1.413   6.096   3.578 -0.6636 -0.1195  0.6926
   55DOPE   H7R 7015   1.379   6.169   3.655 -0.6875 -0.7879  1.3343
   55DOPE   H7S 7016   1.522   6.115   3.581 -0.8107  0.7160  1.0058
   55DOPE   C28 7017   1.393   5.956   3.640  0.1369  0.3974  1.2046
   55DOPE   H8R 7018   1.435   5.883   3.568 -3.0288 -1.0943  0.7141
   55DOPE   H8S 7019   1.282   5.947   3.637  0.2547 -1.7485  1.8338
   55DOPE   C29 7020   1.434   5.950   3.785 -0.7782  0.1063 -0.0529
   55DOPE   H9R 7021   1.485   6.040   3.821 -1.3454  0.7634 -0.8677
   55DOPE  C210 7022   1.416   5.842   3.867  0.1496  0.2110 -0.6086
   55DOPE  H10R 7023   1.431   5.860   3.975 -0.0860  1.5176 -0.7800
   55DOPE  C211 7024   1.355   5.700   3.841  0.3401 -0.7507  0.3057
   55DOPE  H11R 7025   1.322   5.693   3.735 -0.5675 -0.4927  0.5643
   55DOPE  H11S 7026   1.268   5.687   3.908 -0.3250  0.2870 -0.3355
   55DOPE  C212 7027   1.454   5.583   3.866 -0.0505  0.0485 -0.2049
   55DOPE  H12R 7028   1.548   5.613   3.816  0.2890  1.4313  1.1843
   55DOPE  H12S 7029   1.413   5.487   3.827  1.1543  0.6418 -3.2120
   55DOPE  C213 7030   1.492   5.553   4.016  0.3848  0.0982 -0.0200
   55DOPE  H13R 7031   1.544   5.634   4.071 -0.6931  0.2615  0.7714
   55DOPE  H13S 7032   1.559   5.464   4.013 -0.7878 -0.7831 -1.3728
   55DOPE  C214 7033   1.370   5.516   4.098 -0.5564 -0.7283  0.4506
   55DOPE  H14R 7034   1.332   5.427   4.042 -1.3464 -1.3110  1.8779
   55DOPE  H14S 7035   1.292   5.595   4.103 -1.5189 -1.5879 -0.3357
   55DOPE  C215 7036   1.408   5.468   4.242 -0.2223  0.4063  0.1508
   55DOPE  H15R 7037   1.445   5.560   4.292  0.3652  0.3162 -0.1131
   55DOPE  H15S 7038   1.488   5.391   4.231 -0.0143  0.6064  0.2578
   55DOPE  C216 7039   1.295   5.406   4.321  0.0997 -0.0629 -0.0018
   55DOPE  H16R 7040   1.275   5.305   4.280 -0.9459 -0.2473  0.9087
   55DOPE  H16S 7041   1.190   5.445   4.321 -0.7323 -2.1025  1.9349
   55DOPE  C217 7042   1.331   5.402   4.469 -0.4153 -0.5595  0.1014
   55DOPE  H17R 7043   1.339   5.505   4.509 -0.4778 -0.1291 -0.9625
   55DOPE  H17S 7044   1.431   5.355   4.482 -0.1586 -0.1827 -0.5045
   55DOPE  C218 7045   1.240   5.320   4.554 -0.4663  0.3367  0.2020
   55DOPE  H18R 7046   1.282   5.312   4.656  1.1752 -0.3277 -0.4794
   55DOPE  H18S 7047   1.230   5.215   4.518  0.4309  0.7936 -1.5052
   55DOPE  H18T 7048   1.134   5.354   4.563 -0.6502  0.6747 -2.3431
   55DOPE   C33 7049   1.976   6.607   3.266  0.2331 -0.3545 -0.0397
   55DOPE   H3X 7050   1.879   6.580   3.314  1.0695 -3.8405 -0.0204
   55DOPE   H3Y 7051   1.988   6.717   3.271  3.3982 -0.4434 -2.8938
   55DOPE   C34 7052   2.092   6.548   3.354  0.6383  0.0416  0.7377
   55DOPE   H4X 7053   2.087   6.439   3.334 -3.7817  0.4183 -1.4459
   55DOPE   H4Y 7054   2.189   6.585   3.315  1.0077 -0.3912  1.2331
   55DOPE   C35 7055   2.092   6.589   3.501 -0.1822 -0.4554 -0.0739
   55DOPE   H5X 7056   2.113   6.698   3.504 -0.2681 -0.2577 -3.4404
   55DOPE   H5Y 7057   2.175   6.539   3.555 -1.4768 -0.2364  2.2397
   55DOPE   C36 7058   1.963   6.546   3.570 -0.1233 -0.1966 -0.2048
   55DOPE   H6X 7059   1.927   6.457   3.514 -1.4202  0.4794 -0.4987
   55DOPE   H6Y 7060   1.886   6.626   3.572  2.0330  1.9596 -0.1786
   55DOPE   C37 7061   1.978   6.492   3.713 -0.5353 -0.7640 -0.6343
   55DOPE   H7X 7062   1.895   6.427   3.747 -1.7138  0.2644 -1.4711
   55DOPE   H7Y 7063   2.061   6.419   3.727 -0.6660 -1.1158 -1.6454
   55DOPE   C38 7064   2.010   6.596   3.822  1.3139 -0.1540 -0.4845
   55DOPE   H8X 7065   2.091   6.662   3.782  1.1866  0.6472  0.5365
   55DOPE   H8Y 7066   2.048   6.545   3.913  1.1426  0.8858  0.1916
   55DOPE   C39 7067   1.888   6.672   3.859  0.5956  0.1391  0.2036
   55DOPE   H9X 7068   1.863   6.761   3.800 -0.3307 -0.1038  0.2086
   55DOPE  C310 7069   1.814   6.644   3.969  0.3648 -0.2976 -0.3655
   55DOPE  H10X 7070   1.735   6.718   3.991  1.5491  0.5674  1.1730
   55DOPE  C311 7071   1.850   6.542   4.069 -0.5827  1.1373 -0.6927
   55DOPE  H11X 7072   1.823   6.440   4.034  0.3462  0.5007  0.3884
   55DOPE  H11Y 7073   1.959   6.530   4.087 -0.5332  0.8949 -1.1444
   55DOPE  C312 7074   1.802   6.557   4.215  0.4999 -0.2278 -0.6939
   55DOPE  H12X 7075   1.853   6.641   4.266 -0.3196  2.0167 -3.3206
   55DOPE  H12Y 7076   1.846   6.467   4.264  1.1403  0.3928 -0.1062
   55DOPE  C313 7077   1.651   6.566   4.241 -0.2456 -0.2587 -0.0044
   55DOPE  H13X 7078   1.625   6.667   4.204  0.9293  0.3367  0.7160
   55DOPE  H13Y 7079   1.599   6.487   4.182 -0.9663 -0.3273  0.7038
   55DOPE  C314 7080   1.606   6.558   4.387  0.8190 -0.1749 -0.8130
   55DOPE  H14X 7081   1.642   6.464   4.433 -1.8976  0.4467  3.0861
   55DOPE  H14Y 7082   1.496   6.565   4.376  0.3511 -2.5997  1.3318
   55DOPE  C315 7083   1.661   6.674   4.470  0.4952 -0.0053 -0.1989
   55DOPE  H15X 7084   1.624   6.771   4.430 -0.7983 -0.6188 -0.5335
   55DOPE  H15Y 7085   1.772   6.680   4.464  0.7573  0.8464  3.1415
   55DOPE  C316 7086   1.614   6.663   4.616  0.0768 -0.0114  0.8693
   55DOPE  H16X 7087   1.660   6.575   4.666 -1.0842 -0.3763  1.3275
   55DOPE  H16Y 7088   1.505   6.648   4.632  0.3945 -1.3033  2.0899
   55DOPE  C317 7089   1.658   6.791   4.692 -0.3567  0.5050 -0.1238
   55DOPE  H17X 7090   1.625   6.873   4.625 -0.4638 -0.9031 -1.9000
   55DOPE  H17Y 7091   1.607   6.805   4.789  0.2088  0.6844  0.1562
   55DOPE  C318 7092   1.810   6.792   4.723 -0.3623 -0.5867 -0.3416
   55DOPE  H18X 7093   1.876   6.743   4.648  0.2859 -1.9169  1.0566
   55DOPE  H18Y 7094   1.832   6.901   4.728 -2.7212 -0.0930  0.9060
   55DOPE  H18Z 7095   1.825   6.753   4.826 -0.6195  1.3677  0.4797
   56DOPE     N 7096   2.407   6.945   2.526 -0.7893 -0.2143  0.1053
   56DOPE   HN1 7097   2.442   6.960   2.623  1.1116  0.4718 -0.6406
   56DOPE   HN2 7098   2.469   6.872   2.487  0.0738  1.2740 -1.4350
   56DOPE   HN3 7099   2.426   7.033   2.474  0.1825 -0.1084  0.6234
   56DOPE   C12 7100   2.262   6.912   2.521  0.0651  0.2042  0.7354
   56DOPE  H12A 7101   2.243   6.832   2.596  0.3099 -1.9871 -1.4426
   56DOPE  H12B 7102   2.253   6.867   2.421  1.3631  2.1852 -0.3401
   56DOPE   C11 7103   2.161   7.021   2.540 -0.0010  0.2832  0.1078
   56DOPE  H11A 7104   2.062   6.973   2.559  0.6571 -0.6025  1.3627
   56DOPE  H11B 7105   2.157   7.072   2.441  1.9196 -1.8582 -1.1691
   56DOPE     P 7106   2.107   7.252   2.661  0.3943 -0.0720 -0.1874
   56DOPE   O13 7107   2.033   7.263   2.533 -0.3890 -0.0618  0.3048
   56DOPE   O14 7108   2.189   7.368   2.699  0.3001 -0.0075  0.2684
   56DOPE   O11 7109   2.008   7.232   2.787  0.2864 -0.5327  0.0208
   56DOPE   O12 7110   2.192   7.116   2.648 -0.3383 -0.5144 -0.3067
   56DOPE    C1 7111   2.003   7.106   2.853 -0.2208 -0.2280  0.1937
   56DOPE    HA 7112   2.100   7.056   2.871 -0.7447 -1.5608 -0.5564
   56DOPE    HB 7113   1.951   7.038   2.782  2.6139 -2.8824  0.4390
   56DOPE    C2 7114   1.933   7.107   2.985  0.4736 -0.8463  0.2784
   56DOPE    HS 7115   1.839   7.165   2.978  0.9555  0.2805  2.5184
   56DOPE   O21 7116   2.016   7.169   3.082 -0.5049 -0.5480  0.1389
   56DOPE   C21 7117   2.006   7.301   3.099 -0.5955  0.3939  0.3051
   56DOPE   O22 7118   1.921   7.370   3.050 -0.7654  0.1468 -0.2876
   56DOPE   C22 7119   2.125   7.347   3.187  0.1816 -0.0324  0.0900
   56DOPE   H2R 7120   2.213   7.352   3.120 -0.0921 -0.9893 -0.3563
   56DOPE   H2S 7121   2.151   7.272   3.265  1.0666  1.8623  1.7102
   56DOPE    C3 7122   1.897   6.958   3.026  0.8551  0.4437 -0.5205
   56DOPE    HX 7123   1.982   6.888   3.043 -0.8876 -1.6140  0.1930
   56DOPE    HY 7124   1.854   6.906   2.938 -0.4235 -0.1608  0.4240
   56DOPE   O31 7125   1.819   6.959   3.146 -0.1511  0.2445  0.3771
   56DOPE   C31 7126   1.732   6.864   3.156 -0.2754  0.2849  0.0719
   56DOPE   O32 7127   1.725   6.764   3.082  0.3636 -0.2398  0.1977
   56DOPE   C32 7128   1.667   6.873   3.297  0.8066  0.1160  0.2205
   56DOPE   H2X 7129   1.749   6.900   3.368  2.0009 -1.4101 -0.5276
   56DOPE   H2Y 7130   1.583   6.946   3.297  2.0286  1.6554  2.1801
   56DOPE   C23 7131   2.083   7.486   3.246 -0.2746 -0.3646 -0.5628
   56DOPE   H3R 7132   2.034   7.553   3.172  0.0940 -0.6666 -1.0830
   56DOPE   H3S 7133   2.180   7.523   3.284 -0.1259  0.1129 -1.3899
   56DOPE   C24 7134   1.998   7.480   3.378 -0.3723 -0.2132 -0.3771
   56DOPE   H4R 7135   2.055   7.418   3.451 -0.7028 -0.1724 -0.0842
   56DOPE   H4S 7136   1.900   7.431   3.364 -1.8941  1.8088  2.1386
   56DOPE   C25 7137   1.992   7.615   3.450  0.2966  0.3977 -0.1998
   56DOPE   H5R 7138   1.916   7.673   3.393 -0.6798  1.0962  1.7314
   56DOPE   H5S 7139   2.092   7.663   3.438  1.2623 -1.2497  0.9383
   56DOPE   C26 7140   1.965   7.615   3.600 -0.0188  0.1363  0.9109
   56DOPE   H6R 7141   1.982   7.715   3.646 -3.1259  0.6987  1.0372
   56DOPE   H6S 7142   2.047   7.557   3.648 -0.5936  0.6122  2.5632
   56DOPE   C27 7143   1.833   7.546   3.640 -0.0497  0.3856  0.1448
   56DOPE   H7R 7144   1.833   7.453   3.579  1.1657  0.3334  0.2017
   56DOPE   H7S 7145   1.747   7.612   3.617  0.1701  1.3465  1.9390
   56DOPE   C28 7146   1.834   7.511   3.787 -0.6677  0.0032 -0.2224
   56DOPE   H8R 7147   1.937   7.474   3.809  0.0426  1.0297 -1.6571
   56DOPE   H8S 7148   1.771   7.420   3.801 -2.1158  1.1925  1.5781
   56DOPE   C29 7149   1.769   7.610   3.886  0.0463  0.3996 -0.4412
   56DOPE   H9R 7150   1.664   7.633   3.864  0.6523  1.6150 -2.3807
   56DOPE  C210 7151   1.833   7.688   3.975 -0.2842  0.3478  0.4360
   56DOPE  H10R 7152   1.781   7.767   4.030  0.7171  0.6865  0.9181
   56DOPE  C211 7153   1.984   7.696   4.005  0.2292 -0.2108  0.3129
   56DOPE  H11R 7154   2.026   7.786   3.957 -0.2870 -0.0338  0.1884
   56DOPE  H11S 7155   2.032   7.599   3.978 -0.4877 -0.1199 -1.4325
   56DOPE  C212 7156   2.018   7.712   4.152 -0.0150  0.5997  0.0577
   56DOPE  H12R 7157   1.997   7.619   4.208  0.6544  0.4470  0.0704
   56DOPE  H12S 7158   1.951   7.781   4.208  0.4316 -1.4492  3.3923
   56DOPE  C213 7159   2.162   7.757   4.170 -0.2364 -1.2560 -0.0587
   56DOPE  H13R 7160   2.171   7.841   4.098 -1.3473 -2.4125 -1.6168
   56DOPE  H13S 7161   2.229   7.675   4.136 -1.0082 -1.7875 -0.3167
   56DOPE  C214 7162   2.195   7.803   4.310  0.0123 -0.2106  0.2090
   56DOPE  H14R 7163   2.183   7.718   4.381 -0.8449  2.0964  3.0003
   56DOPE  H14S 7164   2.130   7.885   4.347  2.5659  1.8123  0.4862
   56DOPE  C215 7165   2.338   7.860   4.328  0.2596  0.3393  0.3713
   56DOPE  H15R 7166   2.408   7.780   4.296 -1.5096 -1.0606 -0.2428
   56DOPE  H15S 7167   2.344   7.877   4.438 -0.8206 -0.7037  0.6135
   56DOPE  C216 7168   2.359   7.991   4.251 -0.1832  0.2060  0.1654
   56DOPE  H16R 7169   2.329   7.978   4.145  1.2965 -0.5285 -0.1887
   56DOPE  H16S 7170   2.469   8.007   4.252 -0.3845  1.8335  2.0639
   56DOPE  C217 7171   2.280   8.109   4.312 -0.2280 -0.1115  0.6253
   56DOPE  H17R 7172   2.171   8.095   4.296 -0.1117  1.0183 -1.4976
   56DOPE  H17S 7173   2.303   8.195   4.246 -0.8721 -0.9422 -0.7569
   56DOPE  C218 7174   2.321   8.162   4.452 -0.8753  0.6315  0.8837
   56DOPE  H18R 7175   2.272   8.260   4.467 -0.6502  0.7236  1.0191
   56DOPE  H18S 7176   2.431   8.171   4.436 -0.3922 -3.2682  1.0087
   56DOPE  H18T 7177   2.293   8.098   4.539  0.0200  0.3426  0.9739
   56DOPE   C33 7178   1.610   6.736   3.339 -0.2735 -0.3331  0.6499
   56DOPE   H3X 7179   1.689   6.660   3.323 -2.4659 -2.1686 -2.7171
   56DOPE   H3Y 7180   1.528   6.715   3.267 -2.5383  1.1251  2.6379
   56DOPE   C34 7181   1.558   6.743   3.478  0.9853 -0.1192 -0.3919
   56DOPE   H4X 7182   1.635   6.749   3.558 -0.3734 -1.1315  1.0715
   56DOPE   H4Y 7183   1.486   6.828   3.484 -0.2813 -1.0925 -1.3812
   56DOPE   C35 7184   1.476   6.616   3.507 -0.1785  0.1801  0.4987
   56DOPE   H5X 7185   1.536   6.523   3.496 -0.8294 -0.2916  0.8578
   56DOPE   H5Y 7186   1.391   6.610   3.435  0.0246 -0.8364  0.3251
   56DOPE   C36 7187   1.414   6.618   3.647  0.0240 -0.1132 -0.9592
   56DOPE   H6X 7188   1.323   6.556   3.631 -0.5140 -0.5083  2.7386
   56DOPE   H6Y 7189   1.384   6.724   3.665  0.6295  0.2468 -1.9715
   56DOPE   C37 7190   1.499   6.558   3.758 -0.8465 -0.3207 -0.3242
   56DOPE   H7X 7191   1.594   6.615   3.746 -0.7955  0.1538  1.8734
   56DOPE   H7Y 7192   1.445   6.579   3.853 -2.8165  0.2201 -1.5103
   56DOPE   C38 7193   1.525   6.402   3.742 -0.2517 -0.1280  0.4041
   56DOPE   H8X 7194   1.580   6.367   3.652  2.0866  0.2719  1.6072
   56DOPE   H8Y 7195   1.420   6.368   3.732 -0.6530  1.0219  0.5709
   56DOPE   C39 7196   1.600   6.343   3.862 -0.2992 -0.1922  0.3989
   56DOPE   H9X 7197   1.708   6.363   3.865 -0.3958  0.3141  0.6146
   56DOPE  C310 7198   1.543   6.289   3.970  0.9302 -0.3392 -0.1018
   56DOPE  H10X 7199   1.601   6.248   4.054 -1.2578 -1.5046  0.9403
   56DOPE  C311 7200   1.393   6.291   3.997  0.6620 -0.1459  0.0033
   56DOPE  H11X 7201   1.344   6.354   3.920 -2.0974 -1.5616  0.4938
   56DOPE  H11Y 7202   1.356   6.188   3.982  1.6943 -0.2713 -2.0648
   56DOPE  C312 7203   1.360   6.350   4.133 -0.3457 -0.7579 -0.2330
   56DOPE  H12X 7204   1.250   6.344   4.149 -0.5365  0.3589 -1.0402
   56DOPE  H12Y 7205   1.386   6.458   4.144 -0.3382 -0.7355 -0.4637
   56DOPE  C313 7206   1.416   6.267   4.247  0.1934  0.4878 -0.2949
   56DOPE  H13X 7207   1.513   6.216   4.233 -0.3428 -1.6025  2.7316
   56DOPE  H13Y 7208   1.443   6.336   4.330  1.5778 -0.9306  0.4932
   56DOPE  C314 7209   1.319   6.152   4.289  0.2242 -0.0148 -0.0646
   56DOPE  H14X 7210   1.304   6.090   4.198  1.4944 -1.1219  0.4511
   56DOPE  H14Y 7211   1.217   6.188   4.315  0.4364 -0.8874  2.1702
   56DOPE  C315 7212   1.374   6.067   4.404 -0.4299  0.2835  0.2031
   56DOPE  H15X 7213   1.386   6.136   4.490 -2.0333  2.8624 -1.4858
   56DOPE  H15Y 7214   1.473   6.029   4.370 -0.3622  1.5763 -1.1231
   56DOPE  C316 7215   1.284   5.946   4.445  0.0880 -0.4991 -0.4561
   56DOPE  H16X 7216   1.264   5.863   4.373 -1.3447 -1.1155  0.6069
   56DOPE  H16Y 7217   1.180   5.982   4.458 -0.0767 -0.8924 -0.6829
   56DOPE  C317 7218   1.337   5.881   4.570 -0.9569 -0.0739 -0.0130
   56DOPE  H17X 7219   1.361   5.938   4.662  1.2382 -0.6977 -0.1340
   56DOPE  H17Y 7220   1.253   5.817   4.603  0.0626  0.6309  4.6713
   56DOPE  C318 7221   1.459   5.796   4.541 -0.4960 -0.2680 -0.2847
   56DOPE  H18X 7222   1.486   5.736   4.631 -2.1185 -0.6004  0.0024
   56DOPE  H18Y 7223   1.442   5.721   4.461  1.1489 -1.2693  0.2514
   56DOPE  H18Z 7224   1.542   5.862   4.507 -2.3897  1.7570 -1.2338
   57DOPE     N 7225   0.656   2.886   2.007 -0.0678  0.9934 -0.2686
   57DOPE   HN1 7226   0.744   2.924   2.048  0.2344 -0.2449  0.2778
   57DOPE   HN2 7227   0.670   2.787   1.980 -0.6538 -0.0799  3.0005
   57DOPE   HN3 7228   0.619   2.940   1.926 -1.2859 -0.4766 -0.7360
   57DOPE   C12 7229   0.556   2.890   2.121 -0.0961  0.1039 -0.0255
   57DOPE  H12A 7230   0.512   2.992   2.114 -1.0522 -0.3775 -1.3913
   57DOPE  H12B 7231   0.617   2.868   2.211 -0.1977 -1.1614 -0.2461
   57DOPE   C11 7232   0.445   2.789   2.099  0.6045  0.2590  0.6371
   57DOPE  H11A 7233   0.385   2.822   2.012  1.4832  0.0185 -0.0831
   57DOPE  H11B 7234   0.375   2.799   2.184 -1.6412  0.4258 -1.1272
   57DOPE     P 7235   0.455   2.542   2.171  0.1977 -0.0641  0.0129
   57DOPE   O13 7236   0.532   2.423   2.130 -0.0479  0.1555  0.1245
   57DOPE   O14 7237   0.305   2.530   2.166  0.0224  0.0032 -0.0086
   57DOPE   O11 7238   0.501   2.591   2.311  0.0361  0.2760  0.4389
   57DOPE   O12 7239   0.501   2.663   2.082 -0.3564  0.3944  0.2420
   57DOPE    C1 7240   0.630   2.618   2.366  0.3480 -0.0527  0.1498
   57DOPE    HA 7241   0.682   2.695   2.305  1.7819 -1.9768 -1.1693
   57DOPE    HB 7242   0.698   2.531   2.352 -1.1323 -0.8244 -3.0629
   57DOPE    C2 7243   0.616   2.656   2.514  0.7883 -0.2680 -0.0139
   57DOPE    HS 7244   0.719   2.686   2.543  0.4308 -1.3606  2.8030
   57DOPE   O21 7245   0.575   2.544   2.599 -0.0813 -0.0739 -0.5142
   57DOPE   C21 7246   0.634   2.548   2.717 -0.1817  0.1037 -0.5261
   57DOPE   O22 7247   0.724   2.630   2.742  0.0045  0.1408 -0.1427
   57DOPE   C22 7248   0.587   2.445   2.820  0.0245 -0.6643  0.0722
   57DOPE   H2R 7249   0.669   2.373   2.843 -2.0914 -2.6168  2.0617
   57DOPE   H2S 7250   0.499   2.397   2.773 -0.9098  2.5668 -1.7533
   57DOPE    C3 7251   0.507   2.762   2.528 -0.3321  0.0767 -0.3044
   57DOPE    HX 7252   0.412   2.716   2.494 -0.1800 -0.7934  0.3877
   57DOPE    HY 7253   0.535   2.842   2.457 -1.6356  1.0792  0.2637
   57DOPE   O31 7254   0.498   2.814   2.664  0.2721  0.4789  0.2767
   57DOPE   C31 7255   0.516   2.944   2.682 -0.1561  0.1699  0.5409
   57DOPE   O32 7256   0.515   3.033   2.595  0.1709 -0.1868  0.3432
   57DOPE   C32 7257   0.533   2.965   2.835 -0.0612 -0.1256  0.6591
   57DOPE   H2X 7258   0.615   2.898   2.870  0.6260 -0.2628 -1.1404
   57DOPE   H2Y 7259   0.545   3.072   2.864  2.1300 -0.5102  1.3593
   57DOPE   C23 7260   0.552   2.513   2.958 -0.1684  0.6114 -0.1062
   57DOPE   H3R 7261   0.457   2.569   2.945 -0.2615  0.5062  0.1236
   57DOPE   H3S 7262   0.632   2.581   2.995 -1.4907  0.7629  2.7034
   57DOPE   C24 7263   0.518   2.405   3.072  0.7055 -0.0974  0.8838
   57DOPE   H4R 7264   0.604   2.334   3.075 -0.3366 -1.4782 -0.3381
   57DOPE   H4S 7265   0.428   2.347   3.043  0.2545  0.2159  1.6297
   57DOPE   C25 7266   0.479   2.471   3.205  0.7689 -0.5430  0.1101
   57DOPE   H5R 7267   0.368   2.473   3.210  0.6978 -2.6547  0.1992
   57DOPE   H5S 7268   0.525   2.572   3.204  0.9850 -0.5316 -3.6234
   57DOPE   C26 7269   0.529   2.399   3.334 -0.1255  0.0674  0.6101
   57DOPE   H6R 7270   0.638   2.416   3.346  0.0080  0.5136 -1.0483
   57DOPE   H6S 7271   0.509   2.290   3.326  1.1160 -0.0312 -2.5107
   57DOPE   C27 7272   0.454   2.462   3.445 -0.3251  0.1477  0.4384
   57DOPE   H7R 7273   0.348   2.483   3.420 -0.1488  1.2443  0.5472
   57DOPE   H7S 7274   0.500   2.563   3.442  2.4358 -1.0362  0.3235
   57DOPE   C28 7275   0.499   2.411   3.586 -0.3066  0.5322 -0.4339
   57DOPE   H8R 7276   0.448   2.464   3.669  1.2690  1.6672 -0.1552
   57DOPE   H8S 7277   0.609   2.422   3.592  0.0944 -2.5717 -0.2823
   57DOPE   C29 7278   0.449   2.273   3.588 -0.3701 -0.1458 -0.8368
   57DOPE   H9R 7279   0.359   2.251   3.528 -0.9428  0.7800 -0.3479
   57DOPE  C210 7280   0.504   2.175   3.654 -0.4989 -0.0562 -0.3426
   57DOPE  H10R 7281   0.469   2.072   3.636  1.8243 -0.7746 -1.0935
   57DOPE  C211 7282   0.623   2.175   3.756 -0.0517 -0.1945  0.8330
   57DOPE  H11R 7283   0.689   2.264   3.746  0.5138 -0.7857 -1.0013
   57DOPE  H11S 7284   0.687   2.086   3.745 -0.2576 -0.1993 -0.5391
   57DOPE  C212 7285   0.572   2.160   3.895 -0.0907  0.3023 -0.0786
   57DOPE  H12R 7286   0.519   2.063   3.907  1.1660 -0.3609  0.2828
   57DOPE  H12S 7287   0.500   2.243   3.914  1.4681  1.3108  1.6561
   57DOPE  C213 7288   0.687   2.164   3.999  0.1437 -0.4822 -0.5319
   57DOPE  H13R 7289   0.746   2.258   3.991 -0.1419 -0.2541  0.0047
   57DOPE  H13S 7290   0.762   2.082   4.001  1.8520  1.0037  1.4886
   57DOPE  C214 7291   0.622   2.158   4.137 -0.1572 -0.2557  0.4986
   57DOPE  H14R 7292   0.595   2.055   4.167  0.3656 -0.0365  1.8257
   57DOPE  H14S 7293   0.529   2.218   4.133  0.9762  1.4873 -1.3275
   57DOPE  C215 7294   0.717   2.196   4.250 -0.2245 -0.4853  0.0297
   57DOPE  H15R 7295   0.820   2.154   4.243 -0.2669 -0.9043  1.4586
   57DOPE  H15S 7296   0.666   2.149   4.337 -0.3079 -0.6815 -0.1254
   57DOPE  C216 7297   0.713   2.345   4.269  0.0528  0.1894  0.3349
   57DOPE  H16R 7298   0.610   2.387   4.268 -0.3946 -0.8923 -1.0957
   57DOPE  H16S 7299   0.761   2.388   4.178 -0.4388 -0.2943 -0.1602
   57DOPE  C217 7300   0.801   2.380   4.387  0.4996 -0.9104  0.4936
   57DOPE  H17R 7301   0.902   2.336   4.377  0.5068 -1.1252  1.4669
   57DOPE  H17S 7302   0.744   2.340   4.473 -2.3477  0.1005 -0.7774
   57DOPE  C218 7303   0.802   2.531   4.409 -0.5605  0.0075  0.1213
   57DOPE  H18R 7304   0.864   2.556   4.497 -1.0354  0.0087  0.4559
   57DOPE  H18S 7305   0.702   2.579   4.415  0.2795  2.0470 -0.9818
   57DOPE  H18T 7306   0.857   2.575   4.323  2.4662 -2.3220  0.6808
   57DOPE   C33 7307   0.407   2.927   2.916 -0.3631  0.1309 -0.0782
   57DOPE   H3X 7308   0.361   2.839   2.866  0.9035 -0.7276  0.2142
   57DOPE   H3Y 7309   0.332   3.008   2.908 -0.9920 -0.5166 -0.9331
   57DOPE   C34 7310   0.442   2.900   3.060 -0.3005  0.0282  0.1033
   57DOPE   H4X 7311   0.512   2.813   3.061 -0.9953 -0.6137 -1.8653
   57DOPE   H4Y 7312   0.496   2.988   3.099  1.1344 -0.5728 -0.4435
   57DOPE   C35 7313   0.322   2.863   3.144  0.0068 -0.0857  0.2786
   57DOPE   H5X 7314   0.288   2.764   3.107 -2.4606  0.5413  0.7167
   57DOPE   H5Y 7315   0.238   2.936   3.137 -1.2271 -1.4315  0.5335
   57DOPE   C36 7316   0.351   2.837   3.292 -0.6317  0.6774 -0.0723
   57DOPE   H6X 7317   0.399   2.933   3.322  0.7235  0.1618 -0.4781
   57DOPE   H6Y 7318   0.423   2.752   3.295  0.7680  1.8356  1.6629
   57DOPE   C37 7319   0.233   2.797   3.379 -0.1852 -0.6584  0.4787
   57DOPE   H7X 7320   0.167   2.886   3.373  1.4103  0.6891  1.7206
   57DOPE   H7Y 7321   0.193   2.706   3.330 -0.9821 -0.7530  1.2842
   57DOPE   C38 7322   0.275   2.782   3.520  0.4006  0.0066 -0.3438
   57DOPE   H8X 7323   0.307   2.878   3.564 -0.6189  1.0517 -1.7991
   57DOPE   H8Y 7324   0.360   2.711   3.531  0.9125  0.8230  1.2062
   57DOPE   C39 7325   0.157   2.717   3.599  0.2879 -0.6693 -0.5817
   57DOPE   H9X 7326   0.065   2.692   3.545  0.2660 -0.5195 -0.6159
   57DOPE  C310 7327   0.164   2.692   3.731  0.5464  0.3561  0.2780
   57DOPE  H10X 7328   0.075   2.649   3.779  0.8059  2.9369  3.3611
   57DOPE  C311 7329   0.287   2.693   3.822 -0.8485 -0.1033  0.0339
   57DOPE  H11X 7330   0.328   2.590   3.806 -4.6949 -1.9093  0.6538
   57DOPE  H11Y 7331   0.363   2.767   3.789  1.0036 -1.7353  0.4441
   57DOPE  C312 7332   0.247   2.701   3.968 -1.0531  0.5102  0.0816
   57DOPE  H12X 7333   0.183   2.613   3.992  0.9287 -0.5367  1.8828
   57DOPE  H12Y 7334   0.189   2.792   3.993 -2.0679 -0.2324  0.5144
   57DOPE  C313 7335   0.374   2.680   4.053 -0.3993  0.1829  0.5282
   57DOPE  H13X 7336   0.415   2.577   4.043  0.2056  0.6064 -2.5158
   57DOPE  H13Y 7337   0.456   2.741   4.009 -0.3279  0.0484  0.4744
   57DOPE  C314 7338   0.355   2.721   4.193  0.6344  0.0823  0.1420
   57DOPE  H14X 7339   0.282   2.805   4.197 -0.2450 -0.6570 -0.0035
   57DOPE  H14Y 7340   0.453   2.743   4.239  0.8232  2.4496 -1.2096
   57DOPE  C315 7341   0.286   2.608   4.275 -0.5441 -0.3024  0.4173
   57DOPE  H15X 7342   0.357   2.522   4.266 -2.7129 -2.1578  0.0715
   57DOPE  H15Y 7343   0.187   2.589   4.228 -0.8228 -1.3719  1.3922
   57DOPE  C316 7344   0.263   2.643   4.421  0.1248  0.5312  0.0534
   57DOPE  H16X 7345   0.185   2.721   4.410 -2.0173 -1.6993 -2.2525
   57DOPE  H16Y 7346   0.361   2.681   4.454  0.0791  1.8302 -1.2283
   57DOPE  C317 7347   0.220   2.533   4.516 -0.0210 -0.9489 -0.3943
   57DOPE  H17X 7348   0.121   2.484   4.509 -0.4274 -0.0427 -1.2016
   57DOPE  H17Y 7349   0.296   2.453   4.505  1.2891  0.2048 -0.0201
   57DOPE  C318 7350   0.230   2.581   4.666  0.1861 -0.1122  0.5331
   57DOPE  H18X 7351   0.333   2.616   4.686 -0.1509  0.6743  0.9380
   57DOPE  H18Y 7352   0.162   2.668   4.679  0.2399  0.4362 -2.1316
   57DOPE  H18Z 7353   0.196   2.498   4.731  0.0746 -0.4012  0.1114
   58DOPE     N 7354   1.274   7.035   2.635 -0.1632 -0.4764 -0.1035
   58DOPE   HN1 7355   1.362   7.090   2.638  0.8363 -1.9385 -1.0906
   58DOPE   HN2 7356   1.296   6.949   2.581 -0.4546  0.2678 -1.4574
   58DOPE   HN3 7357   1.191   7.083   2.596  0.0685  0.3873  0.4414
   58DOPE   C12 7358   1.235   6.970   2.763  0.0157  0.0493 -0.0349
   58DOPE  H12A 7359   1.228   7.049   2.841 -1.4931  0.1325 -0.2159
   58DOPE  H12B 7360   1.307   6.895   2.802 -1.4221 -2.9223 -2.6274
   58DOPE   C11 7361   1.093   6.903   2.758 -1.1790 -0.2098  0.0923
   58DOPE  H11A 7362   1.015   6.981   2.747 -0.1835  1.2218  2.3265
   58DOPE  H11B 7363   1.077   6.856   2.857  1.5014 -0.2531  0.5816
   58DOPE     P 7364   1.092   6.651   2.652  0.1096  0.5293 -0.4544
   58DOPE   O13 7365   1.238   6.623   2.656  0.0373  0.0143  0.2388
   58DOPE   O14 7366   1.026   6.589   2.537  0.2191  0.2865 -0.2145
   58DOPE   O11 7367   1.021   6.616   2.786 -0.2611 -0.3102  0.2622
   58DOPE   O12 7368   1.077   6.810   2.646  0.2890 -0.6268  0.8087
   58DOPE    C1 7369   0.878   6.619   2.810  0.3663 -0.3815 -0.0884
   58DOPE    HA 7370   0.834   6.518   2.795 -0.6642  0.0650 -0.2105
   58DOPE    HB 7371   0.823   6.686   2.740  2.0824  1.9283  0.6432
   58DOPE    C2 7372   0.845   6.684   2.945 -0.5017  0.7742  0.5676
   58DOPE    HS 7373   0.888   6.786   2.954  0.4123  0.2947  2.0550
   58DOPE   O21 7374   0.900   6.593   3.043 -0.1875  0.0464 -0.3042
   58DOPE   C21 7375   1.020   6.629   3.092  0.1509  0.1102  0.5452
   58DOPE   O22 7376   1.077   6.734   3.072 -0.6658 -0.3628 -0.5692
   58DOPE   C22 7377   1.060   6.513   3.188  0.1585 -0.7312  0.7043
   58DOPE   H2R 7378   1.163   6.478   3.165 -0.1908 -0.9856 -0.5019
   58DOPE   H2S 7379   0.986   6.431   3.178 -1.0647  0.4138  0.0882
   58DOPE    C3 7380   0.693   6.697   2.959 -0.1653  0.0170  0.2006
   58DOPE    HX 7381   0.647   6.600   2.932  0.2313 -0.2420  0.4433
   58DOPE    HY 7382   0.660   6.774   2.886  1.7347 -1.3521 -2.2402
   58DOPE   O31 7383   0.646   6.725   3.088 -0.0306  0.4403 -0.2738
   58DOPE   C31 7384   0.636   6.849   3.129 -0.4149  0.7997  0.2153
   58DOPE   O32 7385   0.677   6.948   3.070 -0.0020  0.1506  0.1247
   58DOPE   C32 7386   0.568   6.857   3.265 -0.3299 -0.3743  0.4231
   58DOPE   H2X 7387   0.602   6.947   3.320  1.3151 -0.5440 -0.2650
   58DOPE   H2Y 7388   0.458   6.855   3.252 -0.5490 -1.2280  2.1075
   58DOPE   C23 7389   1.036   6.557   3.339 -0.6744  0.4469 -0.0356
   58DOPE   H3R 7390   0.931   6.586   3.356 -0.1697  2.0373  0.5429
   58DOPE   H3S 7391   1.101   6.646   3.353 -1.2020  0.9517 -0.7105
   58DOPE   C24 7392   1.073   6.448   3.430 -0.4430 -0.0165 -0.1728
   58DOPE   H4R 7393   1.183   6.435   3.438 -0.3496  0.2173 -1.0278
   58DOPE   H4S 7394   1.019   6.355   3.403  1.6087 -1.3359  0.0710
   58DOPE   C25 7395   1.022   6.482   3.578  0.1384 -0.3521  0.2617
   58DOPE   H5R 7396   0.927   6.539   3.564  0.8083  0.3688 -1.8477
   58DOPE   H5S 7397   1.095   6.557   3.614  1.7123 -2.8350  2.5981
   58DOPE   C26 7398   1.017   6.359   3.668 -0.8283  0.3362 -0.0137
   58DOPE   H6R 7399   1.111   6.301   3.654  0.1467  2.1386 -1.3169
   58DOPE   H6S 7400   0.932   6.293   3.636 -0.6716  1.3545 -2.8089
   58DOPE   C27 7401   1.015   6.395   3.821 -0.6594  0.8626  0.6885
   58DOPE   H7R 7402   0.922   6.439   3.865 -1.2413  0.9517 -0.5950
   58DOPE   H7S 7403   1.104   6.455   3.847 -0.3042  0.6733 -0.0809
   58DOPE   C28 7404   1.044   6.274   3.909 -0.1787 -0.0801  0.2551
   58DOPE   H8R 7405   1.045   6.304   4.016 -1.3441  3.0514 -0.4878
   58DOPE   H8S 7406   1.147   6.238   3.886  0.7372  2.1016  0.6623
   58DOPE   C29 7407   0.927   6.181   3.890 -0.0783  0.7426 -0.0963
   58DOPE   H9R 7408   0.833   6.238   3.881 -0.0257  0.7929 -0.3272
   58DOPE  C210 7409   0.926   6.042   3.887 -0.4986  0.4052  0.5818
   58DOPE  H10R 7410   0.832   5.987   3.881  1.8276 -3.8065 -0.9532
   58DOPE  C211 7411   1.044   5.953   3.896  0.3712  0.8720  0.0604
   58DOPE  H11R 7412   1.140   6.005   3.873  2.3468 -1.5072  2.4008
   58DOPE  H11S 7413   1.021   5.863   3.835  0.0863  1.3092 -0.4899
   58DOPE  C212 7414   1.065   5.902   4.043 -0.0136 -0.4042  0.5816
   58DOPE  H12R 7415   1.102   5.989   4.102  2.7460  0.5884 -2.3700
   58DOPE  H12S 7416   1.150   5.834   4.064 -0.7746 -1.5358  0.0781
   58DOPE  C213 7417   0.939   5.841   4.112 -0.3603 -0.3995 -0.0512
   58DOPE  H13R 7418   0.903   5.750   4.059 -0.2650  0.5235 -1.8008
   58DOPE  H13S 7419   0.853   5.911   4.110  0.6205  0.8413 -0.8189
   58DOPE  C214 7420   0.967   5.815   4.270 -0.1998  0.7616 -0.0197
   58DOPE  H14R 7421   1.018   5.898   4.321  1.3830 -0.3207  0.2140
   58DOPE  H14S 7422   1.044   5.736   4.283 -1.5077 -0.5556 -0.0345
   58DOPE  C215 7423   0.835   5.766   4.329  0.8361 -0.9003  0.2970
   58DOPE  H15R 7424   0.819   5.666   4.284  0.8521 -0.9833  0.4736
   58DOPE  H15S 7425   0.753   5.830   4.291  0.7247 -1.5700 -0.6530
   58DOPE  C216 7426   0.843   5.764   4.480  0.2897 -0.0142 -0.0763
   58DOPE  H16R 7427   0.741   5.769   4.523 -0.8534  0.6753 -2.6371
   58DOPE  H16S 7428   0.887   5.859   4.520  0.1922 -0.9571  2.4369
   58DOPE  C217 7429   0.918   5.644   4.524  0.2038  0.4096 -0.0471
   58DOPE  H17R 7430   1.025   5.651   4.496  0.2511  0.0217  0.0284
   58DOPE  H17S 7431   0.878   5.548   4.483  0.3479 -0.6754  2.1533
   58DOPE  C218 7432   0.918   5.632   4.676 -0.0613 -0.2767 -0.3108
   58DOPE  H18R 7433   0.962   5.723   4.721  0.7023  0.1417 -1.8506
   58DOPE  H18S 7434   0.983   5.550   4.713  2.2867  1.9689  0.8895
   58DOPE  H18T 7435   0.816   5.626   4.721 -0.5796  0.3778 -1.3596
   58DOPE   C33 7436   0.605   6.739   3.356 -0.1457 -0.2234 -0.6436
   58DOPE   H3X 7437   0.710   6.708   3.335  1.0314  2.9038 -0.0670
   58DOPE   H3Y 7438   0.549   6.651   3.319 -0.5696 -0.8247  1.3197
   58DOPE   C34 7439   0.570   6.757   3.506  0.2630 -0.6852  0.3238
   58DOPE   H4X 7440   0.630   6.843   3.543 -0.3668  0.2508 -0.7384
   58DOPE   H4Y 7441   0.462   6.783   3.507  0.3092 -0.3740 -0.9858
   58DOPE   C35 7442   0.603   6.628   3.576 -0.8566 -0.4177 -0.0124
   58DOPE   H5X 7443   0.700   6.587   3.540 -0.0605  0.2631  1.2607
   58DOPE   H5Y 7444   0.524   6.551   3.573 -1.3522 -0.0434  1.8096
   58DOPE   C36 7445   0.612   6.654   3.735  0.4692  0.1316  0.9921
   58DOPE   H6X 7446   0.662   6.752   3.752  1.0240  0.3802 -1.6713
   58DOPE   H6Y 7447   0.673   6.570   3.774 -0.5016 -0.1299  2.0013
   58DOPE   C37 7448   0.469   6.655   3.794  0.2532 -1.0558  0.0755
   58DOPE   H7X 7449   0.418   6.744   3.752  2.2758 -0.7430 -1.8796
   58DOPE   H7Y 7450   0.414   6.567   3.754 -0.7622 -1.2280  1.7350
   58DOPE   C38 7451   0.470   6.651   3.949  1.0175 -0.3976 -0.2549
   58DOPE   H8X 7452   0.471   6.758   3.978  0.7889 -0.0516 -1.4734
   58DOPE   H8Y 7453   0.558   6.593   3.983 -0.6794 -2.0476  1.5768
   58DOPE   C39 7454   0.352   6.574   4.003  0.0954  0.0548  0.3660
   58DOPE   H9X 7455   0.339   6.472   3.965  1.1668  0.6303 -1.6637
   58DOPE  C310 7456   0.252   6.624   4.074 -0.2079 -0.0108 -0.3530
   58DOPE  H10X 7457   0.185   6.555   4.128  0.3836 -0.9706 -0.8258
   58DOPE  C311 7458   0.253   6.762   4.134  0.2987  0.5486  0.7372
   58DOPE  H11X 7459   0.291   6.744   4.237  1.1484  0.4212  0.4097
   58DOPE  H11Y 7460   0.324   6.830   4.081 -0.8273  1.9778  1.0157
   58DOPE  C312 7461   0.111   6.835   4.130 -0.9585  0.8098 -0.2022
   58DOPE  H12X 7462   0.052   6.765   4.193  0.2449  1.3532  1.5960
   58DOPE  H12Y 7463   0.055   6.844   4.035 -2.2853 -0.7414  0.3785
   58DOPE  C313 7464   0.105   6.977   4.191  0.4569  1.0907 -0.4671
   58DOPE  H13X 7465   0.169   6.972   4.282  0.0440 -0.3366 -0.2283
   58DOPE  H13Y 7466   0.145   7.050   4.118  0.0423 -0.1555 -2.0108
   58DOPE  C314 7467  -0.033   7.014   4.229 -0.8623  0.2705 -0.1195
   58DOPE  H14X 7468  -0.076   6.945   4.305  1.8571 -0.8888  0.4983
   58DOPE  H14Y 7469  -0.094   7.005   4.137  0.3899  1.9902 -1.1880
   58DOPE  C315 7470  -0.052   7.164   4.276 -0.0019  0.0447  0.5754
   58DOPE  H15X 7471   0.027   7.216   4.218 -1.0260 -1.6201 -2.5632
   58DOPE  H15Y 7472  -0.021   7.174   4.382  1.3841  1.1950  0.0885
   58DOPE  C316 7473  -0.190   7.219   4.244  0.3171 -0.5282  0.6102
   58DOPE  H16X 7474  -0.270   7.157   4.290  1.3655 -2.5074 -0.1404
   58DOPE  H16Y 7475  -0.208   7.210   4.135 -0.3121 -3.3179  0.8781
   58DOPE  C317 7476  -0.221   7.364   4.301 -0.2696  0.6795  0.1831
   58DOPE  H17X 7477  -0.188   7.365   4.407 -0.3661  2.2053  0.2145
   58DOPE  H17Y 7478  -0.147   7.430   4.251  1.1575 -1.0144 -0.0494
   58DOPE  C318 7479  -0.363   7.418   4.280 -0.0152  0.2584 -0.4538
   58DOPE  H18X 7480  -0.429   7.347   4.334  1.1245  0.0042  0.6390
   58DOPE  H18Y 7481  -0.371   7.525   4.311  1.1439  0.1068  0.4095
   58DOPE  H18Z 7482  -0.392   7.416   4.173 -0.5412  4.8437 -0.6246
   59DOPE     N 7483   0.085   2.060   2.240 -0.4715 -0.4797 -0.2462
   59DOPE   HN1 7484   0.151   2.028   2.315 -0.0800  2.6835  0.8834
   59DOPE   HN2 7485   0.097   1.997   2.158 -1.1372 -1.6912  0.5484
   59DOPE   HN3 7486   0.093   2.163   2.234  0.5040 -0.5201  0.1407
   59DOPE   C12 7487  -0.048   2.045   2.300  0.2515 -0.2928  0.2100
   59DOPE  H12A 7488  -0.104   1.967   2.245 -0.2686  0.4182 -0.2967
   59DOPE  H12B 7489  -0.110   2.137   2.285  0.2237 -0.0381  1.7155
   59DOPE   C11 7490  -0.054   2.007   2.451 -0.2411 -0.2948 -0.0961
   59DOPE  H11A 7491  -0.163   2.020   2.471 -0.0904 -1.5085  1.6610
   59DOPE  H11B 7492  -0.000   2.083   2.511  1.8767  1.0515 -3.3771
   59DOPE     P 7493   0.125   1.820   2.478 -0.3378 -0.0411  0.0746
   59DOPE   O13 7494   0.209   1.930   2.420  0.1028  0.0401  0.4175
   59DOPE   O14 7495   0.126   1.696   2.402 -0.6446 -0.5561  0.1934
   59DOPE   O11 7496   0.174   1.789   2.626 -0.5534  0.3550  0.0296
   59DOPE   O12 7497  -0.022   1.880   2.474  0.0327 -0.4773  0.3833
   59DOPE    C1 7498   0.190   1.887   2.727  0.4356 -0.3413  0.7386
   59DOPE    HA 7499   0.125   1.862   2.814  0.2309 -0.3365  0.5867
   59DOPE    HB 7500   0.171   1.990   2.691  1.9814 -0.1370  0.4233
   59DOPE    C2 7501   0.337   1.879   2.780 -0.1245 -0.1786  0.1235
   59DOPE    HS 7502   0.398   1.846   2.694 -0.5388 -1.1358  0.1805
   59DOPE   O21 7503   0.349   1.775   2.879  0.3028 -0.0307  0.3075
   59DOPE   C21 7504   0.474   1.723   2.895  0.7307  0.1533  0.5939
   59DOPE   O22 7505   0.572   1.755   2.828  0.2031 -0.1572 -0.2192
   59DOPE   C22 7506   0.485   1.602   2.991 -0.0295 -0.5118 -0.2685
   59DOPE   H2R 7507   0.558   1.524   2.960 -0.9020 -2.0284  1.3283
   59DOPE   H2S 7508   0.386   1.552   2.987 -0.9447  1.3258 -1.8699
   59DOPE    C3 7509   0.393   2.015   2.829 -0.4723  0.3362  0.2768
   59DOPE    HX 7510   0.395   2.081   2.740 -2.6382  0.2225  0.1054
   59DOPE    HY 7511   0.502   2.009   2.850 -0.2506  0.6009 -0.7379
   59DOPE   O31 7512   0.312   2.073   2.935  0.2499 -0.8593 -0.5885
   59DOPE   C31 7513   0.363   2.068   3.059  0.4098 -0.1556 -0.4419
   59DOPE   O32 7514   0.473   2.028   3.084  0.0736 -0.1675  0.3042
   59DOPE   C32 7515   0.252   2.098   3.164 -0.4701 -0.1606  0.3321
   59DOPE   H2X 7516   0.279   2.193   3.215 -0.6293  0.2420 -0.3225
   59DOPE   H2Y 7517   0.157   2.105   3.108  0.5376  0.7727 -1.3476
   59DOPE   C23 7518   0.503   1.635   3.143 -0.0017  0.0715 -0.2435
   59DOPE   H3R 7519   0.506   1.540   3.201  2.6916  0.4522  0.3695
   59DOPE   H3S 7520   0.410   1.691   3.165 -0.5316 -1.3231  1.2716
   59DOPE   C24 7521   0.641   1.701   3.164 -0.1639 -0.4284 -0.1929
   59DOPE   H4R 7522   0.650   1.795   3.104 -1.2115  1.1325  1.9583
   59DOPE   H4S 7523   0.713   1.621   3.138  1.6565  0.9386  0.3556
   59DOPE   C25 7524   0.666   1.751   3.304  0.2577  0.1047  0.6079
   59DOPE   H5R 7525   0.615   1.846   3.331  0.9356  0.4657  0.6599
   59DOPE   H5S 7526   0.776   1.755   3.320  0.3943 -2.6442  0.8565
   59DOPE   C26 7527   0.617   1.651   3.411  0.0192 -0.3338  0.0478
   59DOPE   H6R 7528   0.507   1.644   3.397 -0.0831 -0.0818  0.7029
   59DOPE   H6S 7529   0.642   1.704   3.505 -1.1354 -1.3150  0.9538
   59DOPE   C27 7530   0.684   1.512   3.420  0.0721 -0.7695 -0.1370
   59DOPE   H7R 7531   0.795   1.518   3.416  0.1848  0.8594  2.4634
   59DOPE   H7S 7532   0.651   1.450   3.334 -2.0683  0.7351 -0.5030
   59DOPE   C28 7533   0.645   1.439   3.551 -1.0199 -0.3066 -0.2577
   59DOPE   H8R 7534   0.535   1.428   3.558 -1.0092  0.5585  2.6170
   59DOPE   H8S 7535   0.671   1.512   3.631 -1.7110 -0.1641 -0.1622
   59DOPE   C29 7536   0.730   1.314   3.559  0.3093  0.4710  0.1529
   59DOPE   H9R 7537   0.705   1.240   3.482  1.3278 -0.2626  0.5156
   59DOPE  C210 7538   0.822   1.277   3.653 -0.1656 -0.4740 -0.6688
   59DOPE  H10R 7539   0.872   1.179   3.652 -0.1921 -0.4909 -0.4162
   59DOPE  C211 7540   0.838   1.358   3.786  0.0124  1.0887 -0.1443
   59DOPE  H11R 7541   0.746   1.357   3.848  0.4284 -0.9872  0.5009
   59DOPE  H11S 7542   0.834   1.468   3.769 -2.6558  0.9476 -0.8323
   59DOPE  C212 7543   0.962   1.320   3.878  0.9226  0.3145 -0.3125
   59DOPE  H12R 7544   1.045   1.360   3.815  1.4771  0.7728  0.6778
   59DOPE  H12S 7545   0.961   1.212   3.902  1.3779  0.4457  0.3214
   59DOPE  C213 7546   0.973   1.391   4.011 -0.2377 -0.9306 -0.0672
   59DOPE  H13R 7547   0.920   1.489   4.007 -1.4788 -1.4437  2.3585
   59DOPE  H13S 7548   1.080   1.416   4.031 -0.2755  1.7345 -2.4455
   59DOPE  C214 7549   0.911   1.299   4.126 -0.3260  1.1632  0.0767
   59DOPE  H14R 7550   0.927   1.356   4.220 -1.5765  0.8130  0.5280
   59DOPE  H14S 7551   0.970   1.205   4.133  1.5991  2.3858  1.2021
   59DOPE  C215 7552   0.760   1.278   4.119  0.4133  0.3298  0.8659
   59DOPE  H15R 7553   0.727   1.213   4.035  0.3135  1.6519 -0.1475
   59DOPE  H15S 7554   0.715   1.379   4.104  0.4559  0.1963 -0.2178
   59DOPE  C216 7555   0.705   1.224   4.251  0.1118  0.5350 -0.5916
   59DOPE  H16R 7556   0.733   1.119   4.270 -0.6071  0.7805  2.3467
   59DOPE  H16S 7557   0.594   1.218   4.247 -0.0790 -0.8533  3.1616
   59DOPE  C217 7558   0.725   1.322   4.371 -0.0654 -0.4895  0.3957
   59DOPE  H17R 7559   0.673   1.418   4.349  0.8216 -0.2065 -0.5428
   59DOPE  H17S 7560   0.834   1.338   4.386 -0.2640  1.9576 -0.3090
   59DOPE  C218 7561   0.666   1.258   4.499  0.1980 -0.3085  1.1024
   59DOPE  H18R 7562   0.716   1.159   4.508  1.6632 -0.0482 -2.5856
   59DOPE  H18S 7563   0.560   1.231   4.480  0.5553 -1.2991  0.4782
   59DOPE  H18T 7564   0.670   1.334   4.580  0.5843  0.0770  0.7260
   59DOPE   C33 7565   0.240   1.982   3.260 -0.7114 -0.2793  0.0083
   59DOPE   H3X 7566   0.259   1.883   3.213  0.9365 -0.2145  0.4931
   59DOPE   H3Y 7567   0.139   1.987   3.307 -1.6781 -1.4032 -1.7878
   59DOPE   C34 7568   0.347   1.985   3.372  0.8664 -0.6229 -0.1699
   59DOPE   H4X 7569   0.451   1.999   3.335  0.5904 -0.2784 -0.8370
   59DOPE   H4Y 7570   0.318   2.076   3.429  1.1138  0.2365 -1.3722
   59DOPE   C35 7571   0.346   1.865   3.465  0.5215 -0.0145  1.4978
   59DOPE   H5X 7572   0.430   1.874   3.537  1.7502  0.5783  0.0469
   59DOPE   H5Y 7573   0.377   1.772   3.413  0.8802  1.0091 -0.2141
   59DOPE   C36 7574   0.211   1.816   3.531  0.2502 -0.6187  0.0364
   59DOPE   H6X 7575   0.143   1.788   3.448  1.3269  0.2270 -1.1793
   59DOPE   H6Y 7576   0.173   1.906   3.583 -0.7703  0.0561 -1.8082
   59DOPE   C37 7577   0.226   1.685   3.618 -0.2000  0.4422 -0.0870
   59DOPE   H7X 7578   0.301   1.626   3.561 -1.0611 -1.4858  0.7287
   59DOPE   H7Y 7579   0.267   1.712   3.717 -1.8286  2.5866  0.0811
   59DOPE   C38 7580   0.099   1.602   3.612  0.3235  0.1764 -0.1001
   59DOPE   H8X 7581   0.108   1.506   3.665 -1.4087 -1.0898 -1.9336
   59DOPE   H8Y 7582   0.083   1.562   3.509  1.2387 -1.3623  0.3314
   59DOPE   C39 7583  -0.025   1.675   3.666  0.0863  0.6721  0.0261
   59DOPE   H9X 7584  -0.106   1.700   3.595 -1.5047  1.4444  2.0113
   59DOPE  C310 7585  -0.059   1.701   3.792  0.6675  0.6091  0.1732
   59DOPE  H10X 7586  -0.150   1.761   3.807  1.7099  2.4921 -0.5902
   59DOPE  C311 7587   0.047   1.694   3.904 -0.8061  0.2403 -0.1776
   59DOPE  H11X 7588   0.087   1.591   3.917 -1.6371 -0.2226 -1.1662
   59DOPE  H11Y 7589   0.135   1.754   3.874  0.7567 -2.8899 -2.4975
   59DOPE  C312 7590  -0.008   1.740   4.046  0.0600  0.4235  0.2405
   59DOPE  H12X 7591  -0.060   1.837   4.032 -1.2882 -0.1952  0.8455
   59DOPE  H12Y 7592   0.072   1.744   4.124  0.3986 -1.6798  0.0511
   59DOPE  C313 7593  -0.113   1.642   4.098 -0.0321 -0.0151  0.2561
   59DOPE  H13X 7594  -0.193   1.607   4.028  0.0235 -0.0088  0.1887
   59DOPE  H13Y 7595  -0.065   1.545   4.123 -0.8128  0.3354  3.5053
   59DOPE  C314 7596  -0.183   1.693   4.222 -0.0307  0.0234 -0.0634
   59DOPE  H14X 7597  -0.263   1.621   4.250  1.1424 -0.0843  3.5217
   59DOPE  H14Y 7598  -0.226   1.794   4.202  1.9073  0.9809  0.3308
   59DOPE  C315 7599  -0.093   1.685   4.352  0.2658 -0.3196  0.0244
   59DOPE  H15X 7600  -0.005   1.752   4.341 -0.4697  0.4331 -1.7206
   59DOPE  H15Y 7601  -0.054   1.582   4.365 -0.2093 -0.5622 -0.4483
   59DOPE  C316 7602  -0.166   1.721   4.482 -0.0378  0.2267  0.5832
   59DOPE  H16X 7603  -0.224   1.630   4.511 -1.2696 -0.4094 -3.3001
   59DOPE  H16Y 7604  -0.237   1.801   4.452  2.4894  2.2567 -0.3939
   59DOPE  C317 7605  -0.081   1.795   4.578  0.1197  0.0062 -0.0191
   59DOPE  H17X 7606  -0.000   1.728   4.613  1.4483  1.4482 -0.2137
   59DOPE  H17Y 7607  -0.021   1.869   4.521 -0.7042  0.8818  0.2010
   59DOPE  C318 7608  -0.144   1.860   4.706 -0.8893  0.3560  1.2585
   59DOPE  H18X 7609  -0.235   1.921   4.684 -1.5348 -0.6864  0.9360
   59DOPE  H18Y 7610  -0.178   1.775   4.769  0.6310  0.1201  1.7811
   59DOPE  H18Z 7611  -0.076   1.924   4.767 -1.9300  1.4710  1.3066
   60DOPE     N 7612   0.942   0.040   2.698 -0.0030  0.9920  0.1864
   60DOPE   HN1 7613   0.865   0.086   2.645 -2.3033 -1.6750  0.9759
   60DOPE   HN2 7614   0.953   0.084   2.791 -0.3430  1.7118 -0.1054
   60DOPE   HN3 7615   1.029   0.059   2.643 -1.0250 -0.2910 -2.0027
   60DOPE   C12 7616   0.911  -0.107   2.703  0.0339  0.0195  0.2849
   60DOPE  H12A 7617   0.814  -0.113   2.757  1.6360  0.0814  3.3671
   60DOPE  H12B 7618   0.980  -0.153   2.777 -0.6351 -0.2317  0.7551
   60DOPE   C11 7619   0.911  -0.180   2.566  0.1791  0.2438  1.0597
   60DOPE  H11A 7620   0.886  -0.288   2.576 -0.2804 -0.4211 -4.1265
   60DOPE  H11B 7621   1.019  -0.177   2.537 -0.4130  3.3749 -1.3902
   60DOPE     P 7622   0.678  -0.153   2.447  0.1859  0.1889  0.0192
   60DOPE   O13 7623   0.657  -0.293   2.389  0.0640 -0.6181  0.0622
   60DOPE   O14 7624   0.600  -0.043   2.380 -0.3050 -0.6042 -0.0741
   60DOPE   O11 7625   0.639  -0.158   2.603  0.3063  0.0321  0.4957
   60DOPE   O12 7626   0.833  -0.128   2.451 -0.2028 -0.1155  0.1153
   60DOPE    C1 7627   0.527  -0.087   2.658  0.6558 -0.1287 -0.6817
   60DOPE    HA 7628   0.438  -0.148   2.633  1.4251 -1.1967 -0.9071
   60DOPE    HB 7629   0.520   0.012   2.608 -0.1391 -0.8444 -2.0164
   60DOPE    C2 7630   0.515  -0.074   2.813 -0.1346 -0.3133 -0.6232
   60DOPE    HS 7631   0.574   0.019   2.829 -3.1023  1.5854 -0.0111
   60DOPE   O21 7632   0.574  -0.186   2.885 -0.1834 -0.3896  0.2809
   60DOPE   C21 7633   0.644  -0.164   2.989  0.1163 -0.1520 -0.1143
   60DOPE   O22 7634   0.690  -0.053   3.022  0.4619  0.0459 -0.1711
   60DOPE   C22 7635   0.673  -0.302   3.051  0.2585  0.3837  0.7163
   60DOPE   H2R 7636   0.782  -0.319   3.047  0.0859 -0.6406 -0.8150
   60DOPE   H2S 7637   0.629  -0.376   2.980  0.0305  3.1713 -2.3529
   60DOPE    C3 7638   0.372  -0.022   2.863 -0.5600 -0.4467  0.2814
   60DOPE    HX 7639   0.295  -0.078   2.805 -0.9709 -0.5846  0.9542
   60DOPE    HY 7640   0.369   0.085   2.834 -0.1714 -1.2295 -3.0431
   60DOPE   O31 7641   0.347  -0.050   3.002  0.0876 -0.3466 -0.1682
   60DOPE   C31 7642   0.338   0.052   3.096 -0.0559  0.5807 -0.4106
   60DOPE   O32 7643   0.353   0.169   3.071 -0.5963  0.4124  0.2855
   60DOPE   C32 7644   0.353  -0.017   3.236 -0.2555 -0.5049 -0.6190
   60DOPE   H2X 7645   0.255  -0.067   3.253 -0.4804 -0.0219 -0.4994
   60DOPE   H2Y 7646   0.436  -0.090   3.232  1.0243  0.3385  4.3825
   60DOPE   C23 7647   0.623  -0.319   3.193 -0.7537  0.5169  0.0904
   60DOPE   H3R 7648   0.513  -0.316   3.208 -0.9720  0.9845 -1.4669
   60DOPE   H3S 7649   0.665  -0.229   3.243 -0.3700  0.3584  0.0586
   60DOPE   C24 7650   0.673  -0.446   3.269  1.0302  0.0314 -1.1996
   60DOPE   H4R 7651   0.779  -0.456   3.239  1.6574 -2.6065  1.4629
   60DOPE   H4S 7652   0.631  -0.542   3.230 -0.1338  0.3925 -0.8602
   60DOPE   C25 7653   0.648  -0.436   3.424 -0.2418  0.5839  0.1541
   60DOPE   H5R 7654   0.710  -0.517   3.469 -1.4737 -1.1594 -1.1115
   60DOPE   H5S 7655   0.542  -0.452   3.454 -1.0057  0.7318 -2.2866
   60DOPE   C26 7656   0.716  -0.317   3.496 -0.3337 -0.0597  0.6298
   60DOPE   H6R 7657   0.657  -0.223   3.502 -0.4080 -0.1766  2.5156
   60DOPE   H6S 7658   0.806  -0.291   3.436 -0.4308 -0.5418  0.2685
   60DOPE   C27 7659   0.779  -0.334   3.634  0.0877 -0.3296  0.1128
   60DOPE   H7R 7660   0.848  -0.248   3.642  1.3282 -1.2617 -0.1884
   60DOPE   H7S 7661   0.840  -0.425   3.653 -2.8531 -2.1582  1.5967
   60DOPE   C28 7662   0.677  -0.331   3.750 -0.1904  0.0134 -0.3257
   60DOPE   H8R 7663   0.609  -0.243   3.745  0.0728  0.2454  0.1079
   60DOPE   H8S 7664   0.730  -0.321   3.847  1.5081 -3.7582 -0.7154
   60DOPE   C29 7665   0.586  -0.455   3.759  0.4889  0.0196  0.1412
   60DOPE   H9R 7666   0.575  -0.518   3.669 -4.5585  2.5788 -1.3746
   60DOPE  C210 7667   0.507  -0.483   3.864 -0.0239  0.2915  0.0897
   60DOPE  H10R 7668   0.443  -0.571   3.852 -0.9279  1.0842 -1.1500
   60DOPE  C211 7669   0.486  -0.408   3.985  0.3090  0.5284 -0.4719
   60DOPE  H11R 7670   0.375  -0.409   3.992  0.0970 -0.2027 -3.0157
   60DOPE  H11S 7671   0.527  -0.305   3.976  1.8950 -0.0334 -0.1737
   60DOPE  C212 7672   0.565  -0.464   4.103  0.3421 -0.2991  0.3698
   60DOPE  H12R 7673   0.564  -0.378   4.172 -0.3813  0.5598 -0.6813
   60DOPE  H12S 7674   0.670  -0.480   4.070  0.4530  1.9406 -0.5210
   60DOPE  C213 7675   0.498  -0.583   4.170  0.7870 -0.7256  0.3647
   60DOPE  H13R 7676   0.525  -0.680   4.123 -0.5932 -0.1868 -1.6375
   60DOPE  H13S 7677   0.390  -0.558   4.171  1.5721  3.2043  0.6296
   60DOPE  C214 7678   0.535  -0.601   4.319  0.2409 -0.0007 -0.6034
   60DOPE  H14R 7679   0.642  -0.626   4.334  0.0476 -0.4477  0.0911
   60DOPE  H14S 7680   0.468  -0.684   4.349 -1.9764  2.9344  3.7665
   60DOPE  C215 7681   0.487  -0.493   4.415  0.0945  0.6035  0.5123
   60DOPE  H15R 7682   0.380  -0.471   4.394 -0.0244 -1.2935 -1.2176
   60DOPE  H15S 7683   0.532  -0.396   4.384  1.5249  0.4734  2.0601
   60DOPE  C216 7684   0.501  -0.509   4.567  0.1222  0.2032 -0.1392
   60DOPE  H16R 7685   0.601  -0.483   4.608 -0.8218  3.6657  0.2299
   60DOPE  H16S 7686   0.469  -0.612   4.596 -0.8986  0.1016 -1.5529
   60DOPE  C217 7687   0.410  -0.421   4.655 -0.6379  0.5590 -0.0172
   60DOPE  H17R 7688   0.437  -0.458   4.756  2.4533 -2.8385 -1.8299
   60DOPE  H17S 7689   0.305  -0.454   4.639  0.1406 -1.3162 -1.6701
   60DOPE  C218 7690   0.420  -0.273   4.636  0.2486  0.5494 -0.6625
   60DOPE  H18R 7691   0.347  -0.221   4.701 -1.1170  0.5010 -2.1028
   60DOPE  H18S 7692   0.383  -0.258   4.533 -1.2896 -1.6981 -0.5023
   60DOPE  H18T 7693   0.524  -0.235   4.647  0.4247  0.0934 -0.7317
   60DOPE   C33 7694   0.381   0.097   3.337 -0.1924 -0.1352  0.4980
   60DOPE   H3X 7695   0.298   0.170   3.346 -0.0661  0.2166 -0.9231
   60DOPE   H3Y 7696   0.473   0.152   3.310 -0.2899 -0.7491 -1.1933
   60DOPE   C34 7697   0.421   0.038   3.473 -0.1140 -0.8143 -0.0657
   60DOPE   H4X 7698   0.349  -0.045   3.491 -1.1598 -0.1558 -1.0148
   60DOPE   H4Y 7699   0.524  -0.003   3.464  0.4427  0.8792 -2.2377
   60DOPE   C35 7700   0.422   0.139   3.589  0.2583 -0.2429 -0.2310
   60DOPE   H5X 7701   0.326   0.196   3.589  0.0096 -0.5485  1.9920
   60DOPE   H5Y 7702   0.502   0.216   3.593  0.2039 -0.2051  0.2276
   60DOPE   C36 7703   0.439   0.071   3.731 -0.4083  0.1795  0.0741
   60DOPE   H6X 7704   0.481   0.145   3.803  1.5380  1.7945 -2.5437
   60DOPE   H6Y 7705   0.517  -0.007   3.719  0.0529  0.5026  0.9003
   60DOPE   C37 7706   0.310   0.008   3.786  0.2658 -0.6056  0.1404
   60DOPE   H7X 7707   0.245   0.095   3.812  0.3031 -0.3866 -0.4828
   60DOPE   H7Y 7708   0.249  -0.044   3.708 -3.4797  0.1316  2.3073
   60DOPE   C38 7709   0.332  -0.059   3.923 -0.2705  0.2905 -0.0423
   60DOPE   H8X 7710   0.402  -0.143   3.907 -0.5987 -0.3709  1.7689
   60DOPE   H8Y 7711   0.234  -0.098   3.959 -0.1676  0.0613 -0.0075
   60DOPE   C39 7712   0.402   0.024   4.032 -0.0826 -0.1734  0.7446
   60DOPE   H9X 7713   0.460   0.113   4.005  1.4096 -0.7855  1.7768
   60DOPE  C310 7714   0.390   0.005   4.166  0.0436 -0.4391  0.1214
   60DOPE  H10X 7715   0.432   0.085   4.230  0.5369 -0.0545 -0.6721
   60DOPE  C311 7716   0.323  -0.109   4.238  0.3678  0.1876 -0.3277
   60DOPE  H11X 7717   0.259  -0.175   4.175  0.6602 -0.3474 -0.0752
   60DOPE  H11Y 7718   0.393  -0.182   4.283 -1.0027 -0.6780  0.4843
   60DOPE  C312 7719   0.232  -0.050   4.348 -0.7069 -0.5779 -0.0081
   60DOPE  H12X 7720   0.282   0.015   4.423 -2.5561 -0.7489  1.4557
   60DOPE  H12Y 7721   0.203  -0.141   4.404 -0.6747 -1.6714 -1.6825
   60DOPE  C313 7722   0.108   0.015   4.289 -0.5342 -0.0568  0.3652
   60DOPE  H13X 7723   0.134   0.109   4.236  0.8069 -0.6265 -0.0357
   60DOPE  H13Y 7724   0.067  -0.059   4.217  0.4099 -1.3027  1.0654
   60DOPE  C314 7725   0.000   0.044   4.396  0.0088  0.2228  0.5621
   60DOPE  H14X 7726   0.041   0.119   4.467 -1.0832  0.5459  0.8746
   60DOPE  H14Y 7727  -0.025  -0.051   4.448 -0.3609 -0.3817 -0.6748
   60DOPE  C315 7728  -0.138   0.082   4.343 -0.0934  0.4497  0.1380
   60DOPE  H15X 7729  -0.189  -0.007   4.300  0.7870  0.8437 -1.7974
   60DOPE  H15Y 7730  -0.133   0.156   4.261  0.3505 -0.2380 -0.4703
   60DOPE  C316 7731  -0.231   0.147   4.448  0.4323 -0.3468  0.2665
   60DOPE  H16X 7732  -0.247   0.099   4.546  0.5070  0.8476  0.8815
   60DOPE  H16Y 7733  -0.332   0.168   4.406 -0.0637 -0.3982  1.3964
   60DOPE  C317 7734  -0.177   0.285   4.483 -0.0918  0.4925  0.4492
   60DOPE  H17X 7735  -0.066   0.290   4.488 -0.1467  0.8509  1.6854
   60DOPE  H17Y 7736  -0.206   0.356   4.403  0.3542  1.2807  0.9747
   60DOPE  C318 7737  -0.230   0.341   4.613  1.2880 -0.7656  0.7543
   60DOPE  H18X 7738  -0.340   0.353   4.611  1.4927  1.7672  0.5446
   60DOPE  H18Y 7739  -0.199   0.280   4.701  0.1891 -3.3573 -0.5546
   60DOPE  H18Z 7740  -0.170   0.431   4.638  0.8635 -0.8418  2.1706
   6123SM     N 7741   3.108   3.243   6.805 -0.1320 -0.1537  0.2311
   6123SM   C15 7742   3.169   3.109   6.852  0.6602 -0.4015 -0.6398
   6123SM  H15A 7743   3.092   3.036   6.869  0.0163  0.6407  1.2262
   6123SM  H15B 7744   3.220   3.120   6.947 -0.1420  1.6967 -0.3868
   6123SM  H15C 7745   3.241   3.065   6.785  1.5918 -0.1597  0.1653
   6123SM   C14 7746   3.048   3.212   6.675 -0.8199 -0.1785  0.4994
   6123SM  H14A 7747   3.021   3.305   6.627  2.0700  1.2941  1.4760
   6123SM  H14B 7748   2.965   3.143   6.684 -0.4774 -0.6587  0.0747
   6123SM  H14C 7749   3.128   3.179   6.610 -1.8761  2.2875 -2.2742
   6123SM   C13 7750   2.989   3.281   6.892 -0.3624  0.0925 -0.2173
   6123SM  H13A 7751   2.923   3.204   6.929 -1.7935  2.4956  2.7148
   6123SM  H13B 7752   2.930   3.363   6.854 -1.3725 -0.6256 -0.2379
   6123SM  H13C 7753   3.039   3.318   6.981 -0.1612 -1.3730  0.3088
   6123SM   C12 7754   3.208   3.360   6.797 -0.1157  0.1965  0.7505
   6123SM  H12A 7755   3.161   3.449   6.757  0.1655 -0.2493 -0.6500
   6123SM  H12B 7756   3.274   3.342   6.712 -2.1948  1.4965 -1.2419
   6123SM   C11 7757   3.295   3.397   6.922  1.0300  0.5554  0.4029
   6123SM  H11A 7758   3.382   3.450   6.877  0.2929  2.4754  1.1080
   6123SM  H11B 7759   3.335   3.311   6.979 -0.7007  1.5686  3.3899
   6123SM     P 7760   3.222   3.620   7.047 -0.2908  0.3579 -0.2167
   6123SM   O13 7761   3.105   3.661   7.128  0.5590 -0.2541  0.2952
   6123SM   O14 7762   3.355   3.632   7.113  0.2494  0.0993  0.2651
   6123SM   O11 7763   3.225   3.697   6.913  0.6282 -0.3781  0.3768
   6123SM   O12 7764   3.208   3.464   7.006  0.0278 -0.1483  0.1037
   6123SM   C1S 7765   3.093   3.680   6.844 -0.1850 -0.3445  0.8173
   6123SM   H1S 7766   3.021   3.743   6.901 -3.2109 -0.3632 -2.6334
   6123SM   H1T 7767   3.057   3.577   6.825  2.1864 -0.5638 -3.8481
   6123SM    NF 7768   2.962   3.784   6.659 -0.0597  0.3022  0.2815
   6123SM   HNF 7769   2.911   3.719   6.604  0.9493 -0.7268  0.5277
   6123SM   C2S 7770   3.093   3.744   6.701 -0.4994  0.0019  0.7237
   6123SM   H2S 7771   3.145   3.840   6.718  0.1206 -0.2400  0.2193
   6123SM   C3S 7772   3.177   3.658   6.597  0.7305  0.0375 -0.0092
   6123SM   H3S 7773   3.113   3.570   6.575 -1.0137  1.6387 -1.7299
   6123SM    O3 7774   3.294   3.598   6.647  0.1938  0.0431 -0.1640
   6123SM   HO3 7775   3.308   3.624   6.738  1.7922  0.0318 -0.3687
   6123SM   C4S 7776   3.193   3.732   6.464 -0.5681 -0.3939  0.6793
   6123SM   H4S 7777   3.110   3.724   6.392  0.8526 -1.0933 -0.9542
   6123SM   C5S 7778   3.299   3.807   6.419  0.9294  0.2753  0.2142
   6123SM   H5S 7779   3.388   3.816   6.483  0.0067  0.5170  1.5122
   6123SM   C6S 7780   3.297   3.884   6.290  0.4034 -0.5243 -0.3188
   6123SM   H6S 7781   3.264   3.807   6.218 -0.7612  0.6424 -1.0732
   6123SM   H6T 7782   3.396   3.920   6.254  1.3647 -0.5067  2.1652
   6123SM   C7S 7783   3.181   3.989   6.276 -0.0097  0.2897  0.0454
   6123SM   H7S 7784   3.192   4.069   6.353  4.1207  0.1762 -0.2464
   6123SM   H7T 7785   3.080   3.943   6.285 -0.5222  0.9906 -1.6765
   6123SM   C8S 7786   3.195   4.062   6.142  0.5208 -0.4006  0.1102
   6123SM   H8S 7787   3.098   4.110   6.115  0.8928  0.6740  0.6247
   6123SM   H8T 7788   3.225   3.991   6.062  1.6713 -0.5081  0.6160
   6123SM   C9S 7789   3.297   4.181   6.153 -0.2986  0.6923  0.3584
   6123SM   H9S 7790   3.373   4.167   6.233 -0.0945  0.3940  0.1157
   6123SM   H9T 7791   3.219   4.253   6.184 -1.1359 -0.1360  0.2313
   6123SM  C10S 7792   3.365   4.221   6.019 -0.0214 -0.3794  0.4298
   6123SM  H10S 7793   3.293   4.244   5.938 -0.7944  2.1551  1.7411
   6123SM  H10T 7794   3.430   4.138   5.985  1.3040  0.3921  1.0025
   6123SM  C11S 7795   3.442   4.350   6.034  0.2033  0.2592  0.7823
   6123SM  H11S 7796   3.504   4.352   6.126  1.1626  0.1666  0.1553
   6123SM  H11T 7797   3.372   4.436   6.042  0.3093  0.6749 -1.9839
   6123SM  C12S 7798   3.526   4.370   5.909 -0.1710 -0.4413 -0.8348
   6123SM  H12S 7799   3.586   4.277   5.902 -2.0623 -1.6117 -3.2266
   6123SM  H12T 7800   3.583   4.463   5.927 -0.1513 -0.7628  0.9171
   6123SM  C13S 7801   3.454   4.386   5.773  0.0546 -0.0487  0.0962
   6123SM  H13S 7802   3.382   4.466   5.802  0.2805  0.3704 -0.4664
   6123SM  H13T 7803   3.402   4.290   5.757  2.5211 -1.7221  1.5281
   6123SM  C14S 7804   3.539   4.439   5.653 -0.1366 -0.0638  0.5790
   6123SM  H14S 7805   3.619   4.363   5.640  2.2220  2.1019  1.5174
   6123SM  H14T 7806   3.605   4.527   5.671  0.0655 -0.0430 -0.2345
   6123SM  C15S 7807   3.474   4.442   5.513 -1.0069  0.5327 -0.3704
   6123SM  H15S 7808   3.435   4.343   5.482 -0.5295  0.5430 -1.0189
   6123SM  H15T 7809   3.558   4.463   5.443  1.9495 -4.4945  1.1687
   6123SM  C16S 7810   3.351   4.542   5.504  0.4973 -0.2525 -0.1037
   6123SM  H16S 7811   3.276   4.498   5.574 -0.0322 -0.7598 -0.9778
   6123SM  H16T 7812   3.294   4.522   5.411  0.7196 -0.6389 -0.1597
   6123SM  C17S 7813   3.383   4.685   5.523 -0.5418 -0.3788 -0.0459
   6123SM  H17S 7814   3.436   4.700   5.620  0.6104 -1.4138 -0.4834
   6123SM  H17T 7815   3.283   4.734   5.526 -1.6905 -2.6516  0.3480
   6123SM  C18S 7816   3.461   4.758   5.412  0.3883  0.4087 -0.1765
   6123SM  H18S 7817   3.488   4.863   5.437 -0.3345  0.2435  1.4024
   6123SM  H18T 7818   3.410   4.755   5.313  0.7551  0.6552 -0.3769
   6123SM  H18U 7819   3.560   4.711   5.394  0.1922 -0.2678  0.4615
   6123SM   C1F 7820   2.903   3.902   6.692 -0.1081  0.2509  0.1434
   6123SM    OF 7821   2.958   3.981   6.768 -0.0526 -0.1321  0.3975
   6123SM   C2F 7822   2.766   3.928   6.631  0.1161 -0.7725  0.1477
   6123SM   H2F 7823   2.698   3.914   6.718  1.0991  0.0659  1.0767
   6123SM   H2G 7824   2.743   3.861   6.544  1.2057 -1.3025  0.2530
   6123SM   C3F 7825   2.740   4.081   6.598  0.3676 -0.1798  0.6370
   6123SM   H3F 7826   2.767   4.134   6.692 -1.7260 -0.7788  1.6500
   6123SM   H3G 7827   2.638   4.106   6.564  1.9633  3.3771 -2.1683
   6123SM   C4F 7828   2.833   4.107   6.473  0.3670  0.2603 -0.9260
   6123SM   H4F 7829   2.784   4.040   6.399 -0.6026  0.4483 -0.4805
   6123SM   H4G 7830   2.938   4.081   6.495 -0.1178 -0.6786  0.3838
   6123SM   C5F 7831   2.821   4.248   6.407  0.6610 -0.0064  0.1989
   6123SM   H5F 7832   2.892   4.319   6.455 -1.3227  2.3632 -0.1921
   6123SM   H5G 7833   2.721   4.295   6.401 -0.5640 -2.6535 -2.0612
   6123SM   C6F 7834   2.868   4.248   6.258 -0.4654 -0.6683  0.2041
   6123SM   H6F 7835   2.979   4.244   6.253 -0.4226  0.0949  0.3813
   6123SM   H6G 7836   2.838   4.348   6.219  1.2714 -0.7215 -1.3814
   6123SM   C7F 7837   2.798   4.144   6.165 -0.5794 -0.3905 -0.0323
   6123SM   H7F 7838   2.845   4.044   6.175  0.6155  0.0938 -0.6084
   6123SM   H7G 7839   2.819   4.184   6.063  2.7996  1.6172  1.2749
   6123SM   C8F 7840   2.648   4.161   6.187 -0.2578  0.0338 -0.3262
   6123SM   H8F 7841   2.621   4.269   6.192  0.4878  0.2017  0.3172
   6123SM   H8G 7842   2.614   4.122   6.285 -0.0263 -0.3443 -0.3962
   6123SM   C9F 7843   2.559   4.088   6.085  0.7628 -0.0473  0.6047
   6123SM   H9F 7844   2.460   4.104   6.132  0.9623 -1.1329  1.4312
   6123SM   H9G 7845   2.564   3.978   6.096  1.0716 -0.2000 -0.8180
   6123SM  C10F 7846   2.544   4.143   5.942 -0.4016 -0.3003 -0.1329
   6123SM  H10F 7847   2.644   4.132   5.896  0.1001  0.7180  0.6813
   6123SM  H10G 7848   2.537   4.253   5.938 -0.6154 -0.2915  0.3069
   6123SM  C11F 7849   2.449   4.063   5.859  0.6858  0.4298 -0.4548
   6123SM  H11F 7850   2.341   4.081   5.878  0.5278 -0.9026  0.0156
   6123SM  H11G 7851   2.466   3.954   5.876 -1.0699  0.4601  2.0501
   6123SM  C12F 7852   2.477   4.081   5.712 -0.5114  0.1207  0.1137
   6123SM  H12F 7853   2.586   4.069   5.694 -0.4443 -2.5223  1.6485
   6123SM  H12G 7854   2.445   4.186   5.696 -1.0618  0.0342  0.6127
   6123SM  C13F 7855   2.394   3.989   5.630 -0.3853 -1.1700 -0.3226
   6123SM  H13F 7856   2.294   4.000   5.675 -0.7790  0.4971 -1.4894
   6123SM  H13G 7857   2.437   3.887   5.645 -2.2522 -1.8135  0.8969
   6123SM  C14F 7858   2.397   4.022   5.475  0.1276 -0.4451  0.4011
   6123SM  H14F 7859   2.499   4.021   5.429 -0.4038 -1.4021 -0.7985
   6123SM  H14G 7860   2.361   4.125   5.454 -1.4969 -0.5680  2.2736
   6123SM  C15F 7861   2.309   3.920   5.394 -0.2406 -0.5613  0.5699
   6123SM  H15F 7862   2.207   3.921   5.439 -0.2137  2.1826  0.7376
   6123SM  H15G 7863   2.367   3.826   5.385  0.7697 -0.1296  2.2330
   6123SM  C16F 7864   2.284   3.971   5.245 -0.6014 -0.4681  0.8366
   6123SM  H16F 7865   2.387   3.999   5.215 -0.5671 -1.9243 -0.5194
   6123SM  H16G 7866   2.227   4.066   5.248  0.9040  0.4876  0.0606
   6123SM  C17F 7867   2.212   3.872   5.149 -0.8506 -0.2660 -0.0352
   6123SM  H17F 7868   2.114   3.841   5.192 -0.7287 -2.8074 -1.4360
   6123SM  H17G 7869   2.274   3.780   5.147 -0.9700 -0.5006  2.5767
   6123SM  C18F 7870   2.175   3.925   5.009  0.0994 -0.4088 -0.1911
   6123SM  H18F 7871   2.082   3.986   5.013 -0.6239 -1.5146  0.3035
   6123SM  H18G 7872   2.136   3.836   4.955 -2.0444  1.3217 -1.6472
   6123SM  C19F 7873   2.284   3.983   4.923  0.4273 -0.3826  0.1700
   6123SM  H19F 7874   2.358   3.902   4.905  1.8323  0.6436  1.1184
   6123SM  H19G 7875   2.335   4.072   4.966  0.2686  1.1945 -2.6067
   6123SM  C20F 7876   2.244   4.040   4.781  0.1198  0.3080 -0.8036
   6123SM  H20F 7877   2.232   4.150   4.773  1.5622  0.4574 -1.1995
   6123SM  H20G 7878   2.145   3.999   4.752 -0.1781  0.3390  0.1528
   6123SM  C21F 7879   2.333   3.996   4.664 -0.1977  0.0245 -0.6773
   6123SM  H21F 7880   2.291   4.034   4.568  0.1133  1.0144 -0.4335
   6123SM  H21G 7881   2.335   3.886   4.653 -0.4908 -0.0883  0.3325
   6123SM  C22F 7882   2.483   4.038   4.679  0.6876 -0.6170  0.5088
   6123SM  H22F 7883   2.511   4.034   4.787  1.3901 -0.3365  0.3401
   6123SM  H22G 7884   2.493   4.142   4.642  1.0082 -1.1444 -0.9561
   6123SM  C23F 7885   2.576   3.939   4.613 -0.0350 -0.0249 -0.1261
   6123SM  H23F 7886   2.681   3.974   4.624  0.4694 -0.8582 -1.8773
   6123SM  H23G 7887   2.544   3.915   4.509  0.1298  0.9658 -0.4096
   6123SM  H23H 7888   2.580   3.840   4.664 -1.3658 -0.5488 -0.9893
   6223SM     N 7889   2.124   3.853   6.957 -0.4657  0.5580  0.2663
   6223SM   C15 7890   2.159   3.843   7.101 -0.1977 -0.1932  0.5448
   6223SM  H15A 7891   2.217   3.930   7.126  0.4442 -0.4663  0.0210
   6223SM  H15B 7892   2.227   3.760   7.117  1.2781  0.4694 -1.9285
   6223SM  H15C 7893   2.065   3.837   7.155 -1.3975 -1.8757 -1.5927
   6223SM   C14 7894   2.088   3.712   6.922  0.3752 -0.1594  0.1170
   6223SM  H14A 7895   2.033   3.702   6.829 -0.5175 -0.0833  0.6214
   6223SM  H14B 7896   2.016   3.665   6.988 -0.8073 -0.1898 -1.1361
   6223SM  H14C 7897   2.178   3.653   6.926  0.0000 -0.9045 -1.4578
   6223SM   C13 7898   2.007   3.932   6.941 -0.1705 -0.4815 -0.0832
   6223SM  H13A 7899   1.925   3.897   7.001  0.2665 -0.5163  0.5080
   6223SM  H13B 7900   1.974   3.945   6.839  2.1467 -0.1735 -0.8549
   6223SM  H13C 7901   2.036   4.030   6.976  1.5478 -1.2964  0.9534
   6223SM   C12 7902   2.248   3.901   6.879  1.0234  0.5200 -0.0956
   6223SM  H12A 7903   2.328   3.839   6.918  1.8413  0.9751 -1.0011
   6223SM  H12B 7904   2.281   4.000   6.904  2.5080 -0.1180  0.6205
   6223SM   C11 7905   2.258   3.869   6.726  0.4111  0.1245  0.6588
   6223SM  H11A 7906   2.328   3.935   6.670 -0.1817  0.5101  0.3583
   6223SM  H11B 7907   2.166   3.897   6.670 -0.3807 -0.6240  1.5486
   6223SM     P 7908   2.444   3.686   6.744  0.0225  0.1599  0.4182
   6223SM   O13 7909   2.491   3.763   6.855 -0.0891 -0.3991  0.0388
   6223SM   O14 7910   2.448   3.540   6.755  0.1238  0.3681 -0.2492
   6223SM   O11 7911   2.514   3.731   6.607 -0.0821  0.1349  0.4120
   6223SM   O12 7912   2.293   3.733   6.713  0.2260  0.0496  0.6051
   6223SM   C1S 7913   2.452   3.698   6.478  0.3292 -0.5659 -0.0586
   6223SM   H1S 7914   2.366   3.768   6.474  0.7067 -0.0298  0.9422
   6223SM   H1T 7915   2.397   3.601   6.490  0.1532 -0.2443  2.0075
   6223SM    NF 7916   2.461   3.687   6.239  0.2439 -0.1777 -0.8402
   6223SM   HNF 7917   2.456   3.595   6.199 -2.3280 -0.6635  0.4546
   6223SM   C2S 7918   2.543   3.708   6.357 -0.6298 -0.7635 -0.1309
   6223SM   H2S 7919   2.586   3.810   6.358 -0.3844 -0.7530 -2.9274
   6223SM   C3S 7920   2.665   3.615   6.377  0.5454 -0.5130 -0.2809
   6223SM   H3S 7921   2.618   3.515   6.383  0.3021 -0.7424 -3.6921
   6223SM    O3 7922   2.737   3.630   6.495 -0.5196 -0.9460  0.2956
   6223SM   HO3 7923   2.672   3.683   6.543 -1.4287 -1.2375 -0.5706
   6223SM   C4S 7924   2.754   3.618   6.258  0.1341 -0.5494 -0.6662
   6223SM   H4S 7925   2.748   3.532   6.189 -0.3487 -1.4752  0.5029
   6223SM   C5S 7926   2.834   3.722   6.235  0.2929  0.3014  0.0400
   6223SM   H5S 7927   2.829   3.811   6.300 -0.2520  0.6672 -0.4898
   6223SM   C6S 7928   2.919   3.744   6.117 -0.6046 -0.3298  0.0279
   6223SM   H6S 7929   3.007   3.677   6.128 -0.9966 -0.6276  1.5573
   6223SM   H6T 7930   2.960   3.848   6.113  2.0585 -1.2340  1.2651
   6223SM   C7S 7931   2.853   3.714   5.981 -0.8689  0.5991  0.5795
   6223SM   H7S 7932   2.753   3.762   5.986 -0.2525  1.9946  0.0538
   6223SM   H7T 7933   2.835   3.604   5.984  2.5386 -0.0572  1.1371
   6223SM   C8S 7934   2.945   3.745   5.867  0.2821 -0.2084 -0.3516
   6223SM   H8S 7935   3.038   3.686   5.879  1.1919  1.2369 -0.1887
   6223SM   H8T 7936   2.978   3.851   5.866 -0.0350 -0.1121 -0.8435
   6223SM   C9S 7937   2.893   3.706   5.730 -0.3134 -0.0533  0.1734
   6223SM   H9S 7938   2.873   3.597   5.730  0.2832 -0.1703  0.7174
   6223SM   H9T 7939   2.966   3.734   5.651  0.9820  1.2151  1.7450
   6223SM  C10S 7940   2.759   3.771   5.695 -0.1131  0.4448 -0.4953
   6223SM  H10S 7941   2.776   3.880   5.680 -2.0493  0.8707  0.1581
   6223SM  H10T 7942   2.691   3.748   5.780  1.0819 -0.3650  0.2714
   6223SM  C11S 7943   2.713   3.714   5.562  0.2499  0.2033 -0.3598
   6223SM  H11S 7944   2.603   3.717   5.550  0.4305 -0.1135 -2.4587
   6223SM  H11T 7945   2.756   3.612   5.566  1.5082  0.7405  2.8805
   6223SM  C12S 7946   2.764   3.792   5.440 -0.6690  0.0978 -0.7076
   6223SM  H12S 7947   2.860   3.839   5.469 -0.4026 -1.0986  0.4233
   6223SM  H12T 7948   2.700   3.883   5.435 -0.0741  0.5907  0.5575
   6223SM  C13S 7949   2.780   3.721   5.306  0.2084 -0.1979  0.2623
   6223SM  H13S 7950   2.833   3.626   5.331  0.2453 -0.0054  0.9298
   6223SM  H13T 7951   2.833   3.789   5.237  1.0740 -3.0666 -2.1135
   6223SM  C14S 7952   2.640   3.697   5.240  0.1075 -0.2058  1.2823
   6223SM  H14S 7953   2.574   3.786   5.245 -1.0225 -0.9377  0.2563
   6223SM  H14T 7954   2.600   3.599   5.273 -1.0595 -0.0660  0.3491
   6223SM  C15S 7955   2.657   3.681   5.091 -0.1348  0.4608 -0.0080
   6223SM  H15S 7956   2.733   3.601   5.078 -1.3510 -0.6369 -0.5235
   6223SM  H15T 7957   2.695   3.777   5.048 -0.6580  0.3038 -0.8402
   6223SM  C16S 7958   2.531   3.646   5.008  0.3106 -0.0056 -0.8559
   6223SM  H16S 7959   2.464   3.734   4.996 -0.9541 -0.9160 -0.6841
   6223SM  H16T 7960   2.467   3.570   5.058  0.4327 -0.0361 -0.7447
   6223SM  C17S 7961   2.565   3.587   4.875 -0.1906 -0.7775 -0.0605
   6223SM  H17S 7962   2.631   3.499   4.891  1.9202  0.8260  0.5291
   6223SM  H17T 7963   2.624   3.659   4.815 -0.6032 -0.2171  0.1954
   6223SM  C18S 7964   2.442   3.549   4.796 -0.0905 -0.0949 -1.0961
   6223SM  H18S 7965   2.473   3.484   4.712  3.1332  1.7591 -1.5331
   6223SM  H18T 7966   2.404   3.645   4.754 -0.9139  0.4193  0.7038
   6223SM  H18U 7967   2.367   3.510   4.867  0.3487  1.4622  0.2986
   6223SM   C1F 7968   2.382   3.786   6.188  0.6137 -0.2941 -0.1092
   6223SM    OF 7969   2.354   3.889   6.253  0.6600  0.4832  0.5953
   6223SM   C2F 7970   2.319   3.764   6.054 -0.4089  0.0976  0.3206
   6223SM   H2F 7971   2.294   3.861   6.006  1.2133  0.6447  0.4999
   6223SM   H2G 7972   2.229   3.700   6.068  1.1545 -2.7680 -1.5552
   6223SM   C3F 7973   2.405   3.681   5.951  0.5083  1.1021 -0.0206
   6223SM   H3F 7974   2.421   3.576   5.984 -0.6917  1.0984  0.6210
   6223SM   H3G 7975   2.508   3.716   5.931  0.5271  1.7571  1.1272
   6223SM   C4F 7976   2.326   3.677   5.822  0.1180 -0.4790 -0.0636
   6223SM   H4F 7977   2.376   3.608   5.750  0.0786 -0.6390  0.0612
   6223SM   H4G 7978   2.327   3.777   5.774 -0.2954 -0.7597 -0.6682
   6223SM   C5F 7979   2.181   3.624   5.817 -0.0176  0.0797 -0.8879
   6223SM   H5F 7980   2.117   3.712   5.843  2.2800  1.7569 -0.6264
   6223SM   H5G 7981   2.176   3.553   5.902 -3.7609  0.5072 -0.5792
   6223SM   C6F 7982   2.144   3.561   5.687 -0.2000 -0.9032  0.2677
   6223SM   H6F 7983   2.035   3.537   5.684 -0.8018  1.5477  0.6336
   6223SM   H6G 7984   2.201   3.467   5.699  1.6681  0.2053  0.3575
   6223SM   C7F 7985   2.182   3.640   5.558  0.4536 -0.3795  0.3583
   6223SM   H7F 7986   2.289   3.668   5.548  0.3316 -0.0291  0.0115
   6223SM   H7G 7987   2.122   3.733   5.565 -2.1501 -2.0361  1.9358
   6223SM   C8F 7988   2.135   3.556   5.440 -0.0327 -0.0322 -0.2134
   6223SM   H8F 7989   2.124   3.619   5.348 -3.5554  0.0214  0.1045
   6223SM   H8G 7990   2.033   3.516   5.458  0.4684 -1.1389  0.2480
   6223SM   C9F 7991   2.241   3.444   5.414 -0.0301  0.4063  0.1361
   6223SM   H9F 7992   2.262   3.393   5.510  3.3929  2.1777  0.4836
   6223SM   H9G 7993   2.335   3.499   5.390  1.5104 -1.3546  1.7275
   6223SM  C10F 7994   2.202   3.329   5.320  0.2540 -0.2632  0.6027
   6223SM  H10F 7995   2.121   3.287   5.383  1.3260  0.3937  2.4923
   6223SM  H10G 7996   2.281   3.252   5.307  1.1355  0.4149  1.7663
   6223SM  C11F 7997   2.142   3.369   5.179  0.0485 -0.1865  0.2859
   6223SM  H11F 7998   2.210   3.442   5.130 -1.0878  0.3432 -0.5568
   6223SM  H11G 7999   2.051   3.429   5.201  1.3637  2.1940 -0.3364
   6223SM  C12F 8000   2.104   3.256   5.085 -0.7371  0.2399  0.3996
   6223SM  H12F 8001   2.021   3.191   5.120 -0.0273 -1.8169 -1.4976
   6223SM  H12G 8002   2.194   3.192   5.072 -0.3417  1.1328 -1.4437
   6223SM  C13F 8003   2.065   3.284   4.934  0.5621 -0.0453 -0.9667
   6223SM  H13F 8004   2.052   3.183   4.888 -0.2821 -1.9163  2.9011
   6223SM  H13G 8005   2.147   3.340   4.885  2.1781 -0.5785  0.9859
   6223SM  C14F 8006   1.924   3.350   4.934 -0.0765 -0.4437  0.3735
   6223SM  H14F 8007   1.929   3.455   4.969 -0.7311 -0.8172  1.6687
   6223SM  H14G 8008   1.862   3.292   5.006  0.7094 -1.9957 -0.1591
   6223SM  C15F 8009   1.857   3.342   4.789 -0.2031 -0.2695 -0.9965
   6223SM  H15F 8010   1.861   3.235   4.761 -0.7877 -0.6350  0.2175
   6223SM  H15G 8011   1.908   3.401   4.710  0.1424  0.7627 -0.0384
   6223SM  C16F 8012   1.706   3.378   4.792 -0.1705  0.2148  0.7627
   6223SM  H16F 8013   1.692   3.488   4.803  0.3717  0.4418 -0.6392
   6223SM  H16G 8014   1.656   3.326   4.876 -0.5657 -0.4659  0.1130
   6223SM  C17F 8015   1.641   3.352   4.659 -0.5160 -0.1183  0.9922
   6223SM  H17F 8016   1.653   3.243   4.639  0.8626  0.2296 -0.2651
   6223SM  H17G 8017   1.695   3.406   4.578 -1.4930 -2.0153 -1.0458
   6223SM  C18F 8018   1.488   3.379   4.674 -0.1601 -0.7808  0.0111
   6223SM  H18F 8019   1.470   3.484   4.707 -3.8151 -0.0208 -3.6028
   6223SM  H18G 8020   1.437   3.315   4.749  0.9522 -0.2539  1.2742
   6223SM  C19F 8021   1.424   3.370   4.533  0.5594  0.4823 -0.7281
   6223SM  H19F 8022   1.426   3.261   4.513  1.9228  0.1097  1.1030
   6223SM  H19G 8023   1.482   3.430   4.460  0.8020  2.5758  1.0860
   6223SM  C20F 8024   1.281   3.422   4.539 -0.1608  0.3131  0.8715
   6223SM  H20F 8025   1.285   3.529   4.565 -0.1901  0.4388  0.3783
   6223SM  H20G 8026   1.220   3.363   4.610 -1.9011  0.2127 -0.6276
   6223SM  C21F 8027   1.203   3.389   4.406 -0.3422 -0.2407  0.8493
   6223SM  H21F 8028   1.224   3.466   4.328 -0.7105 -1.5209 -0.5517
   6223SM  H21G 8029   1.096   3.385   4.435  0.0024  1.7939  2.6664
   6223SM  C22F 8030   1.228   3.254   4.346  0.3237  0.0994 -0.4301
   6223SM  H22F 8031   1.332   3.245   4.310  0.4486  1.0294 -0.3213
   6223SM  H22G 8032   1.160   3.240   4.259 -1.1515  3.3371  0.0494
   6223SM  C23F 8033   1.193   3.127   4.433  0.6425 -0.4887 -0.5756
   6223SM  H23F 8034   1.095   3.139   4.485  0.3824  1.3621 -1.3905
   6223SM  H23G 8035   1.275   3.115   4.506 -0.2205 -2.0230  0.1754
   6223SM  H23H 8036   1.186   3.038   4.368 -1.0471  0.7705 -2.2380
   6323SM     N 8037   3.642   4.908   7.020 -0.6865  0.0086  0.1367
   6323SM   C15 8038   3.503   4.964   7.024  0.2388 -0.8870  0.2389
   6323SM  H15A 8039   3.471   5.008   7.118 -2.6579 -0.7312 -0.7364
   6323SM  H15B 8040   3.448   4.871   7.027 -2.8291  0.7589 -0.8783
   6323SM  H15C 8041   3.478   5.032   6.944  0.6341  0.0141  0.8647
   6323SM   C14 8042   3.660   4.822   7.141 -0.1683 -0.3716  0.2727
   6323SM  H14A 8043   3.754   4.768   7.140  0.6672  0.9295  2.5083
   6323SM  H14B 8044   3.577   4.755   7.158 -0.6842  0.5948  1.7604
   6323SM  H14C 8045   3.679   4.887   7.225  1.9017 -0.3520 -0.1514
   6323SM   C13 8046   3.654   4.826   6.895 -0.3103 -0.3849 -0.5088
   6323SM  H13A 8047   3.578   4.749   6.892 -2.6187  1.6730  1.2114
   6323SM  H13B 8048   3.749   4.775   6.894 -0.2792 -0.3341 -0.1898
   6323SM  H13C 8049   3.642   4.890   6.808  1.2458  1.1169  0.3376
   6323SM   C12 8050   3.748   5.011   7.014 -0.8048  0.2293  0.0044
   6323SM  H12A 8051   3.755   5.076   6.929  0.7228  2.2442  1.5749
   6323SM  H12B 8052   3.837   4.950   7.007 -1.0233  0.1021 -2.5844
   6323SM   C11 8053   3.767   5.110   7.133 -0.3240 -0.0119 -0.0117
   6323SM  H11A 8054   3.676   5.173   7.140  0.3579  1.0859 -0.7305
   6323SM  H11B 8055   3.847   5.181   7.103 -0.0639 -0.9172 -1.6327
   6323SM     P 8056   3.909   4.977   7.306  0.7966 -0.0284  0.0216
   6323SM   O13 8057   3.992   5.063   7.397  0.2882  0.1111  0.2495
   6323SM   O14 8058   3.862   4.849   7.360 -0.1193  0.3785 -0.1943
   6323SM   O11 8059   3.987   4.959   7.168 -0.2336 -0.1414 -0.3272
   6323SM   O12 8060   3.778   5.055   7.266  0.3069  0.5338 -0.4653
   6323SM   C1S 8061   4.074   4.846   7.158 -0.2250 -0.5638  0.5304
   6323SM   H1S 8062   4.011   4.759   7.133 -1.4072  0.6503 -0.9064
   6323SM   H1T 8063   4.141   4.836   7.246  1.5200  1.6887 -0.4287
   6323SM    NF 8064   4.220   4.718   7.002 -0.1478 -0.1663 -0.1752
   6323SM   HNF 8065   4.305   4.699   7.052  0.3977 -0.1774 -1.0816
   6323SM   C2S 8066   4.169   4.856   7.034  0.7270  0.2076  1.3074
   6323SM   H2S 8067   4.099   4.891   6.955 -0.3756 -0.5244  1.9193
   6323SM   C3S 8068   4.274   4.971   7.057  0.0499 -0.5766 -0.1309
   6323SM   H3S 8069   4.337   4.941   7.143  0.1955 -0.2708 -0.1312
   6323SM    O3 8070   4.213   5.097   7.081  0.1615 -0.1412 -0.2950
   6323SM   HO3 8071   4.130   5.068   7.120 -0.9352  3.8217  0.8384
   6323SM   C4S 8072   4.357   4.968   6.938  0.8770 -0.6291  0.3720
   6323SM   H4S 8073   4.421   4.881   6.920  1.7804  0.0724  0.0832
   6323SM   C5S 8074   4.363   5.066   6.849 -0.7100 -0.0638 -0.1166
   6323SM   H5S 8075   4.323   5.165   6.876  2.6268  1.6858 -0.9702
   6323SM   C6S 8076   4.448   5.079   6.730  0.9752  0.6547  0.3454
   6323SM   H6S 8077   4.388   5.117   6.644 -3.4561 -0.1706  2.7875
   6323SM   H6T 8078   4.484   4.979   6.696 -0.7526  0.3423 -0.6729
   6323SM   C7S 8079   4.569   5.168   6.757 -0.3312 -0.3369  0.1319
   6323SM   H7S 8080   4.644   5.116   6.821  0.3367  0.8250  0.3162
   6323SM   H7T 8081   4.536   5.260   6.810  0.2821  0.0065 -0.0741
   6323SM   C8S 8082   4.651   5.198   6.632 -0.3026 -0.2046 -0.1166
   6323SM   H8S 8083   4.737   5.259   6.669 -0.8082 -0.2923  1.2608
   6323SM   H8T 8084   4.586   5.255   6.562  0.1143 -1.4192 -1.5269
   6323SM   C9S 8085   4.708   5.071   6.568 -0.3866 -0.6479  0.8623
   6323SM   H9S 8086   4.627   5.001   6.537 -0.6622 -0.1394  0.4178
   6323SM   H9T 8087   4.787   5.013   6.621  1.2708 -1.3856 -2.1100
   6323SM  C10S 8088   4.794   5.103   6.444 -0.0970  0.0514 -0.8074
   6323SM  H10S 8089   4.874   5.176   6.471  0.4766 -1.3966  1.6696
   6323SM  H10T 8090   4.725   5.156   6.375 -1.5215 -1.4708 -0.5965
   6323SM  C11S 8091   4.838   4.975   6.373  0.4196 -0.6433 -0.0016
   6323SM  H11S 8092   4.916   5.009   6.302 -1.7039  0.5869 -1.8716
   6323SM  H11T 8093   4.758   4.952   6.299 -1.9432 -1.1088  2.5255
   6323SM  C12S 8094   4.873   4.850   6.453  0.1552  0.5601 -0.2620
   6323SM  H12S 8095   4.784   4.812   6.507  0.6601 -2.1097 -1.1363
   6323SM  H12T 8096   4.956   4.876   6.522  1.6283  0.8949 -2.0906
   6323SM  C13S 8097   4.924   4.731   6.362  0.1426  0.6338 -0.6646
   6323SM  H13S 8098   4.922   4.651   6.439  0.8455  1.8906  0.7095
   6323SM  H13T 8099   5.026   4.739   6.320  0.9952  0.4677  1.2884
   6323SM  C14S 8100   4.842   4.698   6.235 -0.9233 -0.4279  0.1886
   6323SM  H14S 8101   4.833   4.791   6.176  2.3680 -0.7520 -1.0175
   6323SM  H14T 8102   4.737   4.668   6.254 -1.8184 -0.9213 -4.3805
   6323SM  C15S 8103   4.918   4.593   6.151  0.6881 -0.2016 -0.2554
   6323SM  H15S 8104   4.845   4.530   6.096  0.6615 -1.4107  1.0872
   6323SM  H15T 8105   4.973   4.525   6.220  0.9987 -0.8776 -1.1558
   6323SM  C16S 8106   5.021   4.658   6.056  0.6787 -0.0443  0.4151
   6323SM  H16S 8107   5.083   4.727   6.118  3.1539 -0.7568 -1.0963
   6323SM  H16T 8108   4.975   4.721   5.977 -0.8224 -2.8928 -1.1225
   6323SM  C17S 8109   5.115   4.557   5.989 -0.1141  0.0560 -0.1479
   6323SM  H17S 8110   5.055   4.504   5.913 -0.6267  1.5425 -0.8259
   6323SM  H17T 8111   5.151   4.488   6.068  0.0948  1.3475  0.9377
   6323SM  C18S 8112   5.231   4.628   5.922 -0.2589  0.7399 -0.4167
   6323SM  H18S 8113   5.203   4.730   5.887 -2.3426  1.3752  2.6883
   6323SM  H18T 8114   5.275   4.553   5.853 -0.1722 -0.1168  0.5569
   6323SM  H18U 8115   5.316   4.632   5.993  1.3714 -0.7325 -2.1851
   6323SM   C1F 8116   4.149   4.629   6.930 -0.2331 -0.0222 -0.3536
   6323SM    OF 8117   4.034   4.652   6.898 -0.0836 -0.5442  0.5510
   6323SM   C2F 8118   4.217   4.499   6.908 -0.0217 -0.6223 -0.4218
   6323SM   H2F 8119   4.183   4.432   6.990  0.3165  2.3304  2.3226
   6323SM   H2G 8120   4.327   4.514   6.910 -0.1251  0.1793 -0.6149
   6323SM   C3F 8121   4.165   4.428   6.783  0.0277  0.2400 -0.5984
   6323SM   H3F 8122   4.206   4.482   6.695 -0.8911 -1.4539 -2.1438
   6323SM   H3G 8123   4.055   4.436   6.775 -0.0422 -1.3695 -1.9781
   6323SM   C4F 8124   4.206   4.282   6.769 -0.1163 -0.2871  0.1036
   6323SM   H4F 8125   4.164   4.236   6.860 -0.8401 -0.1436 -0.1546
   6323SM   H4G 8126   4.315   4.265   6.751 -0.4329 -0.6561 -1.6775
   6323SM   C5F 8127   4.130   4.212   6.645  0.1677  0.6365  0.1225
   6323SM   H5F 8128   4.144   4.281   6.559 -0.8553  0.8730  0.1333
   6323SM   H5G 8129   4.028   4.226   6.685  0.8675 -0.5828  2.5203
   6323SM   C6F 8130   4.176   4.073   6.608 -0.0228  0.1873  0.2447
   6323SM   H6F 8131   4.102   4.031   6.537  0.7697  0.0001 -0.4938
   6323SM   H6G 8132   4.171   4.006   6.697  0.7055  1.1478  1.0257
   6323SM   C7F 8133   4.319   4.066   6.548  0.4413 -0.0387 -0.8614
   6323SM   H7F 8134   4.333   3.957   6.533  1.7820 -0.0154  0.0246
   6323SM   H7G 8135   4.396   4.105   6.617 -0.2754  1.0360 -0.6507
   6323SM   C8F 8136   4.342   4.123   6.410  0.7375 -0.2840 -0.3240
   6323SM   H8F 8137   4.441   4.083   6.380 -0.0058 -3.0473  0.6331
   6323SM   H8G 8138   4.343   4.234   6.424  0.6034 -0.3484  0.2298
   6323SM   C9F 8139   4.242   4.080   6.308  0.7224 -0.2966 -0.0667
   6323SM   H9F 8140   4.149   4.139   6.320  1.1018  0.4282 -0.6412
   6323SM   H9G 8141   4.221   3.971   6.322 -0.4844  0.0239  0.8485
   6323SM  C10F 8142   4.291   4.106   6.163 -0.2633  0.3934  0.0753
   6323SM  H10F 8143   4.385   4.051   6.140 -1.5656 -2.6582  1.5010
   6323SM  H10G 8144   4.306   4.212   6.135 -3.4731  0.7830 -0.4752
   6323SM  C11F 8145   4.176   4.056   6.073 -0.0190  0.2596  0.1614
   6323SM  H11F 8146   4.082   4.113   6.089 -1.6626 -2.6496  1.9352
   6323SM  H11G 8147   4.147   3.952   6.100 -0.3027 -0.1822 -1.6797
   6323SM  C12F 8148   4.216   4.062   5.927 -0.3191 -1.0538 -0.2464
   6323SM  H12F 8149   4.303   3.995   5.910  2.1846  1.3073  2.1118
   6323SM  H12G 8150   4.244   4.166   5.898  0.2251 -0.9718  0.5356
   6323SM  C13F 8151   4.099   4.005   5.843  0.2373 -0.8365  0.1451
   6323SM  H13F 8152   4.007   4.061   5.870 -0.5213 -0.6066 -2.6827
   6323SM  H13G 8153   4.066   3.906   5.881 -2.2278  0.3887  1.4466
   6323SM  C14F 8154   4.129   4.001   5.694 -0.0362 -0.0548  0.9077
   6323SM  H14F 8155   4.179   3.912   5.651 -0.0478 -0.1107  1.0092
   6323SM  H14G 8156   4.196   4.087   5.674 -2.2708  1.9078  1.3070
   6323SM  C15F 8157   3.993   4.007   5.628  0.6356  0.1406 -0.5270
   6323SM  H15F 8158   3.945   4.100   5.665 -1.2934 -1.0744  0.1846
   6323SM  H15G 8159   3.935   3.918   5.660  2.1737 -0.4977  0.5888
   6323SM  C16F 8160   3.992   4.016   5.478 -0.7637  0.5334  0.8744
   6323SM  H16F 8161   4.021   3.913   5.449  1.6518  0.8500  1.9583
   6323SM  H16G 8162   4.063   4.094   5.443  1.5142 -1.1455  1.5477
   6323SM  C17F 8163   3.855   4.066   5.426  0.8066 -0.5204 -0.0201
   6323SM  H17F 8164   3.841   4.170   5.463 -0.1414 -0.5368 -0.2919
   6323SM  H17G 8165   3.767   4.010   5.465  0.6752 -0.8161 -0.7373
   6323SM  C18F 8166   3.839   4.072   5.273 -0.1779 -0.3032 -0.0941
   6323SM  H18F 8167   3.842   3.969   5.232  1.7413 -0.4699  0.3534
   6323SM  H18G 8168   3.930   4.125   5.236 -0.9716  2.9230  2.1080
   6323SM  C19F 8169   3.720   4.159   5.218 -0.2207 -0.1614 -0.4790
   6323SM  H19F 8170   3.753   4.259   5.253 -0.2388  0.6739 -2.6506
   6323SM  H19G 8171   3.635   4.111   5.271  0.1927 -0.3259  0.0489
   6323SM  C20F 8172   3.719   4.170   5.064 -0.5602 -0.1178 -0.5602
   6323SM  H20F 8173   3.691   4.072   5.020  0.6015 -0.2134 -1.1141
   6323SM  H20G 8174   3.822   4.200   5.037 -0.8820  0.9161 -0.6946
   6323SM  C21F 8175   3.622   4.279   5.019  0.0706 -0.4539 -0.0357
   6323SM  H21F 8176   3.655   4.319   4.920  3.1059 -0.0770  1.0232
   6323SM  H21G 8177   3.627   4.364   5.090  1.1744  0.3277 -0.9994
   6323SM  C22F 8178   3.483   4.226   4.988 -0.4993  0.1519  0.4804
   6323SM  H22F 8179   3.432   4.186   5.079  0.8571 -1.1913  0.6924
   6323SM  H22G 8180   3.494   4.139   4.920  0.4806  1.3454 -0.9243
   6323SM  C23F 8181   3.389   4.328   4.914  0.7490 -0.4058  0.6282
   6323SM  H23F 8182   3.415   4.344   4.807  0.4021  0.3110  0.6419
   6323SM  H23G 8183   3.405   4.433   4.946 -1.4223  0.4370 -0.8435
   6323SM  H23H 8184   3.281   4.309   4.926  0.6750  0.2016  0.9493
   6423SM     N 8185   4.134   4.083   7.405  0.4358 -0.1974  0.0037
   6423SM   C15 8186   4.124   4.227   7.375  0.3483 -0.4515  0.4941
   6423SM  H15A 8187   4.187   4.267   7.297  0.7389 -1.6811  0.1513
   6423SM  H15B 8188   4.142   4.288   7.463 -0.9897  2.7754 -1.3112
   6423SM  H15C 8189   4.022   4.256   7.361  0.3920 -0.8057 -0.6438
   6423SM   C14 8190   4.271   4.055   7.448  0.0801  0.5703 -0.2634
   6423SM  H14A 8191   4.295   3.952   7.467  1.5326  0.7711 -0.8769
   6423SM  H14B 8192   4.280   4.108   7.541 -0.4232 -1.5728  1.0793
   6423SM  H14C 8193   4.348   4.093   7.383  2.1055 -0.0462  1.6598
   6423SM   C13 8194   4.037   4.057   7.516  0.3267  0.5572  0.1238
   6423SM  H13A 8195   4.053   3.955   7.549  0.4103 -0.1326 -1.8995
   6423SM  H13B 8196   3.937   4.057   7.475 -0.1348  0.3755  1.1911
   6423SM  H13C 8197   4.047   4.118   7.605  1.9209  0.1357  0.2675
   6423SM   C12 8198   4.097   4.005   7.283  0.2294  0.8782  0.2073
   6423SM  H12A 8199   4.177   4.028   7.215  0.7877  0.2860  0.6459
   6423SM  H12B 8200   3.998   4.034   7.251  0.1946  1.8851  1.1760
   6423SM   C11 8201   4.095   3.853   7.306 -0.0143 -0.0137 -0.1238
   6423SM  H11A 8202   4.070   3.800   7.212 -0.6149 -0.8385  0.4799
   6423SM  H11B 8203   4.015   3.832   7.381 -1.2515 -0.4888 -1.5299
   6423SM     P 8204   4.253   3.648   7.383  0.0982  0.2797 -0.3736
   6423SM   O13 8205   4.373   3.657   7.468 -0.4956  0.1950 -0.2462
   6423SM   O14 8206   4.136   3.585   7.446  0.2816  0.3905  0.1741
   6423SM   O11 8207   4.283   3.575   7.244 -0.0256 -0.4318  0.3377
   6423SM   O12 8208   4.225   3.798   7.341  0.0018 -0.0310 -0.2457
   6423SM   C1S 8209   4.328   3.656   7.128 -0.2849  0.6387  0.3334
   6423SM   H1S 8210   4.398   3.738   7.156 -1.7622  2.1590 -0.2200
   6423SM   H1T 8211   4.235   3.696   7.082 -0.6756  0.0184  0.5727
   6423SM    NF 8212   4.449   3.624   6.915  0.3385  0.0236  0.3882
   6423SM   HNF 8213   4.374   3.633   6.850  0.6802  0.0742 -0.0056
   6423SM   C2S 8214   4.411   3.557   7.034 -0.1715  0.1265 -0.0294
   6423SM   H2S 8215   4.501   3.526   7.091 -0.6287  0.9583  1.1825
   6423SM   C3S 8216   4.333   3.430   7.011  0.4069 -0.3130 -0.1636
   6423SM   H3S 8217   4.227   3.464   7.007  0.3881 -0.4460 -0.8711
   6423SM    O3 8218   4.331   3.341   7.124  0.3376  0.3202  0.0697
   6423SM   HO3 8219   4.360   3.403   7.191 -0.2772  2.1379 -1.2525
   6423SM   C4S 8220   4.360   3.357   6.887  0.1286  0.9706  0.3640
   6423SM   H4S 8221   4.465   3.328   6.871  0.7431  3.4618 -0.7026
   6423SM   C5S 8222   4.269   3.336   6.786 -0.0783  0.6663  0.1213
   6423SM   H5S 8223   4.164   3.367   6.788  0.1572  1.5982 -0.9738
   6423SM   C6S 8224   4.321   3.279   6.658 -0.2159 -0.2542  0.1679
   6423SM   H6S 8225   4.273   3.179   6.653 -3.2285  1.1071 -0.4748
   6423SM   H6T 8226   4.430   3.263   6.650 -0.3449 -2.3460  1.6257
   6423SM   C7S 8227   4.273   3.356   6.537 -0.0462  0.7804  0.4186
   6423SM   H7S 8228   4.325   3.453   6.526 -0.7551  1.1893  0.6252
   6423SM   H7T 8229   4.163   3.375   6.545  0.2145  2.0709  1.0527
   6423SM   C8S 8230   4.285   3.275   6.407 -0.6454  0.1827  0.0269
   6423SM   H8S 8231   4.257   3.168   6.409  3.1724 -1.0101 -1.6865
   6423SM   H8T 8232   4.394   3.273   6.385 -0.8969  0.0310 -1.2962
   6423SM   C9S 8233   4.217   3.339   6.289  1.0970  0.3405  0.2373
   6423SM   H9S 8234   4.237   3.448   6.280  1.1053  0.3616  0.5003
   6423SM   H9T 8235   4.110   3.335   6.319  1.6649 -0.3848  2.3455
   6423SM  C10S 8236   4.232   3.273   6.150  0.2358  0.0070  0.0130
   6423SM  H10S 8237   4.241   3.163   6.167  2.0305  0.2202  0.5838
   6423SM  H10T 8238   4.328   3.310   6.108  0.0228  0.0620 -0.4419
   6423SM  C11S 8239   4.120   3.305   6.048  0.3503 -0.3442 -0.0304
   6423SM  H11S 8240   4.107   3.414   6.028  1.5016  0.1614  1.7721
   6423SM  H11T 8241   4.024   3.263   6.087  1.7333 -2.9847  0.7538
   6423SM  C12S 8242   4.154   3.241   5.913 -0.3263 -0.0304  0.6365
   6423SM  H12S 8243   4.159   3.130   5.915  0.0426 -0.0742 -1.2437
   6423SM  H12T 8244   4.257   3.273   5.890 -0.7695  0.5517 -0.6361
   6423SM  C13S 8245   4.058   3.274   5.805 -0.0662 -0.1787 -0.1023
   6423SM  H13S 8246   3.957   3.276   5.853  0.0552  1.4860  0.1474
   6423SM  H13T 8247   4.056   3.201   5.722 -1.8986  0.5390 -0.7374
   6423SM  C14S 8248   4.091   3.411   5.753 -0.1417  0.8388  0.0369
   6423SM  H14S 8249   4.201   3.421   5.738 -0.2459  0.5376 -1.0627
   6423SM  H14T 8250   4.063   3.487   5.829 -2.2492  1.2108 -1.0266
   6423SM  C15S 8251   4.016   3.453   5.626 -0.0701 -0.2159 -0.0996
   6423SM  H15S 8252   3.909   3.470   5.652  0.3172  1.9861  0.1723
   6423SM  H15T 8253   4.011   3.365   5.557  1.4548  0.5745 -1.2803
   6423SM  C16S 8254   4.073   3.581   5.551 -0.3186  0.1824 -0.0285
   6423SM  H16S 8255   4.181   3.556   5.546 -0.0789  0.9537  0.8467
   6423SM  H16T 8256   4.066   3.666   5.623 -0.0347  0.4911 -0.3585
   6423SM  C17S 8257   4.002   3.611   5.418  0.3510 -0.3057 -0.2879
   6423SM  H17S 8258   3.991   3.511   5.370 -0.1363 -0.5440  0.3120
   6423SM  H17T 8259   4.059   3.679   5.351  0.6190  0.3044  0.5354
   6423SM  C18S 8260   3.862   3.673   5.435 -0.3110  0.3049  0.4837
   6423SM  H18S 8261   3.788   3.602   5.478  0.7365 -0.4621  1.0539
   6423SM  H18T 8262   3.837   3.712   5.334  0.4342  0.2869  0.2884
   6423SM  H18U 8263   3.861   3.764   5.499  3.3334  0.4427  0.5551
   6423SM   C1F 8264   4.541   3.722   6.915 -0.4112  0.5524 -1.1150
   6423SM    OF 8265   4.596   3.760   7.016  0.0421  0.7769  0.3165
   6423SM   C2F 8266   4.576   3.786   6.779  0.2027  0.2506  0.1970
   6423SM   H2F 8267   4.684   3.773   6.757 -0.0799 -0.3039 -0.9252
   6423SM   H2G 8268   4.536   3.889   6.787 -0.4994 -0.0550  0.7935
   6423SM   C3F 8269   4.499   3.713   6.662  0.0707  0.0943  0.3187
   6423SM   H3F 8270   4.389   3.726   6.671 -0.5620 -2.8293 -1.7233
   6423SM   H3G 8271   4.525   3.605   6.669  0.4746  0.2933  2.1847
   6423SM   C4F 8272   4.544   3.760   6.519 -0.1019  0.3529 -0.8376
   6423SM   H4F 8273   4.653   3.736   6.514 -0.3850 -0.9401 -1.0456
   6423SM   H4G 8274   4.550   3.871   6.505  0.0806  0.1684 -2.4131
   6423SM   C5F 8275   4.451   3.718   6.408  0.2631 -0.4869 -0.3996
   6423SM   H5F 8276   4.357   3.777   6.418  0.4028  0.0035 -1.7142
   6423SM   H5G 8277   4.407   3.616   6.405  0.1185 -0.4139 -0.8448
   6423SM   C6F 8278   4.509   3.737   6.266  0.0386 -0.7920  0.9043
   6423SM   H6F 8279   4.600   3.678   6.242 -0.5259 -1.0763 -0.6237
   6423SM   H6G 8280   4.522   3.847   6.256 -0.1252 -0.9829 -3.3372
   6423SM   C7F 8281   4.405   3.698   6.150 -0.7401  0.4189 -0.5979
   6423SM   H7F 8282   4.323   3.771   6.163 -0.0707  1.3080 -1.2902
   6423SM   H7G 8283   4.368   3.595   6.171  0.7131 -0.1781 -0.8223
   6423SM   C8F 8284   4.460   3.688   6.013 -0.7433 -0.1012 -0.5721
   6423SM   H8F 8285   4.540   3.612   6.013 -0.6083  0.0164  0.8065
   6423SM   H8G 8286   4.503   3.787   5.986  0.7518 -0.7908 -0.8067
   6423SM   C9F 8287   4.352   3.656   5.916  0.6483 -0.3866 -0.4559
   6423SM   H9F 8288   4.265   3.721   5.938  1.4022  1.5764 -2.7656
   6423SM   H9G 8289   4.313   3.552   5.922  2.8156 -1.3169 -1.4005
   6423SM  C10F 8290   4.391   3.694   5.772 -0.2305  0.1862 -0.2406
   6423SM  H10F 8291   4.433   3.796   5.786  1.5058 -0.6613  1.2358
   6423SM  H10G 8292   4.295   3.711   5.718 -1.1398  0.4027  1.3589
   6423SM  C11F 8293   4.490   3.592   5.712  0.3838 -0.3498 -0.0010
   6423SM  H11F 8294   4.439   3.493   5.709 -1.3162  0.2770  3.2806
   6423SM  H11G 8295   4.581   3.583   5.775  1.0865 -1.3393 -1.0994
   6423SM  C12F 8296   4.550   3.621   5.574  0.0273 -0.7416  0.8404
   6423SM  H12F 8297   4.603   3.531   5.537  0.4479 -0.6540  1.2156
   6423SM  H12G 8298   4.620   3.707   5.585  0.3140 -1.0276  1.2943
   6423SM  C13F 8299   4.448   3.649   5.460 -0.2903  0.5870  0.0927
   6423SM  H13F 8300   4.391   3.734   5.504 -2.0216 -1.3359  1.7696
   6423SM  H13G 8301   4.386   3.557   5.447  1.9871 -0.8979 -0.9469
   6423SM  C14F 8302   4.512   3.690   5.321  0.5392  0.2813  0.0846
   6423SM  H14F 8303   4.580   3.612   5.281 -0.6801 -0.7967  0.0620
   6423SM  H14G 8304   4.566   3.786   5.339  0.6832  0.1045  0.6231
   6423SM  C15F 8305   4.397   3.718   5.220 -0.0433  0.5167  0.3571
   6423SM  H15F 8306   4.326   3.797   5.253 -0.2660  1.3724 -1.9423
   6423SM  H15G 8307   4.346   3.620   5.214  0.2686  0.2152  2.1992
   6423SM  C16F 8308   4.425   3.746   5.069  0.2468 -0.5137 -0.1897
   6423SM  H16F 8309   4.491   3.664   5.032 -0.1320  0.7648 -4.1854
   6423SM  H16G 8310   4.480   3.842   5.056 -1.9855  0.7209 -1.0085
   6423SM  C17F 8311   4.302   3.736   4.986 -0.7585  0.3495 -0.1130
   6423SM  H17F 8312   4.221   3.784   5.045 -0.5756  0.0031  0.4262
   6423SM  H17G 8313   4.274   3.629   4.987 -0.5161  0.2628  1.7339
   6423SM  C18F 8314   4.326   3.779   4.839 -0.1348 -0.8746  0.4918
   6423SM  H18F 8315   4.424   3.748   4.798  0.8242  2.9254 -0.4370
   6423SM  H18G 8316   4.325   3.890   4.843  0.9386 -0.8316 -0.1557
   6423SM  C19F 8317   4.213   3.738   4.747  0.1685 -0.1294  1.2101
   6423SM  H19F 8318   4.122   3.782   4.794  0.1297  2.3814 -0.9924
   6423SM  H19G 8319   4.219   3.628   4.736  0.7715  0.1381 -2.2642
   6423SM  C20F 8320   4.237   3.807   4.614  0.5035  0.1059  0.4639
   6423SM  H20F 8321   4.346   3.822   4.596  0.2036  2.7935  0.5759
   6423SM  H20G 8322   4.186   3.905   4.608  0.4312 -0.0081 -1.1560
   6423SM  C21F 8323   4.193   3.720   4.497 -0.2360  0.8710  0.1362
   6423SM  H21F 8324   4.088   3.685   4.509  0.6210 -1.5497  1.3758
   6423SM  H21G 8325   4.243   3.621   4.503 -0.9958  0.3720 -1.3271
   6423SM  C22F 8326   4.237   3.794   4.371 -0.3428  0.0434 -0.2302
   6423SM  H22F 8327   4.348   3.804   4.367 -0.1215 -2.2422 -2.8250
   6423SM  H22G 8328   4.185   3.892   4.380  4.8326  3.0316  1.4125
   6423SM  C23F 8329   4.201   3.720   4.239  0.3275 -0.1310  0.3004
   6423SM  H23F 8330   4.223   3.795   4.160  0.5162  0.9761  1.3747
   6423SM  H23G 8331   4.101   3.671   4.237  0.0055  0.4666 -2.3617
   6423SM  H23H 8332   4.261   3.627   4.237 -2.0445 -1.7678  0.8571
   6523SM     N 8333   5.301   3.882   7.875 -0.0351  0.4177 -0.0205
   6523SM   C15 8334   5.202   3.765   7.896  0.6990 -0.4475 -0.2177
   6523SM  H15A 8335   5.194   3.743   8.002 -1.0716 -2.0752 -0.6338
   6523SM  H15B 8336   5.241   3.682   7.840  1.2495  0.9498 -2.0002
   6523SM  H15C 8337   5.105   3.789   7.854  0.1427  0.9931  1.7479
   6523SM   C14 8338   5.300   3.901   7.727 -0.3762  0.0783 -0.7530
   6523SM  H14A 8339   5.197   3.921   7.702 -1.2456 -0.9095  1.6724
   6523SM  H14B 8340   5.333   3.814   7.672  0.4367  0.6060 -1.1061
   6523SM  H14C 8341   5.368   3.979   7.699  2.4024 -2.0658 -0.4262
   6523SM   C13 8342   5.237   4.002   7.941  0.4550  0.1418 -0.8012
   6523SM  H13A 8343   5.207   3.984   8.043  0.8740  0.2327 -0.6549
   6523SM  H13B 8344   5.142   4.021   7.894  0.3285  0.7243 -0.3191
   6523SM  H13C 8345   5.299   4.091   7.939  0.6701 -0.0124 -1.4511
   6523SM   C12 8346   5.444   3.853   7.928 -0.3747  0.5519  0.5420
   6523SM  H12A 8347   5.448   3.852   8.036  1.9146 -1.1471  0.5240
   6523SM  H12B 8348   5.508   3.928   7.884  0.2807 -1.5123 -2.3468
   6523SM   C11 8349   5.513   3.724   7.879 -0.3624  0.2433  0.1696
   6523SM  H11A 8350   5.617   3.714   7.918  0.4802 -2.9520 -2.4794
   6523SM  H11B 8351   5.526   3.728   7.768  3.6014 -3.9166  0.1745
   6523SM     P 8352   5.452   3.472   7.846 -0.5318 -0.3233 -0.4672
   6523SM   O13 8353   5.578   3.406   7.886  0.0292  0.7449 -0.5809
   6523SM   O14 8354   5.324   3.395   7.861 -0.4838 -0.3381 -0.1741
   6523SM   O11 8355   5.462   3.505   7.696  0.4032  0.2125 -0.2963
   6523SM   O12 8356   5.435   3.619   7.911 -0.5862 -0.0846  0.5762
   6523SM   C1S 8357   5.359   3.521   7.606 -0.2071 -0.3018 -0.2095
   6523SM   H1S 8358   5.292   3.598   7.650 -0.1526  0.8293 -2.0245
   6523SM   H1T 8359   5.314   3.419   7.601  0.2160 -0.6652  2.1626
   6523SM    NF 8360   5.298   3.579   7.379  0.0909 -0.3993  0.4087
   6523SM   HNF 8361   5.263   3.494   7.341 -2.1884  0.0985  1.1994
   6523SM   C2S 8362   5.411   3.564   7.466  0.3730 -0.2266  0.0613
   6523SM   H2S 8363   5.472   3.655   7.485 -2.2052  1.5748  0.2755
   6523SM   C3S 8364   5.507   3.455   7.415 -0.7359  0.5385  0.5105
   6523SM   H3S 8365   5.461   3.354   7.419  0.8728 -0.1955  1.8715
   6523SM    O3 8366   5.622   3.439   7.499  0.4193  0.0049  0.1602
   6523SM   HO3 8367   5.586   3.469   7.583 -0.8408 -0.9233 -0.0134
   6523SM   C4S 8368   5.560   3.479   7.281 -0.3666 -0.1131  0.2935
   6523SM   H4S 8369   5.609   3.577   7.277  1.3648 -0.9257  0.6248
   6523SM   C5S 8370   5.552   3.387   7.181  0.0434 -0.3489  0.1647
   6523SM   H5S 8371   5.501   3.292   7.202  0.8561 -1.0072 -0.7212
   6523SM   C6S 8372   5.598   3.412   7.041 -0.7472  0.9693 -0.3053
   6523SM   H6S 8373   5.661   3.326   7.010 -0.7841 -0.1404  2.4167
   6523SM   H6T 8374   5.674   3.493   7.035 -1.1455  1.2396 -2.3059
   6523SM   C7S 8375   5.494   3.442   6.935  0.4492 -0.2025 -0.1055
   6523SM   H7S 8376   5.443   3.533   6.975  4.0534  0.2942  4.2396
   6523SM   H7T 8377   5.418   3.361   6.932 -0.7111  0.6395  2.7037
   6523SM   C8S 8378   5.552   3.464   6.796 -0.0873  0.0762  0.1640
   6523SM   H8S 8379   5.600   3.372   6.758  0.2960 -0.0202  0.8543
   6523SM   H8T 8380   5.624   3.548   6.800 -0.5934  0.5215  0.0478
   6523SM   C9S 8381   5.437   3.515   6.698 -0.3147  0.3996 -0.0332
   6523SM   H9S 8382   5.378   3.599   6.742  0.2966  1.1635 -0.6483
   6523SM   H9T 8383   5.369   3.428   6.682  0.9194 -0.0896 -3.5539
   6523SM  C10S 8384   5.498   3.558   6.566 -0.1562 -0.3928  0.1002
   6523SM  H10S 8385   5.598   3.603   6.586  0.0436 -1.4787  1.7132
   6523SM  H10T 8386   5.436   3.637   6.520 -0.5287  1.5685  3.6144
   6523SM  C11S 8387   5.518   3.439   6.474  0.5649 -0.1016  0.1150
   6523SM  H11S 8388   5.567   3.352   6.522 -0.2491 -0.7805 -0.2504
   6523SM  H11T 8389   5.570   3.471   6.381 -0.6325  0.6499 -0.3217
   6523SM  C12S 8390   5.386   3.385   6.420 -0.0334 -0.1087 -0.3521
   6523SM  H12S 8391   5.323   3.465   6.377 -0.3228 -0.5643 -0.7809
   6523SM  H12T 8392   5.327   3.343   6.504  1.3732 -0.7985  0.3181
   6523SM  C13S 8393   5.414   3.284   6.308  0.1956  0.4776  0.3552
   6523SM  H13S 8394   5.460   3.198   6.362 -0.4276 -0.7382 -0.9698
   6523SM  H13T 8395   5.474   3.333   6.229 -2.9843  1.0798 -1.8845
   6523SM  C14S 8396   5.289   3.237   6.244  1.1993 -0.0037 -0.1478
   6523SM  H14S 8397   5.206   3.302   6.278  1.8798 -0.1910  2.0125
   6523SM  H14T 8398   5.270   3.140   6.294 -2.3929  0.3918 -0.5043
   6523SM  C15S 8399   5.289   3.209   6.093  0.3551  0.5601  0.2307
   6523SM  H15S 8400   5.339   3.112   6.076  0.9300  0.3665  2.6074
   6523SM  H15T 8401   5.344   3.290   6.042  3.2064 -0.9422  0.7333
   6523SM  C16S 8402   5.147   3.182   6.040  0.6315 -0.0081  0.0654
   6523SM  H16S 8403   5.089   3.276   6.052  1.4202  0.5856 -0.5707
   6523SM  H16T 8404   5.102   3.108   6.108  1.4252 -1.1842 -0.6472
   6523SM  C17S 8405   5.159   3.128   5.895  0.3060  0.1682  0.0529
   6523SM  H17S 8406   5.075   3.057   5.886  1.9690 -2.0471  1.1252
   6523SM  H17T 8407   5.250   3.066   5.879 -1.3637 -2.4024 -0.1506
   6523SM  C18S 8408   5.147   3.232   5.778 -0.1555  0.1535  0.0090
   6523SM  H18S 8409   5.062   3.300   5.796 -2.2107 -2.6159  1.6180
   6523SM  H18T 8410   5.129   3.176   5.683 -2.4989  0.4078  0.2619
   6523SM  H18U 8411   5.230   3.306   5.774  0.6040 -0.4862  2.3597
   6523SM   C1F 8412   5.235   3.694   7.363 -0.3893  0.3135 -0.5675
   6523SM    OF 8413   5.263   3.782   7.440 -0.0820 -0.0065 -0.2491
   6523SM   C2F 8414   5.136   3.713   7.248  0.2135  0.8616 -0.1638
   6523SM   H2F 8415   5.036   3.681   7.286  0.9787 -0.8359  0.4874
   6523SM   H2G 8416   5.163   3.656   7.157  0.6288  0.5085  0.1760
   6523SM   C3F 8417   5.110   3.860   7.209  0.3555 -1.3165  0.0060
   6523SM   H3F 8418   5.209   3.908   7.191 -0.0322 -1.2076 -2.1188
   6523SM   H3G 8419   5.056   3.925   7.280  1.2020  0.3252 -0.8043
   6523SM   C4F 8420   5.023   3.870   7.083  0.4578 -0.7503  0.1010
   6523SM   H4F 8421   4.927   3.814   7.089 -1.0165  1.6729  0.8195
   6523SM   H4G 8422   5.081   3.823   7.001 -1.0650  0.9200 -2.0651
   6523SM   C5F 8423   4.994   4.015   7.037  0.0819  0.1831  0.0863
   6523SM   H5F 8424   5.073   4.091   7.050 -1.4894  1.9525 -0.1743
   6523SM   H5G 8425   4.919   4.045   7.113  0.4873 -1.8456  1.3731
   6523SM   C6F 8426   4.931   4.015   6.894 -0.3238  0.1867  0.4223
   6523SM   H6F 8427   4.837   3.957   6.902  0.1481 -0.7817 -0.7731
   6523SM   H6G 8428   5.006   3.982   6.818 -0.8144 -0.1188  0.0623
   6523SM   C7F 8429   4.883   4.158   6.849  0.4871 -0.2956 -0.6277
   6523SM   H7F 8430   4.955   4.230   6.891  0.8071 -0.3611 -1.0530
   6523SM   H7G 8431   4.792   4.191   6.902  2.4512  1.6360  1.7521
   6523SM   C8F 8432   4.877   4.176   6.697 -0.4270 -0.4464 -1.0822
   6523SM   H8F 8433   4.971   4.136   6.652  0.3825  0.2319 -0.0674
   6523SM   H8G 8434   4.869   4.286   6.680 -0.0044  0.0659  1.6206
   6523SM   C9F 8435   4.751   4.114   6.633 -0.1670 -0.0109 -0.2814
   6523SM   H9F 8436   4.662   4.162   6.680  0.5444 -1.0147  2.2395
   6523SM   H9G 8437   4.755   4.004   6.646 -1.2588 -0.0518 -0.1868
   6523SM  C10F 8438   4.748   4.122   6.481 -0.2030  0.2452 -0.4325
   6523SM  H10F 8439   4.664   4.055   6.453  0.9120 -0.4386 -2.3377
   6523SM  H10G 8440   4.839   4.081   6.433  0.3121 -0.6666  1.2500
   6523SM  C11F 8441   4.713   4.264   6.431  0.2714  0.1068  0.7210
   6523SM  H11F 8442   4.777   4.335   6.489 -0.0502  0.4562  0.6516
   6523SM  H11G 8443   4.609   4.282   6.465  0.0142 -0.2294  0.1206
   6523SM  C12F 8444   4.751   4.304   6.284 -0.8539 -0.1410 -0.4489
   6523SM  H12F 8445   4.850   4.263   6.256 -0.1134  1.2799 -0.0152
   6523SM  H12G 8446   4.745   4.414   6.267  2.0610  0.2210  0.3439
   6523SM  C13F 8447   4.653   4.235   6.185  0.0633 -0.0856 -0.1688
   6523SM  H13F 8448   4.550   4.266   6.213  0.4067  0.5889  0.3657
   6523SM  H13G 8449   4.661   4.125   6.193  2.3065 -0.0235 -0.9773
   6523SM  C14F 8450   4.685   4.280   6.041 -0.1126  0.1673  0.1275
   6523SM  H14F 8451   4.778   4.246   5.990  0.9438  1.8279  0.8689
   6523SM  H14G 8452   4.687   4.390   6.030  1.2472  0.2014  0.5678
   6523SM  C15F 8453   4.567   4.246   5.943  0.3307 -0.3173 -0.3300
   6523SM  H15F 8454   4.480   4.309   5.973  0.8781 -0.5635  1.9282
   6523SM  H15G 8455   4.537   4.140   5.951 -2.5961  0.4753  0.3371
   6523SM  C16F 8456   4.599   4.263   5.797  0.0833  0.0369  0.7566
   6523SM  H16F 8457   4.689   4.204   5.772 -1.0203 -1.3787 -0.0091
   6523SM  H16G 8458   4.633   4.367   5.776  0.5529 -0.4451 -1.0113
   6523SM  C17F 8459   4.480   4.228   5.707  0.3801  0.4853 -0.3247
   6523SM  H17F 8460   4.393   4.292   5.731  0.6974  1.8051 -2.3962
   6523SM  H17G 8461   4.455   4.120   5.721  2.0458  0.3156  2.0091
   6523SM  C18F 8462   4.503   4.255   5.553 -0.0423  0.1148 -0.2342
   6523SM  H18F 8463   4.587   4.192   5.517 -0.6756 -0.1071 -1.3513
   6523SM  H18G 8464   4.528   4.362   5.538 -1.6654  0.5155 -0.2536
   6523SM  C19F 8465   4.375   4.220   5.471 -0.0007  0.2035 -0.7709
   6523SM  H19F 8466   4.288   4.282   5.499 -0.5516 -0.7220 -0.3740
   6523SM  H19G 8467   4.335   4.121   5.503 -2.0224  1.9143  2.4217
   6523SM  C20F 8468   4.400   4.224   5.324  0.2464  0.0844  0.0317
   6523SM  H20F 8469   4.502   4.183   5.305 -0.2637 -1.0945 -0.2213
   6523SM  H20G 8470   4.399   4.330   5.290 -0.9378 -0.0701 -0.4634
   6523SM  C21F 8471   4.295   4.143   5.245  0.2460  0.5398  0.2994
   6523SM  H21F 8472   4.198   4.182   5.283  0.2955  0.9536  0.0031
   6523SM  H21G 8473   4.300   4.036   5.277 -0.9044  0.8357  1.5863
   6523SM  C22F 8474   4.301   4.154   5.099  0.7911 -0.4941 -0.0198
   6523SM  H22F 8475   4.235   4.070   5.066 -0.8343 -0.4581  2.8773
   6523SM  H22G 8476   4.401   4.135   5.054 -0.3332  1.3836 -3.7444
   6523SM  C23F 8477   4.245   4.277   5.031 -0.2713  0.3167  0.2431
   6523SM  H23F 8478   4.318   4.360   5.028  3.0484 -2.4303 -1.3173
   6523SM  H23G 8479   4.157   4.313   5.089 -1.2474 -0.9039 -0.4011
   6523SM  H23H 8480   4.218   4.251   4.926  0.0065 -0.0952  0.2700
   6623SM     N 8481   3.038   2.156   7.833 -0.4915  0.1524  0.3158
   6623SM   C15 8482   2.988   2.227   7.953  0.1763 -0.0733 -0.0118
   6623SM  H15A 8483   2.950   2.161   8.030 -0.0765 -1.2050 -1.0838
   6623SM  H15B 8484   2.920   2.304   7.921  1.8834  0.9926 -1.2953
   6623SM  H15C 8485   3.068   2.279   8.005 -0.1963  1.7371 -1.1974
   6623SM   C14 8486   3.164   2.094   7.871 -0.1429  0.0508 -0.6833
   6623SM  H14A 8487   3.233   2.164   7.916 -0.6244  0.1793 -0.1202
   6623SM  H14B 8488   3.216   2.064   7.782 -1.1653 -1.6887 -0.7338
   6623SM  H14C 8489   3.158   2.012   7.941 -1.2141  1.4417  0.9472
   6623SM   C13 8490   2.940   2.053   7.794  0.4600  0.3012  0.0438
   6623SM  H13A 8491   2.845   2.097   7.770  0.3681 -1.0524 -2.4959
   6623SM  H13B 8492   2.915   1.989   7.877  0.3309  1.6361  1.0626
   6623SM  H13C 8493   2.963   1.995   7.705 -1.6947  0.9305 -0.9885
   6623SM   C12 8494   3.051   2.246   7.711  0.3944  0.4251 -0.2334
   6623SM  H12A 8495   3.106   2.335   7.738  0.3891  0.7997 -1.3934
   6623SM  H12B 8496   2.952   2.284   7.688 -1.4132 -2.8237  1.4260
   6623SM   C11 8497   3.114   2.181   7.578  0.4331 -0.1711  0.2705
   6623SM  H11A 8498   3.109   2.247   7.489 -1.6145  0.7847  1.0335
   6623SM  H11B 8499   3.051   2.093   7.552 -0.1508 -0.0238  1.1307
   6623SM     P 8500   3.371   2.218   7.538 -0.3466  0.4034 -0.2098
   6623SM   O13 8501   3.336   2.362   7.556  0.0847  0.2026  0.2675
   6623SM   O14 8502   3.493   2.168   7.605 -0.0881  0.6482 -0.1850
   6623SM   O11 8503   3.373   2.175   7.381  0.2148  0.3418  0.0136
   6623SM   O12 8504   3.253   2.144   7.600 -0.0721  0.3341  0.0514
   6623SM   C1S 8505   3.265   2.131   7.297 -0.1327 -0.6111 -0.2351
   6623SM   H1S 8506   3.200   2.218   7.277  1.4577  0.7926  0.3914
   6623SM   H1T 8507   3.215   2.049   7.352 -0.1239  0.1580  0.9419
   6623SM    NF 8508   3.188   2.033   7.077 -0.5126 -0.5046  0.2771
   6623SM   HNF 8509   3.173   1.940   7.045  0.6305 -0.4279 -0.5252
   6623SM   C2S 8510   3.307   2.079   7.158  1.2326  0.2264  0.3887
   6623SM   H2S 8511   3.349   2.169   7.108  1.0813 -1.1109 -2.3204
   6623SM   C3S 8512   3.425   1.986   7.173 -0.4655  1.0857  1.1576
   6623SM   H3S 8513   3.394   1.900   7.235 -1.7747  0.4411 -0.3266
   6623SM    O3 8514   3.541   2.039   7.231 -0.3453 -0.0008  0.3089
   6623SM   HO3 8515   3.518   2.126   7.264  0.0664 -0.0372  0.7090
   6623SM   C4S 8516   3.474   1.951   7.038 -0.0321  0.4141 -0.0040
   6623SM   H4S 8517   3.508   2.036   6.978 -0.4923  1.9194  1.7502
   6623SM   C5S 8518   3.474   1.832   6.983 -0.3900  0.6665 -0.2341
   6623SM   H5S 8519   3.455   1.746   7.049  1.0673  1.3138  1.1007
   6623SM   C6S 8520   3.516   1.788   6.843 -0.1914 -0.4893 -0.2510
   6623SM   H6S 8521   3.433   1.723   6.807 -1.4499  0.8920  0.0772
   6623SM   H6T 8522   3.608   1.726   6.845 -0.1041 -0.3588 -0.2786
   6623SM   C7S 8523   3.537   1.903   6.738  0.2981 -0.3116 -0.1740
   6623SM   H7S 8524   3.639   1.939   6.760  0.4661 -0.5737 -0.5115
   6623SM   H7T 8525   3.466   1.987   6.754  1.4888  0.7451 -0.2781
   6623SM   C8S 8526   3.536   1.836   6.602  0.2001  0.4013  0.0751
   6623SM   H8S 8527   3.436   1.793   6.580  0.0196  0.1769  1.2652
   6623SM   H8T 8528   3.612   1.757   6.585 -0.5232 -0.6771  1.5607
   6623SM   C9S 8529   3.557   1.942   6.497 -0.0317  0.2236 -0.2072
   6623SM   H9S 8530   3.654   1.997   6.503  0.4873 -0.8116  1.4288
   6623SM   H9T 8531   3.472   2.012   6.504  0.1977  0.3829  1.3739
   6623SM  C10S 8532   3.545   1.883   6.354 -0.4323  0.4290  0.6441
   6623SM  H10S 8533   3.450   1.828   6.340  1.1150 -1.9211 -1.7905
   6623SM  H10T 8534   3.629   1.811   6.338  0.6465  2.0158 -1.3584
   6623SM  C11S 8535   3.554   1.990   6.248  0.2867 -0.1383  0.4663
   6623SM  H11S 8536   3.649   2.047   6.260  0.3818 -0.3738  0.8555
   6623SM  H11T 8537   3.475   2.066   6.264 -0.5599 -0.6414 -1.0819
   6623SM  C12S 8538   3.527   1.941   6.103 -0.3953 -0.1833 -0.8273
   6623SM  H12S 8539   3.433   1.884   6.112  1.2039 -2.6576  1.5659
   6623SM  H12T 8540   3.609   1.870   6.079 -1.4787 -0.5984 -3.7662
   6623SM  C13S 8541   3.526   2.054   6.011  0.3149 -0.6884  0.5000
   6623SM  H13S 8542   3.622   2.109   6.008  0.0970 -0.3116 -1.5237
   6623SM  H13T 8543   3.452   2.127   6.047 -0.8173 -0.7392 -1.5377
   6623SM  C14S 8544   3.500   2.031   5.858  0.5017  0.1702 -0.5982
   6623SM  H14S 8545   3.403   1.979   5.847 -0.0774  1.1431 -0.1907
   6623SM  H14T 8546   3.576   1.966   5.810  1.4173 -0.9361  2.1545
   6623SM  C15S 8547   3.510   2.157   5.773  0.1789  0.5599  0.0032
   6623SM  H15S 8548   3.611   2.202   5.786 -0.0705  0.9501  0.6089
   6623SM  H15T 8549   3.445   2.234   5.819  0.1358  0.4258  0.1676
   6623SM  C16S 8550   3.473   2.125   5.629 -0.3904 -0.5384  0.4154
   6623SM  H16S 8551   3.375   2.073   5.633  0.1695 -1.7250 -0.6652
   6623SM  H16T 8552   3.544   2.054   5.583  1.5962  0.0338  2.4279
   6623SM  C17S 8553   3.451   2.259   5.556  0.4535  0.1780  0.2896
   6623SM  H17S 8554   3.541   2.319   5.579  0.5456  0.2381 -0.2234
   6623SM  H17T 8555   3.361   2.317   5.587  0.9276  1.4504 -0.6356
   6623SM  C18S 8556   3.448   2.236   5.403 -0.0730 -0.1877 -0.0114
   6623SM  H18S 8557   3.556   2.239   5.380  0.4420 -3.5495  1.3550
   6623SM  H18T 8558   3.399   2.326   5.360 -0.2115 -0.6731 -0.8989
   6623SM  H18U 8559   3.399   2.143   5.365 -0.9966  0.3315 -0.1215
   6623SM   C1F 8560   3.100   2.119   7.030  0.1254  0.6173 -0.5085
   6623SM    OF 8561   3.119   2.234   7.039 -0.4181 -0.5425 -0.6427
   6623SM   C2F 8562   2.984   2.057   6.956  0.0837 -0.2945 -0.2610
   6623SM   H2F 8563   2.897   2.124   6.970  0.3940  0.3436 -1.2485
   6623SM   H2G 8564   2.964   1.954   6.993  0.7908 -0.0371  0.8913
   6623SM   C3F 8565   3.006   2.064   6.802 -0.3758 -0.3013  0.1442
   6623SM   H3F 8566   3.026   2.169   6.771 -1.4164  0.3796  1.6472
   6623SM   H3G 8567   2.909   2.030   6.758 -1.2955 -0.6208  2.2619
   6623SM   C4F 8568   3.117   1.968   6.745 -0.5826 -0.0328 -0.2544
   6623SM   H4F 8569   3.063   1.871   6.731  2.5021 -2.0953  0.9609
   6623SM   H4G 8570   3.200   1.951   6.816  1.0457  1.9544 -1.5719
   6623SM   C5F 8571   3.192   2.015   6.615  0.3509  0.2597  0.7001
   6623SM   H5F 8572   3.268   1.937   6.595 -0.0452 -0.5337  2.1732
   6623SM   H5G 8573   3.258   2.101   6.641 -0.8229  1.1859  0.7006
   6623SM   C6F 8574   3.099   2.033   6.493  0.7357 -0.0431  0.1151
   6623SM   H6F 8575   3.042   2.127   6.508  0.5896  0.1207 -1.3269
   6623SM   H6G 8576   3.023   1.953   6.510 -0.0048  0.7260  0.4986
   6623SM   C7F 8577   3.174   2.031   6.363  0.0174  0.5734  0.0447
   6623SM   H7F 8578   3.225   1.932   6.361 -2.0506 -0.5477  0.3383
   6623SM   H7G 8579   3.263   2.097   6.358  1.5250 -1.3752 -0.2597
   6623SM   C8F 8580   3.083   2.033   6.236  0.0874 -0.1507  0.3358
   6623SM   H8F 8581   3.026   2.127   6.252  0.9599  1.0116 -2.7626
   6623SM   H8G 8582   3.018   1.943   6.230 -2.7806  1.8675 -1.2878
   6623SM   C9F 8583   3.170   2.034   6.118 -0.2140  0.0719 -0.5308
   6623SM   H9F 8584   3.229   1.941   6.106 -0.0707  0.4111 -3.0195
   6623SM   H9G 8585   3.245   2.113   6.138 -0.5341  0.3161 -0.2784
   6623SM  C10F 8586   3.094   2.074   5.984 -0.4191  0.2974 -0.0709
   6623SM  H10F 8587   3.163   2.129   5.917 -1.2526  2.0031  0.3820
   6623SM  H10G 8588   3.005   2.140   5.996  0.1883  1.0169  0.6733
   6623SM  C11F 8589   3.062   1.934   5.915 -0.5276 -0.2593  0.2052
   6623SM  H11F 8590   2.986   1.889   5.984  0.3986  1.0510  2.1617
   6623SM  H11G 8591   3.158   1.881   5.901 -0.1030  0.3720  0.6788
   6623SM  C12F 8592   2.994   1.945   5.780 -0.3028  0.2210 -0.4162
   6623SM  H12F 8593   2.895   1.997   5.777 -0.4147  0.0312 -3.4682
   6623SM  H12G 8594   2.965   1.844   5.745 -0.7809 -0.1194  0.9038
   6623SM  C13F 8595   3.084   2.026   5.677  0.3746  0.3867  0.1276
   6623SM  H13F 8596   3.181   1.972   5.667 -0.3540 -1.1771  1.0655
   6623SM  H13G 8597   3.114   2.128   5.711 -0.1944  0.1491  1.4112
   6623SM  C14F 8598   3.025   2.021   5.534  0.1931  0.8008  0.0291
   6623SM  H14F 8599   3.096   2.072   5.467  1.6133  0.2269  1.0496
   6623SM  H14G 8600   2.931   2.080   5.532 -0.3338 -0.0206 -0.2456
   6623SM  C15F 8601   2.982   1.884   5.487  0.5203 -0.4347 -0.1135
   6623SM  H15F 8602   2.909   1.836   5.556  1.0865  1.2133  1.7276
   6623SM  H15G 8603   3.074   1.822   5.484  0.8962  0.0769 -3.3251
   6623SM  C16F 8604   2.932   1.886   5.349  0.1742 -0.3638  0.2527
   6623SM  H16F 8605   3.015   1.910   5.279 -2.0110  1.2328 -2.0096
   6623SM  H16G 8606   2.861   1.971   5.338  0.1559 -0.3640  0.3730
   6623SM  C17F 8607   2.866   1.751   5.300 -0.3492  0.5636 -0.3570
   6623SM  H17F 8608   2.786   1.710   5.366  1.3510 -3.4193 -0.5013
   6623SM  H17G 8609   2.945   1.674   5.291 -0.1415  0.1461  3.5132
   6623SM  C18F 8610   2.813   1.771   5.161  0.2558  0.6260  0.1350
   6623SM  H18F 8611   2.893   1.787   5.086 -0.0659  2.1444  0.0811
   6623SM  H18G 8612   2.754   1.865   5.156 -0.7665 -0.0611 -1.4563
   6623SM  C19F 8613   2.709   1.663   5.113 -0.3129  0.6332  0.6209
   6623SM  H19F 8614   2.633   1.632   5.188  1.0054 -2.4408  0.8357
   6623SM  H19G 8615   2.760   1.572   5.076 -2.5369 -0.4737  0.1000
   6623SM  C20F 8616   2.630   1.730   5.004  0.0833  0.2282  0.4263
   6623SM  H20F 8617   2.694   1.734   4.914 -1.0320 -0.5961 -0.4309
   6623SM  H20G 8618   2.598   1.832   5.033  1.3391  0.2396  1.8791
   6623SM  C21F 8619   2.501   1.655   4.956  0.4244 -0.1969  0.1579
   6623SM  H21F 8620   2.451   1.598   5.037 -0.8610 -0.3571 -0.7125
   6623SM  H21G 8621   2.521   1.584   4.873 -0.5221 -0.1878 -0.0980
   6623SM  C22F 8622   2.413   1.758   4.887  0.2886  0.0849 -0.2227
   6623SM  H22F 8623   2.470   1.820   4.815 -1.5129  1.0205 -0.8879
   6623SM  H22G 8624   2.371   1.822   4.967 -0.0628  1.5473 -1.5404
   6623SM  C23F 8625   2.283   1.710   4.818  0.4491  0.4257 -0.4153
   6623SM  H23F 8626   2.310   1.642   4.736  1.7800 -1.3768  1.4137
   6623SM  H23G 8627   2.218   1.793   4.783  2.3674  2.3348  0.3231
   6623SM  H23H 8628   2.226   1.647   4.889  1.0246 -1.5503 -1.6452
   6723SM     N 8629   3.838   6.465   7.059  0.6503 -0.4734 -0.2156
   6723SM   C15 8630   3.704   6.404   7.048 -0.1784  0.4249 -0.4189
   6723SM  H15A 8631   3.718   6.300   7.026 -3.8289 -0.7907  2.0602
   6723SM  H15B 8632   3.645   6.447   6.969  1.3326  3.2031 -0.1878
   6723SM  H15C 8633   3.661   6.406   7.147  1.4489 -0.6221  0.3440
   6723SM   C14 8634   3.830   6.599   6.983 -0.1252  0.5555  0.5771
   6723SM  H14A 8635   3.769   6.670   7.037  3.0299  1.1840  3.6557
   6723SM  H14B 8636   3.782   6.589   6.886  0.2166 -0.1723  0.4790
   6723SM  H14C 8637   3.928   6.644   6.976  0.7057 -1.3197 -1.2594
   6723SM   C13 8638   3.874   6.490   7.201 -0.0848  0.3096 -0.1537
   6723SM  H13A 8639   3.977   6.523   7.207 -0.3828  1.0429  1.6899
   6723SM  H13B 8640   3.870   6.396   7.254  0.4036  0.4217  0.0868
   6723SM  H13C 8641   3.810   6.561   7.252  1.1471  0.5137  1.1698
   6723SM   C12 8642   3.934   6.371   6.995  0.4476  0.4449 -0.1873
   6723SM  H12A 8643   4.034   6.413   6.999  0.2909  0.7253  2.0620
   6723SM  H12B 8644   3.921   6.361   6.888  2.5266  0.2754 -0.4698
   6723SM   C11 8645   3.952   6.232   7.058 -0.8123 -0.0491 -0.4805
   6723SM  H11A 8646   3.950   6.224   7.169  4.5205  0.2916 -0.0702
   6723SM  H11B 8647   4.055   6.204   7.026 -0.2118  1.8719 -0.3957
   6723SM     P 8648   3.861   5.990   7.028  0.3225 -0.3183  0.2955
   6723SM   O13 8649   3.957   5.955   7.134  0.0482  0.5628 -0.1044
   6723SM   O14 8650   3.727   5.931   7.037  0.1622 -0.3565  0.1659
   6723SM   O11 8651   3.920   5.951   6.893  0.1263  0.3245  0.2496
   6723SM   O12 8652   3.849   6.144   7.012 -0.3728  0.4812 -0.6694
   6723SM   C1S 8653   3.887   5.989   6.757  0.4552 -0.3354  0.6117
   6723SM   H1S 8654   3.841   6.090   6.752  1.8250  0.2830 -0.0947
   6723SM   H1T 8655   3.815   5.924   6.704 -1.1647  2.3666 -0.7228
   6723SM    NF 8656   3.990   6.030   6.527  0.0484 -0.5142 -0.0945
   6723SM   HNF 8657   4.034   5.970   6.461  1.5393 -0.8407  1.1568
   6723SM   C2S 8658   4.013   6.016   6.673  0.6872  0.3713 -0.2180
   6723SM   H2S 8659   4.061   6.107   6.716 -0.0345  0.8133 -0.3312
   6723SM   C3S 8660   4.116   5.893   6.681 -0.7147 -0.0799  0.5360
   6723SM   H3S 8661   4.072   5.824   6.605  0.9315 -0.1606 -0.3967
   6723SM    O3 8662   4.117   5.823   6.807  0.2589  1.2447  0.1162
   6723SM   HO3 8663   4.043   5.860   6.856 -0.0820  0.2275  0.3936
   6723SM   C4S 8664   4.258   5.932   6.633  0.7813 -0.1627  0.7328
   6723SM   H4S 8665   4.284   5.893   6.534 -0.0479 -0.4700  0.6276
   6723SM   C5S 8666   4.348   6.004   6.702  0.1212 -0.5165  0.2850
   6723SM   H5S 8667   4.324   6.035   6.805  2.2262 -0.3524  0.7768
   6723SM   C6S 8668   4.485   6.026   6.652 -0.2346 -0.0057  0.1939
   6723SM   H6S 8669   4.562   5.970   6.710  0.6039  2.2092  1.3421
   6723SM   H6T 8670   4.521   6.129   6.676  1.3457  0.0993 -2.2855
   6723SM   C7S 8671   4.500   6.006   6.501 -0.3780 -0.0103 -0.1437
   6723SM   H7S 8672   4.409   6.046   6.451 -3.0872 -3.2993  1.7133
   6723SM   H7T 8673   4.498   5.899   6.472 -2.6155  0.3885 -1.7047
   6723SM   C8S 8674   4.639   6.069   6.452 -0.2484  0.3668 -0.0138
   6723SM   H8S 8675   4.714   6.047   6.530 -1.7143  0.4117  1.4575
   6723SM   H8T 8676   4.624   6.179   6.451 -2.6860  0.1304  1.1401
   6723SM   C9S 8677   4.674   5.998   6.319  0.0595 -0.7294  0.3749
   6723SM   H9S 8678   4.587   6.007   6.251  1.3033  2.1113 -1.0241
   6723SM   H9T 8679   4.707   5.893   6.333  4.2196 -0.1543 -2.9158
   6723SM  C10S 8680   4.790   6.060   6.253  0.0315  0.7381  0.4884
   6723SM  H10S 8681   4.878   6.042   6.318  0.7534  0.3303 -0.5616
   6723SM  H10T 8682   4.770   6.168   6.238 -1.5875  0.4632  0.4652
   6723SM  C11S 8683   4.830   5.989   6.120  0.8505  0.1168 -0.8481
   6723SM  H11S 8684   4.755   6.023   6.045  0.9731  1.5810 -0.3278
   6723SM  H11T 8685   4.834   5.880   6.139  1.3282  0.3883  0.7653
   6723SM  C12S 8686   4.966   6.027   6.066 -0.1357 -0.4503  0.3260
   6723SM  H12S 8687   5.041   6.010   6.147  0.3731  4.3869  1.1679
   6723SM  H12T 8688   4.975   6.133   6.035 -0.3963 -0.4187  0.3619
   6723SM  C13S 8689   5.014   5.945   5.941 -0.1407 -0.2625 -0.3471
   6723SM  H13S 8690   4.952   5.969   5.852  1.9678  1.7393 -1.3764
   6723SM  H13T 8691   5.006   5.835   5.961 -0.3218  0.0413  1.4678
   6723SM  C14S 8692   5.155   5.978   5.896 -0.0968  0.0213 -0.4611
   6723SM  H14S 8693   5.219   5.887   5.908  3.5147  1.7273 -4.1151
   6723SM  H14T 8694   5.199   6.056   5.962 -1.6948 -1.5386  2.6592
   6723SM  C15S 8695   5.171   6.003   5.739  0.2838  0.0802 -0.7342
   6723SM  H15S 8696   5.121   6.096   5.707  0.1478 -0.2264 -1.4249
   6723SM  H15T 8697   5.115   5.919   5.692  2.2670 -0.2278 -2.6946
   6723SM  C16S 8698   5.324   6.014   5.702 -0.4783 -0.0075  0.1857
   6723SM  H16S 8699   5.372   5.926   5.750  0.5487  0.3735 -0.1339
   6723SM  H16T 8700   5.360   6.110   5.744  0.5933 -0.4336  0.2496
   6723SM  C17S 8701   5.345   6.015   5.546 -0.2557 -0.0200  0.8445
   6723SM  H17S 8702   5.426   6.080   5.504 -1.4811  2.1971  1.7163
   6723SM  H17T 8703   5.254   6.072   5.516 -0.4144 -0.8046 -0.2189
   6723SM  C18S 8704   5.359   5.878   5.477 -0.0104  0.3391  0.1083
   6723SM  H18S 8705   5.448   5.826   5.517  0.2679  1.3139  0.7988
   6723SM  H18T 8706   5.376   5.891   5.368 -2.4417 -0.3405 -0.4047
   6723SM  H18U 8707   5.278   5.807   5.501  0.0535 -0.9032 -2.9521
   6723SM   C1F 8708   3.944   6.142   6.479  0.2097 -0.3968 -0.3514
   6723SM    OF 8709   3.946   6.241   6.548 -0.3232 -0.4940 -0.2928
   6723SM   C2F 8710   3.900   6.141   6.330 -0.0798  0.8408 -0.1483
   6723SM   H2F 8711   3.887   6.033   6.306  2.1485  0.1853  1.2076
   6723SM   H2G 8712   3.988   6.174   6.271  1.7680 -0.0422  1.9729
   6723SM   C3F 8713   3.773   6.221   6.294 -0.0406 -0.0573  0.2571
   6723SM   H3F 8714   3.788   6.326   6.328 -2.3510 -0.1474  1.8143
   6723SM   H3G 8715   3.688   6.190   6.359  1.6525 -0.4633  2.3891
   6723SM   C4F 8716   3.734   6.190   6.148 -0.5945 -0.7583 -0.3160
   6723SM   H4F 8717   3.647   6.252   6.115  1.3339  2.2844 -0.0750
   6723SM   H4G 8718   3.708   6.084   6.128  1.1365 -0.8065 -2.6939
   6723SM   C5F 8719   3.849   6.209   6.046 -0.7155 -0.1664 -0.9006
   6723SM   H5F 8720   3.915   6.123   6.070 -2.8854 -1.0851  2.6477
   6723SM   H5G 8721   3.896   6.298   6.093 -2.1680 -0.7881  2.0326
   6723SM   C6F 8722   3.796   6.210   5.910  0.0402 -0.2427 -0.1864
   6723SM   H6F 8723   3.717   6.288   5.907  0.9050  0.6947  0.5614
   6723SM   H6G 8724   3.745   6.112   5.898 -0.7167 -0.1474  1.9102
   6723SM   C7F 8725   3.909   6.241   5.813  0.7849  0.0314  0.2381
   6723SM   H7F 8726   3.990   6.170   5.840  0.9453 -0.3487 -1.1253
   6723SM   H7G 8727   3.959   6.339   5.829  0.8601  0.0201  0.0792
   6723SM   C8F 8728   3.861   6.257   5.666  0.6557  0.2478  0.0352
   6723SM   H8F 8729   3.943   6.301   5.605  0.4606  0.6725  0.0801
   6723SM   H8G 8730   3.766   6.314   5.672  1.8509  2.2747  0.7641
   6723SM   C9F 8731   3.826   6.116   5.604  0.1444 -0.4529 -0.6311
   6723SM   H9F 8732   3.739   6.140   5.540  1.8556 -2.7836 -4.1257
   6723SM   H9G 8733   3.777   6.049   5.677 -2.1376  0.9194 -0.8077
   6723SM  C10F 8734   3.925   6.036   5.517 -0.7858 -0.2567  0.2719
   6723SM  H10F 8735   3.882   5.934   5.507 -0.3447 -0.5478  1.1628
   6723SM  H10G 8736   4.018   6.043   5.578 -0.5443  0.8282 -0.1968
   6723SM  C11F 8737   3.941   6.089   5.378 -0.4109  0.4373 -0.3575
   6723SM  H11F 8738   3.959   6.197   5.363 -1.0718  0.7003  0.6226
   6723SM  H11G 8739   3.838   6.080   5.336 -0.5464  1.2310 -0.2019
   6723SM  C12F 8740   4.046   6.015   5.293 -0.1161 -0.3492 -0.1171
   6723SM  H12F 8741   4.043   5.907   5.318  2.4993 -0.2771  0.7817
   6723SM  H12G 8742   4.151   6.046   5.313  0.1834 -0.1317 -1.8218
   6723SM  C13F 8743   4.021   6.029   5.147  0.1174  0.8603 -0.4306
   6723SM  H13F 8744   4.035   6.129   5.100  0.1315  0.4837 -1.2439
   6723SM  H13G 8745   3.915   6.000   5.133  0.7861 -2.4224  0.5361
   6723SM  C14F 8746   4.101   5.923   5.061 -0.7219 -0.1939  0.2986
   6723SM  H14F 8747   4.087   5.826   5.113 -0.8080 -0.2756  0.1240
   6723SM  H14G 8748   4.210   5.941   5.056 -0.8168  0.1674 -0.8161
   6723SM  C15F 8749   4.057   5.898   4.910 -0.6251  0.2253 -0.1661
   6723SM  H15F 8750   4.046   5.997   4.862  0.7177  0.6838  0.4347
   6723SM  H15G 8751   3.962   5.841   4.907 -1.7748  1.9251  1.3097
   6723SM  C16F 8752   4.170   5.825   4.832 -0.1145 -0.7012  0.2525
   6723SM  H16F 8753   4.204   5.733   4.885  0.9733  0.4172  1.5666
   6723SM  H16G 8754   4.263   5.885   4.824 -0.3974 -0.3290 -0.2279
   6723SM  C17F 8755   4.119   5.800   4.687 -0.0016  0.5696  0.5136
   6723SM  H17F 8756   4.102   5.896   4.635 -0.2385  0.2236 -0.0641
   6723SM  H17G 8757   4.020   5.752   4.701 -0.0398  1.0790  2.1015
   6723SM  C18F 8758   4.217   5.717   4.597 -0.4907 -0.0678  0.2296
   6723SM  H18F 8759   4.230   5.615   4.638  0.3090  0.3458  1.0569
   6723SM  H18G 8760   4.318   5.762   4.605  1.1959 -3.6762  0.8183
   6723SM  C19F 8761   4.173   5.718   4.451 -0.3239 -0.7163  0.5753
   6723SM  H19F 8762   4.228   5.644   4.389 -0.2946 -0.7036  0.5862
   6723SM  H19G 8763   4.188   5.817   4.402  1.2535 -1.3764 -0.3480
   6723SM  C20F 8764   4.026   5.682   4.436  0.0946 -0.7895  0.0176
   6723SM  H20F 8765   3.996   5.701   4.331  0.2636  0.7663  0.2293
   6723SM  H20G 8766   3.965   5.754   4.494  0.8856 -0.4201  0.4073
   6723SM  C21F 8767   4.002   5.536   4.462  0.7770  0.1643 -0.4662
   6723SM  H21F 8768   4.023   5.513   4.569  0.9673 -0.8876 -0.7138
   6723SM  H21G 8769   4.080   5.472   4.415  0.1736  0.2031 -1.5571
   6723SM  C22F 8770   3.863   5.475   4.419 -0.8559 -0.1712 -0.0940
   6723SM  H22F 8771   3.870   5.364   4.428  0.9942 -0.0257  0.6076
   6723SM  H22G 8772   3.857   5.501   4.311 -0.8419  1.6911  0.3214
   6723SM  C23F 8773   3.747   5.530   4.507 -0.0139  0.3601 -0.2316
   6723SM  H23F 8774   3.735   5.641   4.506 -0.5948  0.3110  0.5950
   6723SM  H23G 8775   3.754   5.484   4.608 -0.4279 -0.4406 -0.5635
   6723SM  H23H 8776   3.653   5.499   4.456 -2.0330  2.9435  1.6184
   6823SM     N 8777   2.662   1.591   7.316  0.9971 -0.3147 -0.0438
   6823SM   C15 8778   2.764   1.698   7.270  1.1849 -0.1621  0.3187
   6823SM  H15A 8779   2.850   1.692   7.336  1.5730 -0.1703 -0.1850
   6823SM  H15B 8780   2.719   1.795   7.279 -0.3073 -0.9336  1.8634
   6823SM  H15C 8781   2.799   1.689   7.169  0.2409 -0.0061 -0.0331
   6823SM   C14 8782   2.597   1.641   7.444 -0.0177  0.5340 -0.5177
   6823SM  H14A 8783   2.558   1.739   7.417  1.8053  0.7346 -2.7919
   6823SM  H14B 8784   2.669   1.652   7.523 -1.1632  0.7850  0.5259
   6823SM  H14C 8785   2.516   1.577   7.476  0.8201 -0.0475  0.4817
   6823SM   C13 8786   2.565   1.587   7.203  0.2925 -0.6747 -0.7762
   6823SM  H13A 8787   2.629   1.567   7.118  1.7979  0.5041  0.0161
   6823SM  H13B 8788   2.516   1.682   7.185 -0.7038 -0.9524  0.3656
   6823SM  H13C 8789   2.498   1.504   7.217  0.6411 -0.8601 -0.1488
   6823SM   C12 8790   2.722   1.453   7.334 -0.2436 -0.4533  0.1275
   6823SM  H12A 8791   2.646   1.379   7.355  0.2470 -0.7865  0.7831
   6823SM  H12B 8792   2.784   1.450   7.423  1.1278  0.1062 -0.7702
   6823SM   C11 8793   2.821   1.415   7.218  0.1044  0.2126  0.2617
   6823SM  H11A 8794   2.857   1.312   7.240  1.3672  0.3124 -1.1891
   6823SM  H11B 8795   2.909   1.483   7.218  0.9515 -0.7707  2.7766
   6823SM     P 8796   2.655   1.262   7.073 -0.0711 -0.1645  0.1072
   6823SM   O13 8797   2.724   1.131   7.079  0.0913  0.2105 -0.4242
   6823SM   O14 8798   2.552   1.278   7.175  0.2348  0.6147 -0.3380
   6823SM   O11 8799   2.576   1.275   6.931  0.3163 -0.1422  0.9474
   6823SM   O12 8800   2.755   1.388   7.093 -0.6696  0.3128 -0.5057
   6823SM   C1S 8801   2.512   1.396   6.900 -0.4029  0.0272  0.2351
   6823SM   H1S 8802   2.584   1.481   6.906 -0.2380 -0.1667  4.3313
   6823SM   H1T 8803   2.430   1.423   6.970 -1.0758  1.5203 -1.0818
   6823SM    NF 8804   2.457   1.540   6.701  0.1161 -0.4052 -0.5039
   6823SM   HNF 8805   2.368   1.577   6.675  0.6532  0.7128 -0.8064
   6823SM   C2S 8806   2.468   1.400   6.750  1.2391 -0.7861  0.5918
   6823SM   H2S 8807   2.550   1.351   6.693  0.9087 -1.7817  0.9480
   6823SM   C3S 8808   2.338   1.312   6.729 -1.0295  0.4325 -0.1695
   6823SM   H3S 8809   2.256   1.367   6.779 -2.3656 -0.2910 -1.5068
   6823SM    O3 8810   2.354   1.179   6.779 -0.6307 -0.3444 -0.4253
   6823SM   HO3 8811   2.424   1.201   6.840 -1.5312  3.8698 -0.5708
   6823SM   C4S 8812   2.312   1.307   6.586 -0.4486 -0.3281  0.7397
   6823SM   H4S 8813   2.391   1.256   6.530  0.3307  0.0501  1.4730
   6823SM   C5S 8814   2.203   1.370   6.530  0.1807  0.5103 -0.3847
   6823SM   H5S 8815   2.137   1.428   6.595  0.7541  0.6982  0.0376
   6823SM   C6S 8816   2.175   1.393   6.383 -0.1999 -0.1294 -0.0632
   6823SM   H6S 8817   2.075   1.357   6.351  0.0019 -1.1148  0.4034
   6823SM   H6T 8818   2.253   1.348   6.317 -0.3856 -1.6166  0.7019
   6823SM   C7S 8819   2.178   1.544   6.343  0.1427 -0.5256  0.2514
   6823SM   H7S 8820   2.279   1.580   6.373  0.5279 -2.1460  0.9586
   6823SM   H7T 8821   2.101   1.605   6.395 -0.9948 -0.6153 -1.2787
   6823SM   C8S 8822   2.158   1.557   6.193  0.0786 -0.0138  0.3295
   6823SM   H8S 8823   2.070   1.506   6.149  1.0339 -1.2118 -0.2524
   6823SM   H8T 8824   2.246   1.513   6.141 -0.6860  1.2670 -2.2316
   6823SM   C9S 8825   2.162   1.709   6.152  0.2984 -0.9966 -0.4290
   6823SM   H9S 8826   2.259   1.748   6.192  0.0205  0.7700 -1.3657
   6823SM   H9T 8827   2.081   1.765   6.204  0.7695 -1.0528  0.3904
   6823SM  C10S 8828   2.157   1.740   6.009  0.2654 -0.2572  0.8906
   6823SM  H10S 8829   2.061   1.699   5.972 -0.2793  0.3959  1.5264
   6823SM  H10T 8830   2.241   1.699   5.951  1.1867  1.7301  0.7392
   6823SM  C11S 8831   2.162   1.894   5.975  0.3832  0.3139 -0.8774
   6823SM  H11S 8832   2.263   1.935   5.995  0.6172 -0.5314 -0.2838
   6823SM  H11T 8833   2.082   1.958   6.018  2.7981  1.5056  2.2043
   6823SM  C12S 8834   2.134   1.931   5.828 -0.0627 -0.2324  0.1473
   6823SM  H12S 8835   2.037   1.889   5.791  0.9227 -0.0967 -2.8618
   6823SM  H12T 8836   2.203   1.894   5.749  0.5797 -1.6671  1.3369
   6823SM  C13S 8837   2.119   2.082   5.806 -0.2313  1.5319 -0.2429
   6823SM  H13S 8838   2.216   2.122   5.843 -0.3677 -0.5160  2.6451
   6823SM  H13T 8839   2.039   2.116   5.875 -2.0413 -0.5869 -1.1792
   6823SM  C14S 8840   2.088   2.136   5.669 -0.0876 -0.9781  0.5012
   6823SM  H14S 8841   2.004   2.084   5.618  0.6414 -1.3996 -0.2965
   6823SM  H14T 8842   2.173   2.122   5.599 -0.9019  0.1156 -0.7565
   6823SM  C15S 8843   2.056   2.282   5.677  0.2251  0.2749  0.1550
   6823SM  H15S 8844   2.001   2.304   5.771  0.1796  0.4301  0.0943
   6823SM  H15T 8845   1.979   2.316   5.604 -1.1472  2.8976  2.6275
   6823SM  C16S 8846   2.182   2.373   5.684  0.3169 -0.8620  0.0194
   6823SM  H16S 8847   2.242   2.359   5.592 -0.7359  1.6886 -1.1556
   6823SM  H16T 8848   2.247   2.348   5.770 -1.0731  0.0570  1.4084
   6823SM  C17S 8849   2.141   2.522   5.706  0.7229 -0.6053 -0.4199
   6823SM  H17S 8850   2.079   2.523   5.799 -1.0206  1.8850 -1.4850
   6823SM  H17T 8851   2.066   2.557   5.631  0.2244  0.6091  0.5973
   6823SM  C18S 8852   2.261   2.612   5.732  0.4017 -0.0949  0.0504
   6823SM  H18S 8853   2.226   2.705   5.782  1.2366  1.1326 -1.5781
   6823SM  H18T 8854   2.321   2.630   5.641 -0.5583  0.4649 -0.4879
   6823SM  H18U 8855   2.327   2.561   5.805 -0.9780 -0.0486  1.3929
   6823SM   C1F 8856   2.569   1.607   6.685 -0.5646  0.6577 -0.0709
   6823SM    OF 8857   2.679   1.552   6.703 -0.5288 -0.0700 -0.2799
   6823SM   C2F 8858   2.550   1.742   6.625 -0.3417  0.2179  0.1122
   6823SM   H2F 8859   2.529   1.819   6.702  1.2862  0.6583  0.1476
   6823SM   H2G 8860   2.459   1.740   6.561  1.4329  0.2491 -2.5661
   6823SM   C3F 8861   2.663   1.776   6.524  0.4091  0.1524 -0.5197
   6823SM   H3F 8862   2.640   1.712   6.436 -0.1349  1.0420 -1.0384
   6823SM   H3G 8863   2.757   1.760   6.581 -0.7861  0.8004  1.7462
   6823SM   C4F 8864   2.642   1.917   6.466  0.4255  0.6838 -0.7637
   6823SM   H4F 8865   2.737   1.946   6.417  0.9893  2.2377  1.0843
   6823SM   H4G 8866   2.636   1.973   6.562  0.9401 -2.2667  1.1041
   6823SM   C5F 8867   2.514   1.941   6.378 -0.4607 -0.6051 -0.1952
   6823SM   H5F 8868   2.425   1.951   6.444 -0.4824 -2.5273  0.1352
   6823SM   H5G 8869   2.492   1.848   6.321  2.2008 -1.0538 -0.6518
   6823SM   C6F 8870   2.532   2.058   6.288 -0.3863  0.3564  0.3462
   6823SM   H6F 8871   2.629   2.041   6.237 -1.2138  0.2019 -1.2358
   6823SM   H6G 8872   2.546   2.146   6.355  1.6650  0.2896  0.0771
   6823SM   C7F 8873   2.414   2.079   6.196  0.5913  0.4218 -0.2394
   6823SM   H7F 8874   2.327   2.091   6.264  0.1515  2.7961 -1.1314
   6823SM   H7G 8875   2.394   1.996   6.125 -1.1305 -0.1315  0.8315
   6823SM   C8F 8876   2.427   2.216   6.126  0.0587  0.3814 -0.1255
   6823SM   H8F 8877   2.457   2.296   6.197  2.2190 -0.2624 -0.2420
   6823SM   H8G 8878   2.334   2.253   6.078 -0.2772 -0.3573 -0.0574
   6823SM   C9F 8879   2.545   2.226   6.026  0.5084  0.1731 -0.6576
   6823SM   H9F 8880   2.571   2.123   5.991 -0.7574 -0.6350  0.6458
   6823SM   H9G 8881   2.637   2.261   6.077  1.6664  0.2060 -2.6698
   6823SM  C10F 8882   2.516   2.314   5.901 -0.2200 -0.4893 -0.1132
   6823SM  H10F 8883   2.472   2.411   5.932 -2.3600 -0.4239 -2.9159
   6823SM  H10G 8884   2.433   2.260   5.849 -0.3914 -0.6353  0.3084
   6823SM  C11F 8885   2.634   2.321   5.806  0.3843 -0.0160  0.1070
   6823SM  H11F 8886   2.682   2.220   5.809 -1.6610 -1.0166  1.4500
   6823SM  H11G 8887   2.710   2.397   5.834 -0.0275 -0.1627  1.7026
   6823SM  C12F 8888   2.581   2.344   5.665 -0.1433  0.0906 -0.1803
   6823SM  H12F 8889   2.523   2.438   5.652 -1.8173 -0.7099  1.0426
   6823SM  H12G 8890   2.514   2.262   5.634 -0.0959  0.3986 -1.1113
   6823SM  C13F 8891   2.702   2.347   5.567 -0.8196 -0.2160  0.2890
   6823SM  H13F 8892   2.757   2.253   5.588 -0.7504  0.1627  1.9883
   6823SM  H13G 8893   2.763   2.434   5.600 -1.3153 -0.0786  0.8754
   6823SM  C14F 8894   2.653   2.341   5.427 -0.3149 -0.1013 -0.5471
   6823SM  H14F 8895   2.570   2.267   5.416 -1.2087  0.7548  0.2984
   6823SM  H14G 8896   2.728   2.305   5.353  0.2339 -0.3710  0.1339
   6823SM  C15F 8897   2.619   2.489   5.377 -0.3189  0.1126 -0.2349
   6823SM  H15F 8898   2.716   2.543   5.378 -0.2199  0.0430 -1.9601
   6823SM  H15G 8899   2.546   2.540   5.444  0.3048 -0.6395  1.0410
   6823SM  C16F 8900   2.573   2.490   5.228  0.1528  0.4933  0.3567
   6823SM  H16F 8901   2.629   2.420   5.163 -0.9300  1.8403 -2.1524
   6823SM  H16G 8902   2.589   2.590   5.182  0.1820 -0.7992 -2.6767
   6823SM  C17F 8903   2.423   2.469   5.219  0.2112 -0.4005  0.1396
   6823SM  H17F 8904   2.412   2.364   5.253  0.4787 -0.4369  0.1179
   6823SM  H17G 8905   2.401   2.467   5.110 -0.0490  0.0832  0.1793
   6823SM  C18F 8906   2.336   2.576   5.291  0.1906 -0.4747 -0.2337
   6823SM  H18F 8907   2.354   2.670   5.234 -1.1020 -0.5470 -0.8149
   6823SM  H18G 8908   2.371   2.596   5.394  0.3421  0.7171 -0.5032
   6823SM  C19F 8909   2.188   2.546   5.290 -0.1917 -0.3734 -0.5176
   6823SM  H19F 8910   2.139   2.562   5.389 -0.1447  0.7814 -0.6577
   6823SM  H19G 8911   2.173   2.438   5.272  0.2864 -0.6195  0.5083
   6823SM  C20F 8912   2.114   2.626   5.184  0.0910  0.1213  0.5063
   6823SM  H20F 8913   2.016   2.579   5.161  0.5961 -0.0030 -1.5949
   6823SM  H20G 8914   2.164   2.650   5.088 -1.5523  2.2279  0.0813
   6823SM  C21F 8915   2.068   2.760   5.244 -0.3805 -0.0692  0.1442
   6823SM  H21F 8916   2.163   2.815   5.260  0.0634 -1.1068  1.2018
   6823SM  H21G 8917   2.008   2.757   5.338 -0.0346  2.0064  0.4723
   6823SM  C22F 8918   1.971   2.833   5.148 -0.0124 -0.0245 -0.6484
   6823SM  H22F 8919   1.947   2.924   5.205  1.3638  0.8394 -1.3876
   6823SM  H22G 8920   1.872   2.783   5.143 -1.8161  3.2707 -0.1186
   6823SM  C23F 8921   2.033   2.869   5.017 -0.8508 -0.1847 -0.3583
   6823SM  H23F 8922   2.071   2.785   4.954  1.5987  1.3753 -1.1249
   6823SM  H23G 8923   2.109   2.948   5.037 -1.8138  0.0675  2.8074
   6823SM  H23H 8924   1.956   2.921   4.957  0.6481  2.1203 -0.4385
   6923SM     N 8925   4.852   1.840   7.928 -0.3066 -0.0187 -1.0790
   6923SM   C15 8926   4.887   1.843   8.075 -0.1156  0.6367 -0.1778
   6923SM  H15A 8927   4.883   1.739   8.104  0.0745  0.4613 -0.7563
   6923SM  H15B 8928   4.818   1.909   8.124  0.0587 -0.3885  1.5084
   6923SM  H15C 8929   4.989   1.875   8.092 -0.5391  1.4372  0.9136
   6923SM   C14 8930   4.863   1.971   7.866 -0.2532  0.5239 -0.2247
   6923SM  H14A 8931   4.775   2.026   7.894  1.7391  2.5360  2.5556
   6923SM  H14B 8932   4.865   1.954   7.759 -1.7918 -1.9088  0.0569
   6923SM  H14C 8933   4.957   2.015   7.897 -0.1454  0.4764 -0.4794
   6923SM   C13 8934   4.955   1.750   7.864 -0.5997 -0.0069 -0.7013
   6923SM  H13A 8935   4.928   1.734   7.761  1.4429  0.1063 -1.2908
   6923SM  H13B 8936   4.968   1.654   7.913  0.5556  0.4546 -0.0513
   6923SM  H13C 8937   5.051   1.800   7.860 -0.6682  0.0572 -1.9364
   6923SM   C12 8938   4.715   1.780   7.912  0.9738  0.7344  0.2061
   6923SM  H12A 8939   4.715   1.677   7.944 -0.0798  0.9410  0.9209
   6923SM  H12B 8940   4.682   1.771   7.809  0.7390 -0.5556  0.3776
   6923SM   C11 8941   4.600   1.851   7.993  0.6775 -0.0164 -0.5035
   6923SM  H11A 8942   4.613   1.871   8.101 -1.1929  0.5047 -0.3441
   6923SM  H11B 8943   4.521   1.773   7.999  1.1753 -0.5813 -1.0533
   6923SM     P 8944   4.448   1.965   7.811  0.3399 -0.0665 -0.6411
   6923SM   O13 8945   4.355   1.852   7.835 -0.1198  0.2187  0.1667
   6923SM   O14 8946   4.392   2.106   7.799 -0.1820  0.8067 -0.0870
   6923SM   O11 8947   4.542   1.943   7.684 -0.2278 -0.3955  0.0064
   6923SM   O12 8948   4.558   1.971   7.924 -0.0215 -0.0236 -0.1097
   6923SM   C1S 8949   4.525   1.827   7.597 -0.0213 -0.5374  0.0299
   6923SM   H1S 8950   4.430   1.775   7.620 -1.7076  2.2146 -0.2732
   6923SM   H1T 8951   4.604   1.749   7.602  0.0277 -0.5247 -0.4827
   6923SM    NF 8952   4.500   1.755   7.366  0.5006  0.1254  0.1853
   6923SM   HNF 8953   4.572   1.731   7.302  1.8151  3.9462  0.0072
   6923SM   C2S 8954   4.526   1.873   7.449 -0.5199  0.4858 -0.5307
   6923SM   H2S 8955   4.437   1.939   7.440  0.4003  1.9930  0.9880
   6923SM   C3S 8956   4.659   1.953   7.410 -0.1929  0.0108  0.6367
   6923SM   H3S 8957   4.738   1.874   7.408  1.1495  1.3137 -0.7162
   6923SM    O3 8958   4.704   2.045   7.506 -0.9303 -0.6136 -0.2869
   6923SM   HO3 8959   4.650   2.020   7.582  0.5738 -1.7690  0.4516
   6923SM   C4S 8960   4.665   2.009   7.262  0.1368  0.5205 -0.4717
   6923SM   H4S 8961   4.707   1.935   7.193 -0.1260 -1.5137  1.4327
   6923SM   C5S 8962   4.630   2.134   7.224 -0.4536  0.2196  0.0808
   6923SM   H5S 8963   4.593   2.202   7.302  0.9516  1.4681 -0.3051
   6923SM   C6S 8964   4.642   2.175   7.080  0.3867  1.2183 -0.1243
   6923SM   H6S 8965   4.732   2.128   7.037 -0.9447 -1.1731 -0.4839
   6923SM   H6T 8966   4.668   2.282   7.068 -0.0277  1.3734  0.3126
   6923SM   C7S 8967   4.528   2.138   6.984 -0.2888 -0.8958 -0.1652
   6923SM   H7S 8968   4.570   2.173   6.887  0.4068  0.5439  0.6210
   6923SM   H7T 8969   4.440   2.201   7.011 -1.4212 -2.6451  0.4412
   6923SM   C8S 8970   4.477   1.992   6.992 -0.4351  0.5404  0.1681
   6923SM   H8S 8971   4.416   1.970   7.083  1.3961 -0.1504  1.2843
   6923SM   H8T 8972   4.559   1.917   6.998 -2.2262 -1.7461 -1.9608
   6923SM   C9S 8973   4.383   1.954   6.876 -0.1457  0.7787 -0.1538
   6923SM   H9S 8974   4.324   2.042   6.842  0.4189  1.4237  0.4832
   6923SM   H9T 8975   4.316   1.868   6.896  1.1052 -0.3823 -0.7584
   6923SM  C10S 8976   4.461   1.905   6.753 -0.2208 -0.0210  0.0229
   6923SM  H10S 8977   4.517   1.813   6.778 -1.4761 -0.4782  1.3259
   6923SM  H10T 8978   4.534   1.973   6.704  1.9323 -1.5773  0.8973
   6923SM  C11S 8979   4.367   1.857   6.641  0.1693 -0.2720  0.0146
   6923SM  H11S 8980   4.281   1.926   6.626 -0.0022 -0.7657 -1.4115
   6923SM  H11T 8981   4.316   1.764   6.675  0.8309 -0.7382 -0.2400
   6923SM  C12S 8982   4.433   1.829   6.502  0.6684 -0.3440 -0.1882
   6923SM  H12S 8983   4.492   1.735   6.513 -1.7638 -2.0995 -1.2094
   6923SM  H12T 8984   4.510   1.903   6.472 -0.7068  1.1369 -0.1474
   6923SM  C13S 8985   4.333   1.799   6.388 -0.8064  0.0982 -0.2079
   6923SM  H13S 8986   4.284   1.896   6.363  1.3344  2.2233  3.0172
   6923SM  H13T 8987   4.253   1.725   6.407 -2.1312  1.1809 -1.2993
   6923SM  C14S 8988   4.416   1.744   6.271 -0.4463  0.1932 -0.3198
   6923SM  H14S 8989   4.466   1.651   6.308  2.0939  1.6352  0.0963
   6923SM  H14T 8990   4.501   1.811   6.248  0.3834 -0.0190  1.8832
   6923SM  C15S 8991   4.345   1.716   6.142 -0.2480  0.7996  0.8767
   6923SM  H15S 8992   4.290   1.805   6.105  0.4105  0.9852  0.3024
   6923SM  H15T 8993   4.274   1.634   6.164  1.5669 -1.2949 -0.5782
   6923SM  C16S 8994   4.424   1.653   6.027 -0.0191  0.2965 -0.7391
   6923SM  H16S 8995   4.460   1.550   6.048  0.3916  0.1303 -2.1645
   6923SM  H16T 8996   4.521   1.706   6.023  0.5038 -0.0687  3.2283
   6923SM  C17S 8997   4.358   1.647   5.890 -0.0541  0.6362  0.1487
   6923SM  H17S 8998   4.334   1.749   5.851  1.7661  1.3812  0.8871
   6923SM  H17T 8999   4.262   1.591   5.892 -1.0029  2.1617 -0.2330
   6923SM  C18S 9000   4.463   1.589   5.792  0.7891  0.8858 -0.6550
   6923SM  H18S 9001   4.414   1.554   5.699  1.7249 -1.2033 -0.4307
   6923SM  H18T 9002   4.516   1.500   5.834 -0.6592 -1.5211 -3.5466
   6923SM  H18U 9003   4.526   1.672   5.755  0.3293  0.0563 -3.5235
   6923SM   C1F 9004   4.391   1.682   7.374  0.8748 -0.0199 -0.0266
   6923SM    OF 9005   4.300   1.701   7.456  0.6493 -0.2893 -0.4195
   6923SM   C2F 9006   4.381   1.567   7.285 -0.2117  0.0843  0.5431
   6923SM   H2F 9007   4.292   1.501   7.294  0.0678 -0.8839 -2.6517
   6923SM   H2G 9008   4.463   1.497   7.310 -0.4291  0.2245  1.7059
   6923SM   C3F 9009   4.397   1.603   7.133 -0.9584 -0.3394 -0.5159
   6923SM   H3F 9010   4.504   1.633   7.123 -0.5649 -0.3023  2.7992
   6923SM   H3G 9011   4.329   1.685   7.101  0.1096  1.8924  2.4677
   6923SM   C4F 9012   4.381   1.488   7.040 -0.5915 -0.6304  1.0321
   6923SM   H4F 9013   4.279   1.445   7.044 -1.2778  0.9889  1.6144
   6923SM   H4G 9014   4.437   1.401   7.082  1.0936  0.3851  0.9704
   6923SM   C5F 9015   4.421   1.518   6.899  0.2093  0.1033  0.5163
   6923SM   H5F 9016   4.531   1.503   6.886  0.4885  2.4894 -0.4507
   6923SM   H5G 9017   4.418   1.627   6.877 -0.3837 -0.0624 -0.2527
   6923SM   C6F 9018   4.354   1.426   6.798  0.0978 -0.0723  0.2339
   6923SM   H6F 9019   4.245   1.432   6.817 -0.1216  0.3306 -1.0229
   6923SM   H6G 9020   4.383   1.321   6.821  0.6351 -0.3164 -1.3887
   6923SM   C7F 9021   4.381   1.449   6.650  0.3163 -1.0073  0.3873
   6923SM   H7F 9022   4.490   1.457   6.631 -0.2170  3.6772 -2.2421
   6923SM   H7G 9023   4.341   1.550   6.628  2.4361 -0.0824  0.4906
   6923SM   C8F 9024   4.336   1.333   6.565 -0.7890 -0.5465  0.2687
   6923SM   H8F 9025   4.230   1.302   6.578 -0.4768 -2.0519 -0.4705
   6923SM   H8G 9026   4.395   1.242   6.587  0.6309  0.4974  0.9085
   6923SM   C9F 9027   4.363   1.363   6.408  0.0837 -0.1741  0.0440
   6923SM   H9F 9028   4.473   1.377   6.413  0.2351 -1.2608 -0.0018
   6923SM   H9G 9029   4.307   1.455   6.383  0.9347  0.7894  1.4921
   6923SM  C10F 9030   4.319   1.241   6.323 -0.1510  0.3196  0.8853
   6923SM  H10F 9031   4.217   1.202   6.339 -0.2186  0.0954 -0.0364
   6923SM  H10G 9032   4.386   1.159   6.357  0.3367  2.0010  4.4764
   6923SM  C11F 9033   4.340   1.270   6.169  0.1481  0.0746  0.5191
   6923SM  H11F 9034   4.445   1.297   6.145  0.0816 -1.1147 -1.2992
   6923SM  H11G 9035   4.263   1.342   6.135 -0.4664 -1.0594 -0.5455
   6923SM  C12F 9036   4.298   1.151   6.073  0.4562 -0.2117  0.0733
   6923SM  H12F 9037   4.339   1.182   5.975 -0.5831  1.2151  0.0738
   6923SM  H12G 9038   4.189   1.132   6.071  0.1759  1.2137  0.8157
   6923SM  C13F 9039   4.385   1.027   6.117  0.2919 -0.1373  0.9705
   6923SM  H13F 9040   4.336   0.993   6.211 -2.5872  0.7866 -0.0819
   6923SM  H13G 9041   4.493   1.050   6.127  0.4952 -0.5775 -0.0754
   6923SM  C14F 9042   4.388   0.916   6.002 -0.1499 -0.5236 -0.8573
   6923SM  H14F 9043   4.411   0.962   5.904  0.7365 -0.2450 -0.5257
   6923SM  H14G 9044   4.290   0.863   5.997 -0.8606  0.8673 -3.2367
   6923SM  C15F 9045   4.494   0.812   6.029  0.6356 -0.2059  0.4064
   6923SM  H15F 9046   4.489   0.769   6.131 -0.3044 -2.6378 -0.5986
   6923SM  H15G 9047   4.595   0.859   6.021  0.2149  0.5019 -1.0866
   6923SM  C16F 9048   4.479   0.697   5.926  0.4028  0.1120  0.6052
   6923SM  H16F 9049   4.391   0.635   5.952 -1.2034  0.9334 -2.3422
   6923SM  H16G 9050   4.564   0.628   5.941  0.7488  0.5855  0.8542
   6923SM  C17F 9051   4.459   0.736   5.775  0.2262 -0.7429  0.6771
   6923SM  H17F 9052   4.539   0.810   5.753  0.2461 -0.8507  0.3806
   6923SM  H17G 9053   4.354   0.768   5.762  0.1075 -0.3454  2.3902
   6923SM  C18F 9054   4.488   0.619   5.684  0.3119 -0.2119  0.4563
   6923SM  H18F 9055   4.461   0.643   5.579 -0.1602  0.9434  0.8310
   6923SM  H18G 9056   4.428   0.533   5.721 -0.3612  0.3201  0.6089
   6923SM  C19F 9057   4.632   0.557   5.683  0.2032 -0.4064 -0.5224
   6923SM  H19F 9058   4.651   0.504   5.778 -0.7613  0.2917  0.0758
   6923SM  H19G 9059   4.700   0.644   5.665 -0.9043  0.0821 -2.7554
   6923SM  C20F 9060   4.655   0.457   5.568  0.4505  0.1295 -0.4023
   6923SM  H20F 9061   4.618   0.356   5.593  0.8521 -0.0874 -0.6744
   6923SM  H20G 9062   4.765   0.446   5.563  0.6958  0.9663  1.8847
   6923SM  C21F 9063   4.615   0.495   5.426  0.1681 -0.4551  0.5252
   6923SM  H21F 9064   4.660   0.594   5.402 -0.1740 -0.3224  0.4382
   6923SM  H21G 9065   4.505   0.508   5.422  0.1115 -1.2541 -2.3933
   6923SM  C22F 9066   4.659   0.392   5.322 -0.5756 -0.5138  0.0331
   6923SM  H22F 9067   4.612   0.292   5.332  1.6486 -1.6712 -0.5064
   6923SM  H22G 9068   4.767   0.369   5.331 -0.0577  0.2406 -2.9846
   6923SM  C23F 9069   4.633   0.431   5.177 -0.3665 -0.3487 -0.2249
   6923SM  H23F 9070   4.672   0.534   5.163  0.7147 -0.4011  1.8521
   6923SM  H23G 9071   4.524   0.418   5.163 -0.4187 -0.8260  0.5405
   6923SM  H23H 9072   4.702   0.367   5.118  0.9144 -1.3621  2.1899
   7023SM     N 9073   3.418   1.686   7.810 -0.3335 -0.1855  0.4152
   7023SM   C15 9074   3.430   1.727   7.955 -0.3146 -0.9003  0.3971
   7023SM  H15A 9075   3.461   1.831   7.957 -0.6198 -0.8072  0.2741
   7023SM  H15B 9076   3.512   1.672   7.999  0.0069 -2.2172 -1.6933
   7023SM  H15C 9077   3.339   1.711   8.010 -0.9482 -1.4014 -0.7659
   7023SM   C14 9078   3.390   1.541   7.809  0.7752  0.0528  0.2357
   7023SM  H14A 9079   3.375   1.502   7.710  0.8388  0.2176  0.1614
   7023SM  H14B 9080   3.300   1.515   7.863 -0.3532  0.1773 -1.4947
   7023SM  H14C 9081   3.474   1.494   7.857 -0.2620 -1.9889  0.1674
   7023SM   C13 9082   3.302   1.763   7.751 -0.1423 -0.1303 -0.6984
   7023SM  H13A 9083   3.211   1.739   7.804 -0.5293  0.9827 -0.8471
   7023SM  H13B 9084   3.294   1.738   7.646 -0.7377  2.0220 -1.2154
   7023SM  H13C 9085   3.324   1.868   7.765  0.6606 -0.4801  0.8964
   7023SM   C12 9086   3.554   1.726   7.730  0.6948  0.4111  0.1553
   7023SM  H12A 9087   3.559   1.833   7.717 -0.5760  0.6244  1.1888
   7023SM  H12B 9088   3.545   1.688   7.629 -1.8775  1.1239  0.0399
   7023SM   C11 9089   3.686   1.683   7.783  0.3286 -0.1410  0.2068
   7023SM  H11A 9090   3.712   1.729   7.880  0.9710 -1.5876  0.7515
   7023SM  H11B 9091   3.759   1.707   7.703 -0.8174 -0.9331 -1.1394
   7023SM     P 9092   3.700   1.438   7.683  0.4774  0.3100 -0.0357
   7023SM   O13 9093   3.842   1.395   7.690 -0.5748 -0.0687  0.2241
   7023SM   O14 9094   3.598   1.325   7.682 -0.1937 -0.2123  0.5719
   7023SM   O11 9095   3.683   1.536   7.557 -0.1359  0.2474  0.5284
   7023SM   O12 9096   3.675   1.537   7.807 -0.2412  0.1090  0.0698
   7023SM   C1S 9097   3.675   1.476   7.429 -0.3494 -0.1506  0.0491
   7023SM   H1S 9098   3.568   1.458   7.406 -0.5830  1.2046  0.0197
   7023SM   H1T 9099   3.733   1.383   7.413 -0.1778  0.2564 -2.0551
   7023SM    NF 9100   3.706   1.496   7.175 -0.2850  0.4283 -0.1419
   7023SM   HNF 9101   3.779   1.448   7.127 -0.9497 -1.1329  0.3429
   7023SM   C2S 9102   3.726   1.564   7.309 -0.1818  0.3012  0.1353
   7023SM   H2S 9103   3.672   1.661   7.313 -1.3934 -0.3846  0.8184
   7023SM   C3S 9104   3.878   1.604   7.328  0.2241  0.5478  0.2574
   7023SM   H3S 9105   3.944   1.517   7.306 -0.2670  0.5178 -1.1918
   7023SM    O3 9106   3.898   1.654   7.459 -0.1541  0.3920 -0.3901
   7023SM   HO3 9107   3.813   1.633   7.499 -1.4413 -0.8290 -3.4092
   7023SM   C4S 9108   3.924   1.702   7.225 -0.2441  0.4283 -0.0894
   7023SM   H4S 9109   3.863   1.793   7.234 -2.8181 -1.2193  0.2900
   7023SM   C5S 9110   4.013   1.687   7.121 -0.0008 -0.0105 -0.7508
   7023SM   H5S 9111   4.075   1.596   7.131  1.6635  1.1270 -0.2145
   7023SM   C6S 9112   4.045   1.786   7.015 -0.4481 -0.1069  0.3620
   7023SM   H6S 9113   4.079   1.747   6.917 -1.9877  1.4230 -0.8427
   7023SM   H6T 9114   4.129   1.849   7.052  0.9338 -2.4119  1.4318
   7023SM   C7S 9115   3.930   1.877   6.971  0.8226 -0.4635 -0.3035
   7023SM   H7S 9116   3.895   1.945   7.052  2.3813  0.0116  0.0083
   7023SM   H7T 9117   3.841   1.823   6.933  0.6752  0.4006 -1.2185
   7023SM   C8S 9118   3.971   1.964   6.856 -0.1158 -0.5588  0.1415
   7023SM   H8S 9119   4.063   2.027   6.858 -2.5413  3.5012 -1.7789
   7023SM   H8T 9120   3.890   2.040   6.862 -0.1118 -0.6258  1.2793
   7023SM   C9S 9121   3.950   1.903   6.712 -0.6152 -0.7292  0.0631
   7023SM   H9S 9122   3.848   1.861   6.701 -1.5042  1.4372 -0.4994
   7023SM   H9T 9123   4.033   1.830   6.706  0.7318  0.6706  0.9715
   7023SM  C10S 9124   3.970   2.001   6.596 -0.2503 -0.2025 -0.5951
   7023SM  H10S 9125   4.069   2.051   6.599 -0.1969 -0.3105 -0.5448
   7023SM  H10T 9126   3.886   2.073   6.599 -1.7085 -1.8493  0.0710
   7023SM  C11S 9127   3.953   1.939   6.461 -0.5683  0.1201  0.0004
   7023SM  H11S 9128   3.854   1.891   6.446 -0.2247 -0.6157  0.0127
   7023SM  H11T 9129   4.011   1.845   6.450 -1.1971 -0.6155  2.4620
   7023SM  C12S 9130   3.988   2.032   6.344 -0.3639 -0.2240 -0.2464
   7023SM  H12S 9131   4.092   2.065   6.365 -0.4416  0.2508 -0.5911
   7023SM  H12T 9132   3.921   2.121   6.345  0.7140  0.6133  0.6921
   7023SM  C13S 9133   3.998   1.966   6.209 -0.1044 -0.0303  0.1706
   7023SM  H13S 9134   3.901   1.923   6.177  0.6558 -1.1731 -0.6769
   7023SM  H13T 9135   4.069   1.883   6.231  1.7662  1.7165  1.0332
   7023SM  C14S 9136   4.057   2.063   6.106 -0.5800  0.0280  0.3652
   7023SM  H14S 9137   4.122   2.005   6.037 -1.8485  0.9828 -1.7148
   7023SM  H14T 9138   4.123   2.128   6.167 -0.6478 -1.6438  2.3456
   7023SM  C15S 9139   3.958   2.144   6.023 -0.6851 -0.0013 -0.1514
   7023SM  H15S 9140   3.949   2.240   6.078  2.0762  0.1744  0.1773
   7023SM  H15T 9141   3.854   2.109   6.011 -1.6115  1.5550  2.4287
   7023SM  C16S 9142   4.005   2.174   5.876 -0.3188 -0.0508  0.0880
   7023SM  H16S 9143   3.992   2.077   5.823 -0.6961 -0.4048  0.8126
   7023SM  H16T 9144   4.114   2.193   5.864 -0.2461 -1.2127 -1.3441
   7023SM  C17S 9145   3.914   2.284   5.813 -0.0502  0.2441 -0.0872
   7023SM  H17S 9146   3.922   2.373   5.880  2.0185  1.0652 -1.3331
   7023SM  H17T 9147   3.805   2.264   5.825 -0.0140  0.2150  0.2059
   7023SM  C18S 9148   3.960   2.315   5.666  0.1129 -0.0542 -0.0372
   7023SM  H18S 9149   3.966   2.215   5.617  0.5215 -0.2763  0.4621
   7023SM  H18T 9150   4.060   2.362   5.664 -0.4494  1.2013  0.5272
   7023SM  H18U 9151   3.888   2.370   5.602  1.1569  2.1782  0.6161
   7023SM   C1F 9152   3.586   1.478   7.123 -0.3331  0.4900  0.0045
   7023SM    OF 9153   3.487   1.516   7.184  0.3876 -0.0542  0.1555
   7023SM   C2F 9154   3.566   1.417   6.985 -0.2364  0.2079 -0.2247
   7023SM   H2F 9155   3.627   1.324   6.979 -0.3835  0.2216 -3.1466
   7023SM   H2G 9156   3.608   1.486   6.909  0.3096  0.2183  0.0803
   7023SM   C3F 9157   3.426   1.372   6.939 -0.7244  0.1839  0.8381
   7023SM   H3F 9158   3.369   1.467   6.945  1.6610  1.7341  0.2868
   7023SM   H3G 9159   3.386   1.290   7.002  2.1979 -1.1774  1.0881
   7023SM   C4F 9160   3.415   1.329   6.788  0.1472  0.0309 -0.3083
   7023SM   H4F 9161   3.309   1.300   6.770  0.4546 -1.9424  0.7883
   7023SM   H4G 9162   3.486   1.246   6.769 -2.0162 -1.9919  0.0835
   7023SM   C5F 9163   3.468   1.441   6.690 -0.1502 -0.0623 -0.4335
   7023SM   H5F 9164   3.574   1.463   6.714 -0.7400  1.3452  1.0843
   7023SM   H5G 9165   3.402   1.529   6.706 -1.4875 -0.9693 -0.7714
   7023SM   C6F 9166   3.450   1.384   6.552 -0.1308  0.0370  0.4053
   7023SM   H6F 9167   3.348   1.346   6.531 -0.1892 -0.0291  0.7998
   7023SM   H6G 9168   3.518   1.300   6.529  0.3216  0.3042  0.7561
   7023SM   C7F 9169   3.470   1.488   6.441 -0.4297 -0.3285  0.3920
   7023SM   H7F 9170   3.579   1.498   6.422 -0.2431 -0.4563  1.3311
   7023SM   H7G 9171   3.432   1.588   6.469 -1.7323 -1.1486  1.6772
   7023SM   C8F 9172   3.414   1.459   6.300 -0.1120  0.0300 -0.5784
   7023SM   H8F 9173   3.307   1.432   6.288  0.3103 -0.9090 -2.7848
   7023SM   H8G 9174   3.457   1.363   6.262 -0.3363  0.5099 -2.1202
   7023SM   C9F 9175   3.451   1.563   6.197 -0.5125 -0.2052 -0.7415
   7023SM   H9F 9176   3.562   1.572   6.198 -0.5078 -0.1823 -1.1605
   7023SM   H9G 9177   3.394   1.656   6.221 -0.6743 -0.4917  0.0021
   7023SM  C10F 9178   3.408   1.531   6.052  0.0356  0.8916  0.0297
   7023SM  H10F 9179   3.458   1.435   6.029  0.7045  1.4797 -1.0702
   7023SM  H10G 9180   3.459   1.597   5.978 -1.4634  0.3397 -1.5430
   7023SM  C11F 9181   3.261   1.530   6.029 -0.0124 -0.0408 -0.0049
   7023SM  H11F 9182   3.229   1.633   6.053  2.4477  0.4875  1.3053
   7023SM  H11G 9183   3.210   1.460   6.099  0.7006 -0.5918 -0.0159
   7023SM  C12F 9184   3.231   1.501   5.886  0.2185  0.5886  0.5385
   7023SM  H12F 9185   3.272   1.402   5.857 -0.7692  0.6087 -1.0499
   7023SM  H12G 9186   3.270   1.589   5.831  0.0232  1.3064  1.5213
   7023SM  C13F 9187   3.078   1.500   5.864 -0.3425  0.2511 -0.0651
   7023SM  H13F 9188   3.041   1.603   5.885  0.1446  0.4954 -0.3835
   7023SM  H13G 9189   3.036   1.417   5.925 -0.3707  1.0525  1.0419
   7023SM  C14F 9190   3.041   1.459   5.724  0.4981  0.4036 -0.2328
   7023SM  H14F 9191   3.107   1.379   5.683  1.7848  0.1994  2.0957
   7023SM  H14G 9192   3.051   1.551   5.661  0.4768  1.8899  1.8311
   7023SM  C15F 9193   2.899   1.409   5.716  0.1890  0.0800  0.4551
   7023SM  H15F 9194   2.823   1.468   5.771 -1.5381 -1.7892  0.1796
   7023SM  H15G 9195   2.881   1.310   5.760  0.7835 -0.2796 -0.0856
   7023SM  C16F 9196   2.868   1.416   5.569 -0.3541  0.7275  0.6909
   7023SM  H16F 9197   2.936   1.344   5.518 -1.7564 -2.3829  2.8482
   7023SM  H16G 9198   2.879   1.519   5.529 -2.0271 -0.0876 -2.2240
   7023SM  C17F 9199   2.733   1.355   5.528 -0.3173  0.3268  0.0984
   7023SM  H17F 9200   2.656   1.400   5.594 -0.7404  0.5687 -0.5500
   7023SM  H17G 9201   2.746   1.245   5.542 -1.1342 -0.0813 -1.9552
   7023SM  C18F 9202   2.695   1.384   5.388  0.9473 -0.6903 -0.7883
   7023SM  H18F 9203   2.781   1.361   5.322  1.6878  1.1027 -0.4978
   7023SM  H18G 9204   2.692   1.494   5.374  2.1393 -0.8230 -2.3392
   7023SM  C19F 9205   2.559   1.322   5.359  0.5187 -0.5166 -0.2181
   7023SM  H19F 9206   2.480   1.354   5.430 -0.7615  0.5635 -2.0429
   7023SM  H19G 9207   2.557   1.211   5.361  0.9867 -0.5362 -0.4793
   7023SM  C20F 9208   2.496   1.369   5.225  0.3304  0.4016 -0.1423
   7023SM  H20F 9209   2.539   1.333   5.129  0.7904  1.8176 -0.4917
   7023SM  H20G 9210   2.513   1.479   5.222  2.4883  0.0978 -0.4522
   7023SM  C21F 9211   2.339   1.353   5.214 -0.1831 -0.0390 -0.2129
   7023SM  H21F 9212   2.309   1.406   5.121  0.5563  1.2719  0.2521
   7023SM  H21G 9213   2.286   1.410   5.294 -1.0146 -0.8717 -0.1632
   7023SM  C22F 9214   2.285   1.211   5.206 -0.4249 -0.1709  0.2521
   7023SM  H22F 9215   2.174   1.211   5.217 -0.3187  1.7607  2.0083
   7023SM  H22G 9216   2.318   1.150   5.292 -1.6930 -0.4731  0.5521
   7023SM  C23F 9217   2.309   1.153   5.070  0.1303  0.2974 -0.1541
   7023SM  H23F 9218   2.264   1.210   4.986  1.2377  1.2884 -0.1083
   7023SM  H23G 9219   2.277   1.047   5.063 -0.1164  0.4020 -0.6988
   7023SM  H23H 9220   2.417   1.162   5.046  0.4583  0.6581  1.3640
   7123SM     N 9221   4.697   7.638   7.301  0.1965 -0.4859  0.0300
   7123SM   C15 9222   4.799   7.638   7.191 -0.3626  0.4696  0.2241
   7123SM  H15A 9223   4.854   7.545   7.194 -0.6186  0.3383  1.4891
   7123SM  H15B 9224   4.870   7.720   7.196 -1.8935  1.9102 -0.6243
   7123SM  H15C 9225   4.741   7.653   7.101  1.6358  0.3207 -1.1553
   7123SM   C14 9226   4.763   7.637   7.430  0.7137 -0.4173  0.4252
   7123SM  H14A 9227   4.688   7.654   7.506  1.9285  1.8625  1.2128
   7123SM  H14B 9228   4.842   7.710   7.439 -0.0003  0.2088  2.0868
   7123SM  H14C 9229   4.819   7.547   7.447  0.6219 -0.3351  1.1739
   7123SM   C13 9230   4.628   7.772   7.293  0.5333  0.0433  0.0676
   7123SM  H13A 9231   4.552   7.765   7.217  1.8794 -0.7054 -1.2677
   7123SM  H13B 9232   4.694   7.854   7.265 -0.4391  0.6593 -0.4814
   7123SM  H13C 9233   4.575   7.797   7.384  2.6584  0.5722  1.2329
   7123SM   C12 9234   4.610   7.518   7.295 -0.0100 -0.6133 -0.2870
   7123SM  H12A 9235   4.544   7.529   7.380 -0.4337 -0.2030 -0.6662
   7123SM  H12B 9236   4.655   7.425   7.330  0.3264  0.4828  2.4898
   7123SM   C11 9237   4.533   7.494   7.167 -0.3142  0.2341 -0.2815
   7123SM  H11A 9238   4.484   7.395   7.176  4.6632 -2.5511  0.0753
   7123SM  H11B 9239   4.603   7.491   7.081 -0.6868 -1.7267 -0.5691
   7123SM     P 9240   4.298   7.602   7.213 -0.2096  0.2314  0.0432
   7123SM   O13 9241   4.315   7.581   7.361  0.2195 -0.3323  0.1826
   7123SM   O14 9242   4.223   7.722   7.187  0.1951  0.2450  0.0913
   7123SM   O11 9243   4.241   7.470   7.137  0.3852  0.3229  0.3073
   7123SM   O12 9244   4.443   7.607   7.143 -0.0516  0.1959 -0.3060
   7123SM   C1S 9245   4.190   7.471   7.005  0.0015  0.2393 -0.3505
   7123SM   H1S 9246   4.199   7.571   6.957 -1.1370  0.9195  0.8169
   7123SM   H1T 9247   4.082   7.445   7.005 -0.7488  2.9639 -1.2215
   7123SM    NF 9248   4.256   7.409   6.771  0.2419  0.1806 -0.1611
   7123SM   HNF 9249   4.178   7.361   6.733  1.1530 -2.0425  0.6552
   7123SM   C2S 9250   4.286   7.385   6.912  0.6208 -0.0576  0.0853
   7123SM   H2S 9251   4.392   7.417   6.922  0.4655  2.6686 -4.3515
   7123SM   C3S 9252   4.264   7.236   6.953  0.1429 -0.2105  0.6761
   7123SM   H3S 9253   4.155   7.215   6.946  0.5703 -3.3350  1.6469
   7123SM    O3 9254   4.300   7.205   7.088  0.4144  0.0207  0.4002
   7123SM   HO3 9255   4.306   7.292   7.127 -0.8103  1.8957 -3.1742
   7123SM   C4S 9256   4.338   7.152   6.855  0.1489  0.0575 -0.3677
   7123SM   H4S 9257   4.268   7.104   6.785 -0.8270  0.7988  0.0676
   7123SM   C5S 9258   4.466   7.111   6.862 -0.6571  0.0124  0.1685
   7123SM   H5S 9259   4.515   7.119   6.959  0.0167  1.3373 -0.2633
   7123SM   C6S 9260   4.523   7.014   6.764 -0.3607 -0.0168 -0.1784
   7123SM   H6S 9261   4.587   6.941   6.817 -1.1817 -1.6287 -1.2747
   7123SM   H6T 9262   4.587   7.077   6.699 -1.0875  0.9561  0.0271
   7123SM   C7S 9263   4.435   6.933   6.672  0.4221  0.0446  0.6092
   7123SM   H7S 9264   4.344   6.886   6.715  0.4976  0.8868  1.7357
   7123SM   H7T 9265   4.504   6.857   6.629 -0.6025  0.4487 -1.9288
   7123SM   C8S 9266   4.395   7.031   6.551  0.8481  0.1190  0.4518
   7123SM   H8S 9267   4.487   7.089   6.529  1.1575 -0.0460  1.2529
   7123SM   H8T 9268   4.322   7.109   6.582 -0.8842 -0.5371 -1.7252
   7123SM   C9S 9269   4.352   6.954   6.417 -0.7034 -0.2494 -0.7157
   7123SM   H9S 9270   4.268   6.883   6.434 -0.3975 -0.6340 -0.8061
   7123SM   H9T 9271   4.430   6.890   6.372 -0.2190 -0.9276  0.9912
   7123SM  C10S 9272   4.305   7.047   6.301 -0.6329 -0.7834  0.4491
   7123SM  H10S 9273   4.392   7.101   6.258  0.8443 -2.3541  1.3543
   7123SM  H10T 9274   4.230   7.121   6.337 -1.0870  0.1378 -2.2111
   7123SM  C11S 9275   4.245   6.972   6.185 -0.5566 -0.1535  0.0649
   7123SM  H11S 9276   4.163   6.908   6.224  0.2219 -2.3175 -1.6094
   7123SM  H11T 9277   4.322   6.906   6.139  0.3526  1.2906 -0.5531
   7123SM  C12S 9278   4.188   7.049   6.061  0.1997  0.1962 -0.2292
   7123SM  H12S 9279   4.267   7.098   6.002 -0.7428  0.5078 -1.2770
   7123SM  H12T 9280   4.125   7.132   6.099 -1.4742  0.2426 -2.8455
   7123SM  C13S 9281   4.084   6.961   5.983 -0.0261 -0.0669 -0.5042
   7123SM  H13S 9282   4.005   6.953   6.060  0.2212 -0.2300 -0.2677
   7123SM  H13T 9283   4.129   6.866   5.949  0.4548 -0.4300  1.0702
   7123SM  C14S 9284   4.026   7.033   5.859 -0.8922  0.1960  0.1348
   7123SM  H14S 9285   4.011   7.140   5.885  1.8388  0.1562  2.2718
   7123SM  H14T 9286   3.928   6.985   5.838 -0.3370 -0.6074 -0.7408
   7123SM  C15S 9287   4.121   7.036   5.733 -0.0706  0.2985  0.1600
   7123SM  H15S 9288   4.149   6.932   5.707 -0.1074  0.2900  0.1538
   7123SM  H15T 9289   4.208   7.102   5.755 -1.2870  2.2925 -0.7510
   7123SM  C16S 9290   4.046   7.103   5.612  0.2514  0.3361  0.2376
   7123SM  H16S 9291   4.017   7.208   5.636 -1.1640  0.2980 -1.1034
   7123SM  H16T 9292   3.959   7.041   5.582 -0.1374 -0.0906  2.1285
   7123SM  C17S 9293   4.134   7.102   5.484  0.1254  0.2789  0.2179
   7123SM  H17S 9294   4.236   7.117   5.527 -0.5277 -0.5178  2.1734
   7123SM  H17T 9295   4.105   7.181   5.412  2.1737  0.7088 -0.2009
   7123SM  C18S 9296   4.133   6.962   5.415 -0.7958 -0.8945  0.7685
   7123SM  H18S 9297   4.127   6.882   5.491  1.7193 -2.4055 -0.4841
   7123SM  H18T 9298   4.223   6.951   5.350  0.3395  2.2082  1.6219
   7123SM  H18U 9299   4.040   6.948   5.356 -0.5686  1.1762 -0.1849
   7123SM   C1F 9300   4.297   7.518   6.709  0.1706 -0.5793  0.2318
   7123SM    OF 9301   4.366   7.605   6.762  0.9541 -0.1483 -0.1776
   7123SM   C2F 9302   4.250   7.526   6.566  0.2737 -0.3859  0.0809
   7123SM   H2F 9303   4.140   7.546   6.564 -0.3325 -3.0038  1.7207
   7123SM   H2G 9304   4.260   7.421   6.531  0.7917  0.5622 -2.8678
   7123SM   C3F 9305   4.337   7.614   6.475 -0.4356  0.0297  0.2086
   7123SM   H3F 9306   4.434   7.560   6.475 -1.2017 -1.6368 -3.2014
   7123SM   H3G 9307   4.356   7.712   6.523  0.3188  0.8061 -1.5806
   7123SM   C4F 9308   4.294   7.627   6.329 -0.2386 -0.4883  0.0253
   7123SM   H4F 9309   4.380   7.666   6.270 -0.7327 -1.1977 -1.2061
   7123SM   H4G 9310   4.210   7.699   6.320  0.1597  0.0483  0.4886
   7123SM   C5F 9311   4.257   7.493   6.255  0.0235 -0.3989 -0.4234
   7123SM   H5F 9312   4.186   7.431   6.314 -0.8377 -1.7467 -2.7454
   7123SM   H5G 9313   4.353   7.437   6.242 -0.1438 -0.8830  0.3561
   7123SM   C6F 9314   4.191   7.516   6.116  0.1384  0.0923  0.2814
   7123SM   H6F 9315   4.182   7.414   6.073 -2.5674  0.4845 -0.2358
   7123SM   H6G 9316   4.258   7.576   6.051  0.4565 -0.1841  0.3495
   7123SM   C7F 9317   4.052   7.582   6.127 -0.9322  0.2675 -0.4869
   7123SM   H7F 9318   4.070   7.691   6.137  0.0095  0.0599  0.3141
   7123SM   H7G 9319   4.002   7.551   6.221 -1.8301  2.5814 -0.1292
   7123SM   C8F 9320   3.969   7.554   6.006 -0.3698  0.6272  0.1046
   7123SM   H8F 9321   3.870   7.604   6.011 -1.3858 -1.2296 -0.4465
   7123SM   H8G 9322   3.944   7.447   5.991 -0.7809  0.7914 -0.3976
   7123SM   C9F 9323   4.038   7.589   5.874 -0.3298 -0.4537  0.2867
   7123SM   H9F 9324   4.130   7.532   5.849  0.4417  0.5263  0.8008
   7123SM   H9G 9325   4.069   7.696   5.877  0.9082 -0.6468 -2.3361
   7123SM  C10F 9326   3.950   7.572   5.757 -0.1099 -0.6260 -0.6558
   7123SM  H10F 9327   3.844   7.605   5.772  0.4516  0.2449  1.8408
   7123SM  H10G 9328   3.932   7.464   5.740  2.9846 -1.3676  0.2113
   7123SM  C11F 9329   4.000   7.634   5.626 -0.2279 -0.1901  0.3303
   7123SM  H11F 9330   4.110   7.638   5.617 -0.3700  1.4304 -1.0326
   7123SM  H11G 9331   3.967   7.740   5.624 -0.4297 -0.2608 -0.4504
   7123SM  C12F 9332   3.947   7.572   5.495  0.1178  0.3786  0.5192
   7123SM  H12F 9333   3.836   7.581   5.498 -0.1265  0.3637 -3.4087
   7123SM  H12G 9334   3.980   7.466   5.493 -0.0647  0.3172 -1.9572
   7123SM  C13F 9335   3.993   7.646   5.370  0.1135  0.3936  0.0550
   7123SM  H13F 9336   4.099   7.677   5.376  0.1724  0.4717 -1.2728
   7123SM  H13G 9337   3.929   7.737   5.361  0.0942  0.5655  1.6591
   7123SM  C14F 9338   3.982   7.563   5.243 -0.4413 -0.4279  0.4366
   7123SM  H14F 9339   3.989   7.636   5.160  2.4342 -0.2101  0.7681
   7123SM  H14G 9340   3.885   7.508   5.245 -2.1244  2.3744  0.4763
   7123SM  C15F 9341   4.089   7.459   5.219 -0.2312 -0.0657  0.4941
   7123SM  H15F 9342   4.087   7.388   5.305  0.1554 -0.5084  0.1447
   7123SM  H15G 9343   4.194   7.494   5.212  1.6808 -4.7541  1.6326
   7123SM  C16F 9344   4.054   7.372   5.096  0.1501 -0.0170 -0.3179
   7123SM  H16F 9345   4.114   7.407   5.009  0.1294 -1.7836 -1.0996
   7123SM  H16G 9346   3.948   7.383   5.063  0.8492  0.2193 -2.7202
   7123SM  C17F 9347   4.088   7.223   5.123 -0.2011  0.7744 -0.1265
   7123SM  H17F 9348   4.027   7.195   5.211  0.5270  1.7258  0.7060
   7123SM  H17G 9349   4.194   7.213   5.154 -0.5363 -4.3216  0.1976
   7123SM  C18F 9350   4.054   7.131   5.000 -0.0492  0.9610 -0.0170
   7123SM  H18F 9351   4.079   7.156   4.895 -0.2565 -1.8674 -0.8172
   7123SM  H18G 9352   3.947   7.103   4.993  0.4853 -0.6944 -4.3307
   7123SM  C19F 9353   4.106   6.986   5.010 -0.1625 -0.0227 -0.2454
   7123SM  H19F 9354   4.067   6.912   4.937  0.5184 -0.7784  0.1317
   7123SM  H19G 9355   4.084   6.945   5.111  2.9065 -1.5452 -0.0863
   7123SM  C20F 9356   4.257   6.977   4.994 -0.5149 -0.3055  0.6445
   7123SM  H20F 9357   4.313   7.057   5.045 -1.5656  0.9704 -0.1422
   7123SM  H20G 9358   4.266   6.988   4.884 -0.0789 -0.7932  0.6264
   7123SM  C21F 9359   4.325   6.849   5.027 -0.2945 -0.2359  0.2964
   7123SM  H21F 9360   4.276   6.772   4.964 -1.2017  0.9150 -0.4636
   7123SM  H21G 9361   4.295   6.839   5.133 -0.5901  3.0488  0.6159
   7123SM  C22F 9362   4.476   6.850   5.001 -0.1167 -0.0572 -0.0990
   7123SM  H22F 9363   4.528   6.927   5.062  0.3113 -0.1856 -0.2986
   7123SM  H22G 9364   4.482   6.878   4.893 -0.2721  3.7596  0.7391
   7123SM  C23F 9365   4.537   6.710   5.029 -0.1058 -0.1532  0.1537
   7123SM  H23F 9366   4.499   6.665   5.124  0.2169  0.9119  0.8092
   7123SM  H23G 9367   4.648   6.716   5.021 -0.1178  1.4284  0.7490
   7123SM  H23H 9368   4.505   6.643   4.946  0.8510  0.2908 -0.5896
   7223SM     N 9369   5.913   2.167   8.200 -0.4360 -0.5359 -0.4880
   7223SM   C15 9370   5.964   2.116   8.334 -0.4026  0.4351  0.6506
   7223SM  H15A 9371   6.071   2.103   8.327 -0.7787 -2.3863 -2.1295
   7223SM  H15B 9372   5.941   2.011   8.350  1.9506 -0.7877 -2.7439
   7223SM  H15C 9373   5.920   2.180   8.409 -3.0833  2.7117 -2.5521
   7223SM   C14 9374   5.760   2.152   8.197  0.2475  0.5523 -0.4525
   7223SM  H14A 9375   5.724   2.195   8.289  1.7579  0.2770  0.3159
   7223SM  H14B 9376   5.747   2.045   8.207 -0.3324  0.5648 -1.0584
   7223SM  H14C 9377   5.715   2.190   8.107  0.3292  0.6243 -0.4633
   7223SM   C13 9378   5.953   2.311   8.196 -0.2756 -0.8065  0.3751
   7223SM  H13A 9379   5.925   2.362   8.105  0.4467  1.0700  1.1617
   7223SM  H13B 9380   6.061   2.320   8.195 -0.2437 -0.9614  1.3880
   7223SM  H13C 9381   5.915   2.372   8.276  0.2271  0.0220 -0.0036
   7223SM   C12 9382   5.977   2.089   8.084 -0.4656 -0.0100 -0.0256
   7223SM  H12A 9383   6.071   2.134   8.057  0.6414 -2.6212 -0.8204
   7223SM  H12B 9384   5.915   2.099   7.997  1.1077  1.6090 -1.0096
   7223SM   C11 9385   5.988   1.941   8.102 -0.2491 -0.6387  0.0361
   7223SM  H11A 9386   6.069   1.906   8.170  0.7279 -2.3305 -1.9052
   7223SM  H11B 9387   6.021   1.907   8.002 -0.3740 -0.1793 -0.1622
   7223SM     P 9388   5.754   1.829   8.037  0.1366  0.2168 -0.0296
   7223SM   O13 9389   5.789   1.703   7.962 -0.1844 -0.7459  0.3345
   7223SM   O14 9390   5.637   1.813   8.124 -0.0652  0.6195 -0.0445
   7223SM   O11 9391   5.720   1.947   7.941  0.1524 -0.3336 -0.0375
   7223SM   O12 9392   5.867   1.870   8.135 -0.0619 -0.8784 -0.3168
   7223SM   C1S 9393   5.796   1.963   7.823 -0.1641 -0.6172 -0.3312
   7223SM   H1S 9394   5.890   1.903   7.825  1.3593  1.6650  0.1705
   7223SM   H1T 9395   5.834   2.065   7.803 -1.1735 -0.3005 -0.7027
   7223SM    NF 9396   5.801   1.946   7.584 -0.1537 -0.1375  0.0087
   7223SM   HNF 9397   5.786   2.037   7.545  2.1616  0.8664  1.2661
   7223SM   C2S 9398   5.711   1.921   7.694 -0.4420 -0.5637 -0.4271
   7223SM   H2S 9399   5.686   1.814   7.706  2.1913 -1.2481 -0.4185
   7223SM   C3S 9400   5.577   1.991   7.686 -0.2239 -0.3058 -0.7599
   7223SM   H3S 9401   5.595   2.100   7.691  4.5363 -0.9113 -0.6702
   7223SM    O3 9402   5.494   1.956   7.795 -0.4188  0.3851  0.3192
   7223SM   HO3 9403   5.564   1.938   7.858  0.1955 -0.1156 -0.4966
   7223SM   C4S 9404   5.501   1.942   7.565  0.2979  0.1180 -0.4277
   7223SM   H4S 9405   5.480   1.835   7.571  0.6148  0.1149  1.0530
   7223SM   C5S 9406   5.441   2.018   7.470  0.5759  0.1337 -0.3826
   7223SM   H5S 9407   5.454   2.127   7.471  0.7531  0.1243 -1.1555
   7223SM   C6S 9408   5.357   1.960   7.355 -0.1736  0.2185  0.3028
   7223SM   H6S 9409   5.249   1.964   7.382 -0.5558  0.8633 -1.2504
   7223SM   H6T 9410   5.388   1.857   7.325 -1.8742 -0.2798  0.1586
   7223SM   C7S 9411   5.372   2.060   7.237  0.3443 -0.4639  0.4551
   7223SM   H7S 9412   5.341   2.165   7.255 -1.3025 -0.7041 -0.7582
   7223SM   H7T 9413   5.304   2.025   7.156 -1.9218  1.3390  1.4668
   7223SM   C8S 9414   5.504   2.062   7.168 -0.0148  0.3716 -0.4842
   7223SM   H8S 9415   5.530   1.956   7.147  2.5363  0.2490  2.5255
   7223SM   H8T 9416   5.574   2.099   7.246  0.9621 -2.3537  0.0280
   7223SM   C9S 9417   5.508   2.148   7.040  0.3351 -0.0524 -0.2586
   7223SM   H9S 9418   5.488   2.251   7.076 -0.1573 -0.6944  1.4184
   7223SM   H9T 9419   5.425   2.117   6.973  0.5421 -0.9603 -0.1120
   7223SM  C10S 9420   5.642   2.133   6.969 -0.2982  0.8259  0.0123
   7223SM  H10S 9421   5.663   2.028   6.936  2.7744  1.2021  0.5102
   7223SM  H10T 9422   5.732   2.157   7.029  1.4048 -0.9017 -1.6944
   7223SM  C11S 9423   5.641   2.222   6.840  0.6111  0.0943 -0.5971
   7223SM  H11S 9424   5.656   2.327   6.872 -0.0875 -0.7244  2.8285
   7223SM  H11T 9425   5.539   2.205   6.798 -0.3440  1.1844  1.1480
   7223SM  C12S 9426   5.749   2.191   6.730  0.4715 -0.2502 -0.7176
   7223SM  H12S 9427   5.745   2.082   6.713  2.1819 -0.5534  0.5569
   7223SM  H12T 9428   5.850   2.205   6.774 -0.2912  0.4953  0.8885
   7223SM  C13S 9429   5.735   2.274   6.595  0.2856  0.6952  0.3834
   7223SM  H13S 9430   5.774   2.376   6.614 -0.0129  1.0075 -0.6182
   7223SM  H13T 9431   5.628   2.285   6.570  0.3650 -1.4844 -1.2294
   7223SM  C14S 9432   5.816   2.217   6.476  0.6903  0.1132  0.1282
   7223SM  H14S 9433   5.894   2.150   6.518 -0.1762 -1.0339 -0.0454
   7223SM  H14T 9434   5.852   2.304   6.417 -2.1358  1.2475 -0.0842
   7223SM  C15S 9435   5.729   2.136   6.375  0.0200 -0.3224 -0.3379
   7223SM  H15S 9436   5.623   2.168   6.372 -0.2894 -1.1688 -4.7302
   7223SM  H15T 9437   5.735   2.031   6.412  0.4808 -0.3511 -0.4873
   7223SM  C16S 9438   5.769   2.147   6.229  0.1872 -0.0399  0.5489
   7223SM  H16S 9439   5.880   2.153   6.221  0.2151 -1.7899 -0.9123
   7223SM  H16T 9440   5.734   2.243   6.186 -0.1972  0.1443  1.2573
   7223SM  C17S 9441   5.723   2.027   6.145  0.0359  0.4876 -0.1090
   7223SM  H17S 9442   5.615   2.003   6.159 -0.4106  0.2763 -3.2220
   7223SM  H17T 9443   5.783   1.942   6.184  1.1682  1.3457  0.0658
   7223SM  C18S 9444   5.745   2.040   5.993  0.0742  0.1038 -0.0454
   7223SM  H18S 9445   5.738   2.143   5.952  0.1314 -0.0608 -0.4695
   7223SM  H18T 9446   5.678   1.973   5.935  0.5392  0.1969 -0.6939
   7223SM  H18U 9447   5.847   2.004   5.967  0.2390  1.0321 -0.7336
   7223SM   C1F 9448   5.890   1.858   7.553 -0.3812 -0.1274  0.7371
   7223SM    OF 9449   5.901   1.756   7.622  0.5909 -0.6702 -0.3616
   7223SM   C2F 9450   5.980   1.888   7.434 -0.1444 -0.3636  0.7358
   7223SM   H2F 9451   5.969   1.995   7.406  0.6210 -0.2475  0.8634
   7223SM   H2G 9452   5.940   1.826   7.350  2.4432 -0.7265 -0.3133
   7223SM   C3F 9453   6.127   1.852   7.455 -0.5751 -0.1735  0.2816
   7223SM   H3F 9454   6.141   1.752   7.500  0.7721 -0.5428 -0.8604
   7223SM   H3G 9455   6.174   1.920   7.530 -1.5238 -1.0339  1.6983
   7223SM   C4F 9456   6.208   1.860   7.328  0.8656 -0.5382 -0.0739
   7223SM   H4F 9457   6.178   1.773   7.265  2.1955 -0.7377 -0.4498
   7223SM   H4G 9458   6.311   1.845   7.366  0.1351  0.4845  2.4972
   7223SM   C5F 9459   6.195   2.001   7.253  0.2371 -0.0723 -0.4179
   7223SM   H5F 9460   6.232   2.083   7.318  0.4685 -0.3738 -0.1663
   7223SM   H5G 9461   6.090   2.018   7.221  0.8235 -0.5666 -2.8070
   7223SM   C6F 9462   6.270   1.989   7.118  0.5559 -0.3356 -0.0281
   7223SM   H6F 9463   6.266   2.095   7.087 -1.3218 -0.5637 -0.6765
   7223SM   H6G 9464   6.220   1.923   7.044  0.2906 -1.8190  1.4130
   7223SM   C7F 9465   6.418   1.956   7.121  0.0925  0.1001 -0.7122
   7223SM   H7F 9466   6.420   1.849   7.151  1.6599 -0.0064 -1.0632
   7223SM   H7G 9467   6.453   2.021   7.204 -1.0069 -0.7166  0.4236
   7223SM   C8F 9468   6.493   2.010   6.994 -0.1753  0.1358  0.4439
   7223SM   H8F 9469   6.600   1.987   7.013 -0.1579 -0.8591 -0.7445
   7223SM   H8G 9470   6.478   2.119   6.986  1.7013  0.5001  1.3363
   7223SM   C9F 9471   6.451   1.930   6.867 -0.4385 -0.2313 -0.2124
   7223SM   H9F 9472   6.348   1.956   6.835 -1.1102 -0.5031  1.5893
   7223SM   H9G 9473   6.441   1.825   6.904 -0.1041 -0.0391  0.4450
   7223SM  C10F 9474   6.550   1.948   6.746 -0.2445  0.3867  0.4430
   7223SM  H10F 9475   6.654   1.912   6.763  0.1652  1.9776  1.4951
   7223SM  H10G 9476   6.555   2.059   6.738  0.1504  0.3959  0.7955
   7223SM  C11F 9477   6.503   1.883   6.610  0.3437  0.3553 -0.4125
   7223SM  H11F 9478   6.584   1.899   6.535  0.4530  1.6070 -0.0470
   7223SM  H11G 9479   6.414   1.932   6.564  0.5309  0.2171 -0.9405
   7223SM  C12F 9480   6.480   1.729   6.631  0.2840  0.7935  0.6428
   7223SM  H12F 9481   6.395   1.712   6.701 -0.1607  0.4117  0.0234
   7223SM  H12G 9482   6.573   1.687   6.675  1.6585  3.1298  0.1190
   7223SM  C13F 9483   6.439   1.659   6.498  0.0880  0.7427 -0.1671
   7223SM  H13F 9484   6.508   1.697   6.419 -0.3991  0.7445 -0.5986
   7223SM  H13G 9485   6.335   1.687   6.471  0.5939  1.5909 -1.3174
   7223SM  C14F 9486   6.446   1.507   6.512 -0.0043  0.0454  0.4786
   7223SM  H14F 9487   6.357   1.467   6.564  0.5452  0.1797  1.5619
   7223SM  H14G 9488   6.536   1.468   6.564 -0.9496 -0.7366  1.5504
   7223SM  C15F 9489   6.442   1.439   6.377 -0.0239  0.0756  0.4933
   7223SM  H15F 9490   6.466   1.332   6.389 -1.9142 -0.4837 -0.3244
   7223SM  H15G 9491   6.517   1.470   6.301  0.1191 -1.6573 -0.1039
   7223SM  C16F 9492   6.302   1.440   6.302 -0.1638  0.0493  0.6923
   7223SM  H16F 9493   6.271   1.546   6.300  0.6170  0.2759  0.4223
   7223SM  H16G 9494   6.229   1.379   6.359  1.1540 -2.3633 -0.0511
   7223SM  C17F 9495   6.321   1.386   6.160 -0.2956  0.4966 -0.2756
   7223SM  H17F 9496   6.225   1.347   6.119 -0.3344  1.6060 -1.3129
   7223SM  H17G 9497   6.386   1.296   6.160 -0.1792  0.5501 -1.7924
   7223SM  C18F 9498   6.359   1.490   6.064 -0.1578 -0.4285  0.4562
   7223SM  H18F 9499   6.465   1.522   6.064 -0.1116 -0.5736  0.1429
   7223SM  H18G 9500   6.306   1.587   6.075  0.5826 -0.2197  2.4462
   7223SM  C19F 9501   6.322   1.446   5.919 -0.1590  0.5962 -0.2842
   7223SM  H19F 9502   6.354   1.524   5.848  2.6377  0.6395  0.8996
   7223SM  H19G 9503   6.212   1.432   5.910 -0.2743 -0.0656  1.6593
   7223SM  C20F 9504   6.387   1.312   5.881 -1.0275 -0.5827  0.8485
   7223SM  H20F 9505   6.366   1.295   5.773  0.2653  0.4011  0.4243
   7223SM  H20G 9506   6.337   1.229   5.937 -1.8263 -0.1367  0.8148
   7223SM  C21F 9507   6.542   1.318   5.893  0.4773  0.5308  0.1900
   7223SM  H21F 9508   6.565   1.345   5.999 -1.5681  1.2398  0.4960
   7223SM  H21G 9509   6.575   1.391   5.815  0.2187 -1.4074 -1.8245
   7223SM  C22F 9510   6.611   1.193   5.841 -0.7986  0.5663  0.1235
   7223SM  H22F 9511   6.721   1.209   5.849 -0.7274 -0.2971  1.1166
   7223SM  H22G 9512   6.585   1.169   5.736 -2.2037  0.5457  0.4530
   7223SM  C23F 9513   6.571   1.076   5.926  0.1780 -0.1038  0.6711
   7223SM  H23F 9514   6.466   1.063   5.960  0.4087 -2.8665  0.5822
   7223SM  H23G 9515   6.634   1.067   6.018  0.9137 -0.9705  0.1025
   7223SM  H23H 9516   6.604   0.990   5.863 -3.0429 -0.3147 -0.8940
   7323SM     N 9517   4.123   0.959   7.524  0.2772  0.0119  0.2683
   7323SM   C15 9518   4.211   0.996   7.633 -0.1626  0.1800 -0.1222
   7323SM  H15A 9519   4.275   0.915   7.664  1.1689  0.6319 -1.5669
   7323SM  H15B 9520   4.153   1.032   7.717 -1.1705  0.4464 -0.9124
   7323SM  H15C 9521   4.272   1.080   7.602 -1.4568  0.4983 -1.9407
   7323SM   C14 9522   4.199   0.944   7.397  0.2570  0.7090 -0.0542
   7323SM  H14A 9523   4.128   0.940   7.315  0.4545 -0.4367 -0.1920
   7323SM  H14B 9524   4.248   0.848   7.398 -0.6095  0.1906 -1.7264
   7323SM  H14C 9525   4.265   1.025   7.370  1.4451  0.0713  0.8439
   7323SM   C13 9526   4.054   0.829   7.559  0.2857 -0.3790  0.2704
   7323SM  H13A 9527   3.967   0.799   7.502  0.4704 -1.6639  0.6372
   7323SM  H13B 9528   4.020   0.833   7.662 -1.6670 -3.7431 -0.1246
   7323SM  H13C 9529   4.123   0.750   7.536 -0.5390 -0.8256 -0.7394
   7323SM   C12 9530   4.019   1.074   7.503 -0.0757 -0.3320 -0.4240
   7323SM  H12A 9531   4.071   1.168   7.515  0.4931 -0.6474 -0.4237
   7323SM  H12B 9532   3.953   1.060   7.588  0.1730 -1.3043 -0.3777
   7323SM   C11 9533   3.923   1.071   7.378 -0.1064 -0.5058 -0.3666
   7323SM  H11A 9534   3.995   1.086   7.295 -0.0212 -0.2684 -0.2489
   7323SM  H11B 9535   3.847   1.151   7.386 -0.7029 -1.1230  0.3277
   7323SM     P 9536   3.812   0.885   7.224  0.0335 -0.2249 -0.1739
   7323SM   O13 9537   3.878   0.753   7.193 -0.2129 -0.1305  0.3482
   7323SM   O14 9538   3.665   0.892   7.227 -0.0314 -0.1505  0.1511
   7323SM   O11 9539   3.852   0.985   7.107  0.3344  0.4107  0.1661
   7323SM   O12 9540   3.865   0.939   7.367 -0.2009  0.2347  0.3200
   7323SM   C1S 9541   3.983   0.976   7.047 -0.3577 -0.9633 -0.2722
   7323SM   H1S 9542   3.993   0.885   6.985 -1.7094 -0.9259 -0.5771
   7323SM   H1T 9543   4.069   0.975   7.117 -0.6360 -2.7351  0.0807
   7323SM    NF 9544   4.127   1.085   6.867 -0.5416 -0.4334  0.5837
   7323SM   HNF 9545   4.210   1.120   6.909  0.9371 -0.7143 -1.9080
   7323SM   C2S 9546   4.009   1.100   6.947 -0.0865 -0.1235 -0.2251
   7323SM   H2S 9547   3.927   1.093   6.872  1.5398 -1.9412 -1.9713
   7323SM   C3S 9548   3.998   1.226   7.030 -0.4207  0.7228  0.9093
   7323SM   H3S 9549   4.076   1.222   7.109 -0.5607  1.4874  1.1011
   7323SM    O3 9550   3.875   1.240   7.109 -0.1438 -0.1926  0.2867
   7323SM   HO3 9551   3.840   1.152   7.098  1.4293 -1.1703  2.3906
   7323SM   C4S 9552   4.012   1.345   6.939 -0.2808 -0.3000  0.1936
   7323SM   H4S 9553   4.112   1.392   6.946 -1.2970  1.9491  0.5319
   7323SM   C5S 9554   3.921   1.388   6.857  0.2403 -0.8549  0.1380
   7323SM   H5S 9555   3.836   1.319   6.847  0.1654 -0.5177 -2.1659
   7323SM   C6S 9556   3.941   1.503   6.757  0.1564  0.5225  0.1102
   7323SM   H6S 9557   4.040   1.553   6.755  1.4262 -1.8582  0.3778
   7323SM   H6T 9558   3.866   1.582   6.780  0.9040  1.6576 -1.1600
   7323SM   C7S 9559   3.929   1.453   6.617 -0.4265  0.5938  0.7302
   7323SM   H7S 9560   3.836   1.397   6.594  0.5700 -0.3794 -1.1793
   7323SM   H7T 9561   4.001   1.371   6.598  2.1968  2.6537  1.1891
   7323SM   C8S 9562   3.940   1.566   6.518 -1.0073  0.2394 -0.9229
   7323SM   H8S 9563   4.031   1.624   6.540 -2.1789  0.9818  2.5133
   7323SM   H8T 9564   3.851   1.630   6.536  1.6867  4.1410 -0.2321
   7323SM   C9S 9565   3.924   1.515   6.383 -0.7770  0.5127 -0.0219
   7323SM   H9S 9566   3.838   1.445   6.378 -0.5673  0.1821  0.7572
   7323SM   H9T 9567   4.020   1.464   6.357 -2.7969 -2.3773 -2.4954
   7323SM  C10S 9568   3.899   1.623   6.279  0.1367 -0.4586 -0.5467
   7323SM  H10S 9569   3.983   1.695   6.292  0.1850 -0.5621 -0.2832
   7323SM  H10T 9570   3.801   1.671   6.299 -0.2830 -1.5277  0.0264
   7323SM  C11S 9571   3.904   1.572   6.135  0.1564 -0.3259 -0.5087
   7323SM  H11S 9572   3.814   1.508   6.123 -0.2492  0.0045  0.6783
   7323SM  H11T 9573   3.999   1.517   6.117 -0.8220 -3.0083  1.8437
   7323SM  C12S 9574   3.889   1.693   6.038 -0.2074 -0.3413 -0.3540
   7323SM  H12S 9575   3.988   1.744   6.030 -0.0408 -0.2735  1.6067
   7323SM  H12T 9576   3.812   1.754   6.089 -0.1903 -0.8077  0.2426
   7323SM  C13S 9577   3.850   1.655   5.897  0.1882 -0.1085  0.0156
   7323SM  H13S 9578   3.758   1.593   5.898  0.4073 -0.4915 -1.4141
   7323SM  H13T 9579   3.924   1.597   5.837 -2.3728 -2.5472 -1.0197
   7323SM  C14S 9580   3.818   1.778   5.810  0.3573  0.5395  0.2023
   7323SM  H14S 9581   3.907   1.845   5.809  2.5481 -1.9689 -4.2102
   7323SM  H14T 9582   3.719   1.820   5.836 -0.1332 -1.1448  1.2201
   7323SM  C15S 9583   3.809   1.744   5.657 -0.5334  0.3621 -0.4220
   7323SM  H15S 9584   3.718   1.688   5.630 -0.2295  0.2474 -1.2400
   7323SM  H15T 9585   3.898   1.682   5.634  0.2964  1.6188 -0.7322
   7323SM  C16S 9586   3.819   1.866   5.571 -0.3979 -0.0696  0.4387
   7323SM  H16S 9587   3.915   1.921   5.581  0.7197 -1.3951 -2.1744
   7323SM  H16T 9588   3.740   1.942   5.589 -1.0607 -0.4955 -0.5814
   7323SM  C17S 9589   3.796   1.825   5.419 -0.6056 -0.4774 -0.5710
   7323SM  H17S 9590   3.691   1.802   5.393  0.2857 -3.2734 -2.0966
   7323SM  H17T 9591   3.855   1.733   5.399  0.4980  0.1090 -0.1450
   7323SM  C18S 9592   3.849   1.930   5.319  0.3681 -0.0920  0.0495
   7323SM  H18S 9593   3.803   2.029   5.340  1.8979  0.2614  1.9878
   7323SM  H18T 9594   3.837   1.904   5.211  0.0525 -0.1654  0.1033
   7323SM  H18U 9595   3.956   1.959   5.332  0.1567  1.6696 -1.5294
   7323SM   C1F 9596   4.140   1.000   6.772 -0.1633  0.5844 -0.0425
   7323SM    OF 9597   4.052   0.916   6.747  0.1118 -0.0055 -0.0632
   7323SM   C2F 9598   4.277   0.976   6.706  0.1519  0.7495 -0.9988
   7323SM   H2F 9599   4.320   0.876   6.731 -0.2219  1.1204  1.4409
   7323SM   H2G 9600   4.348   1.057   6.731  0.2541  0.1868  0.7008
   7323SM   C3F 9601   4.267   0.966   6.550 -0.2306  0.9315 -0.2644
   7323SM   H3F 9602   4.368   0.958   6.505 -0.6763 -2.7400 -0.9898
   7323SM   H3G 9603   4.211   1.053   6.510  0.0645 -0.3777 -3.8848
   7323SM   C4F 9604   4.206   0.837   6.492  0.0132  0.6877 -0.3696
   7323SM   H4F 9605   4.190   0.839   6.382 -0.4998  2.0787 -0.2850
   7323SM   H4G 9606   4.101   0.821   6.526  0.0680 -0.5849 -0.7528
   7323SM   C5F 9607   4.287   0.697   6.518  0.7538 -0.1536 -0.0525
   7323SM   H5F 9608   4.224   0.615   6.560 -0.0615  0.9517  0.9702
   7323SM   H5G 9609   4.359   0.716   6.601  1.4276 -2.7962  0.0858
   7323SM   C6F 9610   4.374   0.656   6.404  0.5596  0.5656 -0.7960
   7323SM   H6F 9611   4.475   0.702   6.398  0.1900  1.3764 -0.9975
   7323SM   H6G 9612   4.320   0.698   6.316  0.3049  2.1144  0.0532
   7323SM   C7F 9613   4.384   0.500   6.387  0.3288 -0.1729 -0.5662
   7323SM   H7F 9614   4.286   0.453   6.361  0.4632 -1.5390  1.2074
   7323SM   H7G 9615   4.417   0.458   6.485 -0.7826  0.3570  0.0545
   7323SM   C8F 9616   4.493   0.462   6.291 -0.2757 -0.0928 -0.1300
   7323SM   H8F 9617   4.575   0.432   6.359 -0.5288  1.4524  0.9188
   7323SM   H8G 9618   4.528   0.551   6.235 -0.4659 -0.5031 -0.9169
   7323SM   C9F 9619   4.459   0.360   6.187 -0.7122 -0.1595  0.3664
   7323SM   H9F 9620   4.365   0.377   6.129 -0.7023 -1.4303 -0.0422
   7323SM   H9G 9621   4.426   0.265   6.234 -0.7869 -1.0043 -1.3221
   7323SM  C10F 9622   4.578   0.324   6.098  0.4503 -0.1400 -0.4575
   7323SM  H10F 9623   4.659   0.286   6.164 -1.2882 -0.4194  1.6196
   7323SM  H10G 9624   4.604   0.421   6.052  0.6683  0.1956  0.3684
   7323SM  C11F 9625   4.551   0.209   5.994 -0.2516  0.0094  0.2629
   7323SM  H11F 9626   4.492   0.136   6.054  0.9045  0.8411  2.5218
   7323SM  H11G 9627   4.647   0.163   5.962  1.3923  3.0917  0.4161
   7323SM  C12F 9628   4.471   0.257   5.877  0.4200 -0.1919  0.7143
   7323SM  H12F 9629   4.527   0.318   5.803 -1.2953 -0.6429 -1.0559
   7323SM  H12G 9630   4.400   0.337   5.907 -0.3502  0.1675 -1.8484
   7323SM  C13F 9631   4.401   0.149   5.793  0.5134 -0.6838 -0.0523
   7323SM  H13F 9632   4.305   0.122   5.841 -0.9133  1.6801 -1.4205
   7323SM  H13G 9633   4.465   0.060   5.813  0.4796 -0.4664  1.0823
   7323SM  C14F 9634   4.370   0.175   5.645 -0.1062 -0.0156 -0.2916
   7323SM  H14F 9635   4.373   0.285   5.628  1.1295 -0.1821 -1.3356
   7323SM  H14G 9636   4.265   0.140   5.630 -1.6303  3.2849  1.5432
   7323SM  C15F 9637   4.452   0.097   5.550 -0.2216 -0.7754  0.5152
   7323SM  H15F 9638   4.429  -0.010   5.569 -4.9467  0.1115  0.9644
   7323SM  H15G 9639   4.558   0.130   5.548 -0.2236 -0.7830 -0.7782
   7323SM  C16F 9640   4.413   0.128   5.401  0.4859 -0.5726 -0.3665
   7323SM  H16F 9641   4.414   0.237   5.379  0.3420 -0.1049  1.7311
   7323SM  H16G 9642   4.307   0.096   5.392  0.6950 -1.2469 -0.4869
   7323SM  C17F 9643   4.491   0.057   5.292  0.4171 -0.5241  0.6872
   7323SM  H17F 9644   4.484  -0.054   5.297  0.4606 -0.4995  1.5393
   7323SM  H17G 9645   4.597   0.091   5.289  1.1706 -2.7105 -2.5243
   7323SM  C18F 9646   4.438   0.098   5.153  0.0597  0.3773  0.0214
   7323SM  H18F 9647   4.429   0.209   5.152 -0.1165  0.3593 -0.7179
   7323SM  H18G 9648   4.335   0.057   5.154 -0.5185  1.3520  4.5846
   7323SM  C19F 9649   4.534   0.066   5.032  0.1620  0.6188 -0.4671
   7323SM  H19F 9650   4.639   0.092   5.058 -0.2034  0.6993  1.0546
   7323SM  H19G 9651   4.525   0.137   4.947 -1.5611  1.1749  0.1190
   7323SM  C20F 9652   4.521  -0.072   4.978 -0.4998  0.7282  0.6392
   7323SM  H20F 9653   4.524  -0.154   5.053 -1.2539 -0.7645 -0.8872
   7323SM  H20G 9654   4.609  -0.077   4.909 -0.0011 -1.4480  1.3499
   7323SM  C21F 9655   4.394  -0.095   4.903  0.2732 -0.3120  1.2903
   7323SM  H21F 9656   4.365  -0.018   4.828 -0.6054 -1.6707  0.1827
   7323SM  H21G 9657   4.305  -0.107   4.969 -1.1056 -0.2054 -0.4492
   7323SM  C22F 9658   4.386  -0.224   4.832  0.4674  0.5283 -0.2028
   7323SM  H22F 9659   4.457  -0.230   4.747  3.0547 -0.6817  1.8518
   7323SM  H22G 9660   4.284  -0.228   4.790  0.6194  1.8798 -0.7473
   7323SM  C23F 9661   4.421  -0.349   4.913  0.1726  0.2759  0.6825
   7323SM  H23F 9662   4.399  -0.443   4.857  2.9870  0.3038 -0.6408
   7323SM  H23G 9663   4.359  -0.334   5.003  0.0743 -1.4099  0.9316
   7323SM  H23H 9664   4.527  -0.355   4.947 -0.0198  0.2732  1.3004
   7423SM     N 9665   0.924   5.196   7.793  0.3152  0.2500  0.2203
   7423SM   C15 9666   0.904   5.046   7.782 -0.0772 -0.5063  0.3490
   7423SM  H15A 9667   0.801   5.016   7.789 -0.9420  1.7611 -1.2892
   7423SM  H15B 9668   0.967   4.991   7.850  1.4291  0.2943 -0.3446
   7423SM  H15C 9669   0.933   5.015   7.682 -4.6719 -1.9396 -0.7741
   7423SM   C14 9670   0.884   5.252   7.923 -0.1425  0.1121  0.4517
   7423SM  H14A 9671   0.874   5.359   7.920  1.8029  0.3134 -0.4660
   7423SM  H14B 9672   0.959   5.235   7.999  0.6472  0.7803 -0.1654
   7423SM  H14C 9673   0.791   5.212   7.961 -1.3936  2.5783  0.1794
   7423SM   C13 9674   1.071   5.220   7.784 -0.4786 -0.1418 -0.3819
   7423SM  H13A 9675   1.122   5.155   7.854 -0.4358  0.6765  0.3493
   7423SM  H13B 9676   1.077   5.324   7.809 -2.0913  0.3591 -1.8957
   7423SM  H13C 9677   1.099   5.211   7.680 -1.7106 -0.0245 -0.7362
   7423SM   C12 9678   0.849   5.268   7.686 -0.2385 -0.1291  0.7228
   7423SM  H12A 9679   0.862   5.374   7.702  0.4668 -0.6083  4.2035
   7423SM  H12B 9680   0.746   5.248   7.714 -0.3809  0.6737  0.8001
   7423SM   C11 9681   0.875   5.228   7.541  0.3535  0.1357  0.6257
   7423SM  H11A 9682   0.811   5.298   7.484 -1.4896  0.0610  2.4683
   7423SM  H11B 9683   0.831   5.126   7.530 -0.7943  0.4012  2.3047
   7423SM     P 9684   1.068   5.383   7.445  0.3039  0.6358  0.2553
   7423SM   O13 9685   1.034   5.484   7.550  0.7838 -0.3665  0.5652
   7423SM   O14 9686   1.216   5.362   7.419  0.0621 -0.2559  0.1549
   7423SM   O11 9687   1.000   5.390   7.308  0.6701 -0.3593  0.3865
   7423SM   O12 9688   1.011   5.244   7.503  0.0488  0.7486 -0.2385
   7423SM   C1S 9689   0.989   5.272   7.221 -0.5485  0.2275 -0.4713
   7423SM   H1S 9690   0.920   5.204   7.276 -1.2143  0.5296 -0.9164
   7423SM   H1T 9691   1.085   5.218   7.213 -0.0144  1.0355  0.3357
   7423SM    NF 9692   0.898   5.200   6.998  0.0264  0.1701 -0.4316
   7423SM   HNF 9693   0.959   5.166   6.927  0.3613 -0.1070 -0.0177
   7423SM   C2S 9694   0.939   5.308   7.079  0.0858 -0.5141  0.5707
   7423SM   H2S 9695   0.852   5.377   7.085  0.5513  0.1717 -0.3496
   7423SM   C3S 9696   1.052   5.397   7.010  0.2194 -0.3301 -0.0463
   7423SM   H3S 9697   1.150   5.345   7.020  0.9037  1.1637  1.6370
   7423SM    O3 9698   1.095   5.506   7.084  0.8075 -0.3473 -0.4015
   7423SM   HO3 9699   1.084   5.479   7.175  1.1504  2.1787  0.4850
   7423SM   C4S 9700   1.033   5.440   6.864 -0.3017 -0.6308 -0.3521
   7423SM   H4S 9701   1.054   5.357   6.795 -0.2941 -1.5654  0.7617
   7423SM   C5S 9702   0.970   5.549   6.830 -0.3008 -0.3129  1.2188
   7423SM   H5S 9703   0.949   5.631   6.901 -0.0922  0.8311 -0.0005
   7423SM   C6S 9704   0.941   5.593   6.691  0.1607 -0.1867  1.0532
   7423SM   H6S 9705   0.967   5.701   6.687 -2.4761  0.5034 -2.9463
   7423SM   H6T 9706   0.831   5.598   6.673  0.2579  0.7407  0.6685
   7423SM   C7S 9707   1.019   5.523   6.571  0.4246  0.0922  0.7769
   7423SM   H7S 9708   0.989   5.416   6.580  0.3017 -0.0050 -0.6593
   7423SM   H7T 9709   1.128   5.533   6.593  0.7169  0.9906 -0.9564
   7423SM   C8S 9710   0.981   5.581   6.440  0.2700 -0.3521 -0.3791
   7423SM   H8S 9711   0.996   5.691   6.437 -0.3586 -0.2075  1.0215
   7423SM   H8T 9712   0.870   5.574   6.427  0.0804  2.0401 -0.5257
   7423SM   C9S 9713   1.065   5.505   6.332 -0.0898  0.1334 -0.1494
   7423SM   H9S 9714   1.049   5.395   6.334 -0.2752  0.1164 -1.3888
   7423SM   H9T 9715   1.172   5.524   6.350  0.5560 -1.1734 -2.2595
   7423SM  C10S 9716   1.027   5.568   6.193 -0.4455  0.0766  0.5232
   7423SM  H10S 9717   1.056   5.675   6.189 -1.2946  0.2923 -0.5440
   7423SM  H10T 9718   0.917   5.564   6.174 -0.4620  1.4889  0.1848
   7423SM  C11S 9719   1.103   5.489   6.080 -0.0099 -0.6979  0.7273
   7423SM  H11S 9720   1.213   5.504   6.088 -0.1953  0.8160  0.8105
   7423SM  H11T 9721   1.073   5.551   5.993 -0.6560  0.5122  1.7683
   7423SM  C12S 9722   1.057   5.347   6.061  0.8615 -0.1129  0.4760
   7423SM  H12S 9723   0.950   5.348   6.031  1.5131  2.5363 -2.2846
   7423SM  H12T 9724   1.075   5.290   6.154  0.2335 -0.1723  0.5671
   7423SM  C13S 9725   1.120   5.281   5.933 -0.2516 -0.2107 -0.2049
   7423SM  H13S 9726   1.091   5.174   5.931 -1.8490  0.1515  1.3046
   7423SM  H13T 9727   1.227   5.288   5.963 -0.4828 -0.3985  0.6885
   7423SM  C14S 9728   1.096   5.353   5.792 -0.2961  0.8793  0.2571
   7423SM  H14S 9729   1.139   5.300   5.704  0.2997  3.8547 -1.3846
   7423SM  H14T 9730   1.156   5.446   5.801 -0.0215  0.6428  0.9155
   7423SM  C15S 9731   0.945   5.389   5.767  0.1386  0.4534  0.2676
   7423SM  H15S 9732   0.943   5.456   5.678  0.4581  1.0774  0.7220
   7423SM  H15T 9733   0.899   5.451   5.847 -0.3032  1.6002 -0.8362
   7423SM  C16S 9734   0.852   5.264   5.739 -0.0258  0.0033 -0.0680
   7423SM  H16S 9735   0.868   5.207   5.832  1.1563  1.4456  0.6610
   7423SM  H16T 9736   0.904   5.205   5.660 -1.5283 -0.0018 -1.1077
   7423SM  C17S 9737   0.702   5.301   5.712  0.0337  0.7571  0.4438
   7423SM  H17S 9738   0.665   5.385   5.774  0.9469  1.4233  0.1213
   7423SM  H17T 9739   0.645   5.207   5.723 -0.6781  1.0554 -0.5296
   7423SM  C18S 9740   0.689   5.350   5.567 -0.6751 -0.0894  0.7094
   7423SM  H18S 9741   0.716   5.268   5.496 -2.3338 -0.1404  0.0895
   7423SM  H18T 9742   0.739   5.446   5.544 -0.1461 -0.6455 -0.5706
   7423SM  H18U 9743   0.582   5.364   5.540 -0.2039  0.2025 -1.1306
   7423SM   C1F 9744   0.792   5.124   7.038 -0.4923 -0.6643 -0.5684
   7423SM    OF 9745   0.711   5.161   7.123  0.1406  0.4142 -0.7517
   7423SM   C2F 9746   0.785   4.984   6.971 -0.2165 -0.6368  0.7351
   7423SM   H2F 9747   0.847   4.918   7.036  1.5969  0.7853  0.5543
   7423SM   H2G 9748   0.828   4.970   6.870 -1.0430  0.9726  0.1333
   7423SM   C3F 9749   0.642   4.929   6.968 -0.3034  0.4118 -0.1890
   7423SM   H3F 9750   0.591   5.005   6.904 -2.2532 -1.1260 -0.5704
   7423SM   H3G 9751   0.604   4.933   7.072  0.7707 -0.5789  0.2572
   7423SM   C4F 9752   0.634   4.791   6.907  0.8106  0.4234  0.7021
   7423SM   H4F 9753   0.536   4.740   6.911 -0.0049  1.9258  0.5129
   7423SM   H4G 9754   0.705   4.716   6.950 -0.8176 -1.6207 -0.0294
   7423SM   C5F 9755   0.664   4.787   6.750 -0.4226 -0.0743 -0.0589
   7423SM   H5F 9756   0.764   4.834   6.735 -0.8434  0.4777 -1.2286
   7423SM   H5G 9757   0.575   4.827   6.697 -0.3573 -0.5702 -0.5650
   7423SM   C6F 9758   0.689   4.648   6.692 -0.2062  0.6537 -0.2422
   7423SM   H6F 9759   0.616   4.581   6.743  1.4938 -1.1775 -0.1106
   7423SM   H6G 9760   0.792   4.625   6.726 -0.8407  0.2905  1.5622
   7423SM   C7F 9761   0.702   4.635   6.538  0.5390  0.5402 -0.4837
   7423SM   H7F 9762   0.757   4.542   6.515  0.6353 -0.4779  3.2935
   7423SM   H7G 9763   0.776   4.705   6.492  0.5932  0.3352 -0.7106
   7423SM   C8F 9764   0.579   4.628   6.459  0.1053 -0.2337  0.6869
   7423SM   H8F 9765   0.539   4.730   6.445 -2.0427 -0.9123  1.4028
   7423SM   H8G 9766   0.499   4.561   6.499  1.2647 -0.3710  2.8952
   7423SM   C9F 9767   0.608   4.594   6.310  0.3679  0.0870  0.1452
   7423SM   H9F 9768   0.646   4.489   6.314 -0.0555 -0.0382  2.7423
   7423SM   H9G 9769   0.697   4.653   6.280 -0.4390  2.0332  1.4129
   7423SM  C10F 9770   0.492   4.607   6.216  0.0233 -0.1807  0.0116
   7423SM  H10F 9771   0.412   4.534   6.242  0.9469 -0.6647  1.6390
   7423SM  H10G 9772   0.533   4.580   6.117 -1.1990  0.3432 -0.6646
   7423SM  C11F 9773   0.430   4.749   6.196 -0.0399  0.2284 -0.5546
   7423SM  H11F 9774   0.517   4.814   6.174  0.0186  1.2201  2.1505
   7423SM  H11G 9775   0.387   4.767   6.297  0.0884 -1.6100 -0.1365
   7423SM  C12F 9776   0.318   4.745   6.094 -0.3469 -0.5164 -0.6340
   7423SM  H12F 9777   0.245   4.663   6.112 -0.2822 -0.6162 -0.8184
   7423SM  H12G 9778   0.361   4.716   5.996 -1.0090  1.5660 -1.5764
   7423SM  C13F 9779   0.256   4.887   6.078  0.2930  0.2355 -0.4703
   7423SM  H13F 9780   0.183   4.878   5.995  1.1102  2.1644 -1.4763
   7423SM  H13G 9781   0.335   4.963   6.062 -1.0046  1.7583 -0.0237
   7423SM  C14F 9782   0.176   4.935   6.209 -0.0615  0.0428 -0.2065
   7423SM  H14F 9783   0.159   5.045   6.197 -0.5439 -0.1378 -1.4083
   7423SM  H14G 9784   0.252   4.917   6.287  1.2751  1.1434 -1.1825
   7423SM  C15F 9785   0.045   4.856   6.234 -0.6760  0.1136  0.0025
   7423SM  H15F 9786   0.069   4.749   6.219 -1.4205  0.2125 -2.2271
   7423SM  H15G 9787  -0.037   4.875   6.161  0.2194 -1.0973 -1.3658
   7423SM  C16F 9788  -0.009   4.851   6.378  0.3552 -0.2192  0.1966
   7423SM  H16F 9789  -0.026   4.953   6.420  1.7124 -0.3236  1.0846
   7423SM  H16G 9790   0.066   4.793   6.436  0.6817 -1.1238 -1.0923
   7423SM  C17F 9791  -0.141   4.770   6.390 -0.5015 -0.2872  0.6709
   7423SM  H17F 9792  -0.119   4.661   6.378  0.5746  0.0820 -1.1337
   7423SM  H17G 9793  -0.199   4.800   6.300  2.8466  2.5585 -0.8028
   7423SM  C18F 9794  -0.218   4.798   6.515 -0.6930  0.1288  0.6332
   7423SM  H18F 9795  -0.232   4.904   6.543 -0.6895  0.0572  0.9133
   7423SM  H18G 9796  -0.148   4.754   6.589  1.3047  1.4185 -0.4103
   7423SM  C19F 9797  -0.354   4.730   6.537  0.1821 -0.7471  0.2286
   7423SM  H19F 9798  -0.382   4.733   6.644 -1.0938 -1.7839 -0.0497
   7423SM  H19G 9799  -0.349   4.620   6.522  2.2639 -0.5982 -0.5279
   7423SM  C20F 9800  -0.463   4.811   6.469  0.5315  1.0497  0.1256
   7423SM  H20F 9801  -0.447   4.789   6.361  2.5736 -2.8266  1.0379
   7423SM  H20G 9802  -0.436   4.919   6.480 -0.3446  1.3285 -0.3746
   7423SM  C21F 9803  -0.608   4.770   6.517 -0.5785  0.8440  0.3954
   7423SM  H21F 9804  -0.632   4.811   6.617 -2.9541 -1.1622  0.7442
   7423SM  H21G 9805  -0.611   4.659   6.524  2.9939  0.6097  0.0760
   7423SM  C22F 9806  -0.719   4.825   6.428 -0.5888 -0.5066  0.4305
   7423SM  H22F 9807  -0.726   4.776   6.329  1.8443 -0.3371  0.1285
   7423SM  H22G 9808  -0.695   4.930   6.400 -2.5140 -1.0020 -3.8735
   7423SM  C23F 9809  -0.858   4.822   6.501 -0.6691  0.5173  0.6545
   7423SM  H23F 9810  -0.939   4.865   6.438 -0.2248 -1.6782 -1.6081
   7423SM  H23G 9811  -0.858   4.871   6.600 -2.1780  1.3543  0.2680
   7423SM  H23H 9812  -0.874   4.714   6.521  1.5759 -0.1310 -0.5907
   7523SM     N 9813   6.566   5.076   8.499 -0.1858 -0.5097 -0.2911
   7523SM   C15 9814   6.530   4.945   8.435  0.1376 -0.2099 -0.3084
   7523SM  H15A 9815   6.510   4.868   8.508 -2.1268  1.5634  1.0892
   7523SM  H15B 9816   6.610   4.911   8.371 -1.4672 -0.1791 -2.4222
   7523SM  H15C 9817   6.444   4.957   8.371  1.2723  1.0069 -1.6751
   7523SM   C14 9818   6.451   5.127   8.580  0.0546 -0.1602 -0.7151
   7523SM  H14A 9819   6.375   5.156   8.508  0.7686  0.8590 -1.0837
   7523SM  H14B 9820   6.481   5.215   8.636 -0.8589 -0.0093 -0.4276
   7523SM  H14C 9821   6.420   5.046   8.645  0.7607 -0.1993 -0.4224
   7523SM   C13 9822   6.682   5.046   8.583 -0.3187  0.3209 -0.4091
   7523SM  H13A 9823   6.725   5.132   8.632  2.6943 -1.7405  0.8673
   7523SM  H13B 9824   6.760   4.990   8.533 -1.0628  0.1071 -1.3554
   7523SM  H13C 9825   6.647   4.985   8.665  0.9928 -1.5286 -1.1445
   7523SM   C12 9826   6.600   5.185   8.396 -0.3806  0.0185  0.5342
   7523SM  H12A 9827   6.618   5.274   8.455  1.0178 -0.0420  0.2231
   7523SM  H12B 9828   6.512   5.213   8.340  0.7635  2.1618 -0.3287
   7523SM   C11 9829   6.708   5.163   8.291 -0.5544 -0.3532  0.3881
   7523SM  H11A 9830   6.808   5.148   8.337 -0.0684  0.9920 -0.1657
   7523SM  H11B 9831   6.713   5.255   8.229 -3.0790  0.1381  0.8167
   7523SM     P 9832   6.565   5.071   8.089 -0.0486  0.3115 -0.0445
   7523SM   O13 9833   6.580   4.956   7.996 -0.7617  0.3821  0.2235
   7523SM   O14 9834   6.433   5.092   8.155 -0.6549 -0.4377  0.2233
   7523SM   O11 9835   6.618   5.205   8.020 -0.3977  0.1833 -0.2253
   7523SM   O12 9836   6.672   5.056   8.205  0.2153 -0.4371 -0.2236
   7523SM   C1S 9837   6.734   5.210   7.937  0.2394  0.0726  0.1797
   7523SM   H1S 9838   6.792   5.116   7.950 -0.8961 -0.9601 -1.7984
   7523SM   H1T 9839   6.796   5.298   7.967 -0.1685  0.2629  0.4628
   7523SM    NF 9840   6.835   5.200   7.718  0.1168  0.7047 -0.7122
   7523SM   HNF 9841   6.853   5.285   7.670 -1.6309  0.3046 -2.1972
   7523SM   C2S 9842   6.709   5.200   7.785 -0.1350  0.4020 -0.1593
   7523SM   H2S 9843   6.651   5.107   7.763 -0.1640  0.1998  0.7612
   7523SM   C3S 9844   6.603   5.316   7.746 -0.4157  0.1244 -0.3055
   7523SM   H3S 9845   6.639   5.413   7.788  1.3931 -1.0744  1.0717
   7523SM    O3 9846   6.489   5.302   7.830  0.0863 -0.1033 -0.2083
   7523SM   HO3 9847   6.523   5.255   7.906  0.6241 -0.6969 -0.7934
   7523SM   C4S 9848   6.571   5.343   7.605  0.1528 -0.1359  0.2624
   7523SM   H4S 9849   6.607   5.434   7.555  0.3576  0.5130  1.5629
   7523SM   C5S 9850   6.522   5.247   7.523 -0.1798 -0.1177  0.0859
   7523SM   H5S 9851   6.503   5.147   7.564  1.1578 -0.9700 -1.2558
   7523SM   C6S 9852   6.481   5.257   7.379 -0.4796 -0.5653  0.9250
   7523SM   H6S 9853   6.377   5.218   7.368 -1.6304  1.4996  3.2249
   7523SM   H6T 9854   6.547   5.188   7.323  0.9381  0.5845  1.1158
   7523SM   C7S 9855   6.492   5.393   7.304 -0.2818  0.4460 -0.4728
   7523SM   H7S 9856   6.600   5.419   7.294 -0.4545  2.0938  1.3715
   7523SM   H7T 9857   6.431   5.466   7.360  0.1158 -0.6893  1.5410
   7523SM   C8S 9858   6.439   5.381   7.153  0.0841 -0.6487 -0.1968
   7523SM   H8S 9859   6.337   5.342   7.173  1.0305 -2.7352  0.9277
   7523SM   H8T 9860   6.482   5.304   7.085 -1.6488  0.0817 -2.2145
   7523SM   C9S 9861   6.442   5.521   7.092  0.4242 -0.5941  0.3509
   7523SM   H9S 9862   6.541   5.571   7.094  0.1964  0.0556 -1.8670
   7523SM   H9T 9863   6.380   5.586   7.157 -0.8309 -1.2212 -0.2008
   7523SM  C10S 9864   6.386   5.531   6.945  0.1257 -0.4128 -0.3545
   7523SM  H10S 9865   6.397   5.435   6.892 -1.2263 -1.6893  1.5490
   7523SM  H10T 9866   6.456   5.600   6.893 -0.5208  1.0494  0.6320
   7523SM  C11S 9867   6.245   5.596   6.940 -1.0298  0.1583  0.6319
   7523SM  H11S 9868   6.239   5.688   7.002 -1.8679  1.0313 -0.7078
   7523SM  H11T 9869   6.174   5.523   6.985 -2.4936  1.0642 -0.1681
   7523SM  C12S 9870   6.212   5.620   6.792  0.4622 -0.2199  0.4058
   7523SM  H12S 9871   6.106   5.653   6.795  0.5105  0.0147 -0.4278
   7523SM  H12T 9872   6.218   5.521   6.742  0.6197  1.2314 -2.6832
   7523SM  C13S 9873   6.291   5.727   6.721  0.3938 -0.0224  0.2069
   7523SM  H13S 9874   6.397   5.703   6.697  0.7197 -0.5809  2.0557
   7523SM  H13T 9875   6.283   5.818   6.785  1.5151  0.3821 -0.2075
   7523SM  C14S 9876   6.227   5.754   6.577 -0.0757 -0.2464  0.2149
   7523SM  H14S 9877   6.117   5.755   6.589 -0.2506 -1.7895 -0.9903
   7523SM  H14T 9878   6.253   5.681   6.498  0.9239 -0.0291  0.3190
   7523SM  C15S 9879   6.258   5.896   6.528 -0.2146  0.2464 -0.0982
   7523SM  H15S 9880   6.230   5.970   6.606 -2.4898 -0.8859  0.2202
   7523SM  H15T 9881   6.191   5.899   6.440 -1.6702  0.2410  0.9831
   7523SM  C16S 9882   6.401   5.915   6.474  0.0193 -0.1319 -0.3690
   7523SM  H16S 9883   6.430   5.818   6.429 -0.4777 -0.2417 -0.4626
   7523SM  H16T 9884   6.464   5.926   6.565 -0.9040  1.6861  0.1074
   7523SM  C17S 9885   6.431   6.045   6.400  0.4642  0.5583  0.7113
   7523SM  H17S 9886   6.542   6.053   6.388  0.4004 -0.6072 -0.9863
   7523SM  H17T 9887   6.403   6.134   6.459 -2.1563 -0.5713  1.3063
   7523SM  C18S 9888   6.358   6.053   6.259  0.0944  0.1231 -0.2892
   7523SM  H18S 9889   6.401   5.980   6.188  1.2714  2.6334 -2.3100
   7523SM  H18T 9890   6.391   6.145   6.205  1.0197 -0.0853 -0.0915
   7523SM  H18U 9891   6.247   6.045   6.271  0.2731 -2.3430  0.1207
   7523SM   C1F 9892   6.913   5.093   7.696 -0.5250 -1.0722  0.2290
   7523SM    OF 9893   6.876   4.981   7.733  0.1661  0.2325  0.3944
   7523SM   C2F 9894   7.050   5.106   7.641  0.0911 -0.3490  0.0711
   7523SM   H2F 9895   7.125   5.037   7.685  2.6330  2.3681  0.3291
   7523SM   H2G 9896   7.087   5.210   7.652 -1.9668  0.2532  1.9719
   7523SM   C3F 9897   7.049   5.078   7.490  0.4618 -0.2614  0.4977
   7523SM   H3F 9898   6.995   5.157   7.434 -0.7275 -0.3522  1.4565
   7523SM   H3G 9899   7.005   4.983   7.451  0.2835 -0.0293  0.1285
   7523SM   C4F 9900   7.194   5.082   7.438 -0.3372 -0.7983  0.1475
   7523SM   H4F 9901   7.263   5.078   7.526 -0.4371 -1.7992  0.1877
   7523SM   H4G 9902   7.218   5.186   7.406 -0.7060 -0.2385  1.6064
   7523SM   C5F 9903   7.226   4.971   7.338 -1.0656 -1.1647 -0.0283
   7523SM   H5F 9904   7.173   5.000   7.245 -1.0357  0.8709  0.5542
   7523SM   H5G 9905   7.198   4.867   7.367  3.7727 -2.9212 -0.7184
   7523SM   C6F 9906   7.384   4.968   7.316 -0.7924  0.0082  0.2184
   7523SM   H6F 9907   7.430   4.940   7.413  0.8413  2.4305  0.2274
   7523SM   H6G 9908   7.420   5.068   7.284 -1.8668  0.3201 -0.0815
   7523SM   C7F 9909   7.426   4.877   7.201 -0.2470 -0.0726 -0.3212
   7523SM   H7F 9910   7.535   4.857   7.210 -0.3262  0.1421  1.6523
   7523SM   H7G 9911   7.405   4.920   7.101  0.0947  1.3504  0.1889
   7523SM   C8F 9912   7.355   4.739   7.196  0.2862 -0.3916  0.2364
   7523SM   H8F 9913   7.247   4.750   7.170  0.2203 -0.7122  0.3679
   7523SM   H8G 9914   7.365   4.714   7.304 -0.8950  0.2410  0.5096
   7523SM   C9F 9915   7.432   4.653   7.094 -0.3450  0.0250  0.2687
   7523SM   H9F 9916   7.526   4.611   7.135 -0.2170 -0.5894 -0.6366
   7523SM   H9G 9917   7.468   4.713   7.008  0.0990 -0.7827 -0.1222
   7523SM  C10F 9918   7.354   4.534   7.032  0.0248 -0.4019  0.1821
   7523SM  H10F 9919   7.304   4.569   6.939 -0.8360 -1.1595  0.3503
   7523SM  H10G 9920   7.266   4.507   7.094 -0.9796  1.1562 -0.4988
   7523SM  C11F 9921   7.437   4.408   7.019  1.1589 -0.0016  0.0367
   7523SM  H11F 9922   7.484   4.390   7.118  1.8141  2.1651  0.1864
   7523SM  H11G 9923   7.514   4.425   6.940  0.4833 -0.6596 -0.7898
   7523SM  C12F 9924   7.360   4.286   6.979  0.6823  0.2876  0.3272
   7523SM  H12F 9925   7.279   4.268   7.053  2.3684 -0.0612  2.1951
   7523SM  H12G 9926   7.423   4.194   6.988 -0.5222 -0.5816  0.1505
   7523SM  C13F 9927   7.296   4.286   6.838  0.5779  0.2300  0.0584
   7523SM  H13F 9928   7.225   4.371   6.831  0.3774  0.0003 -0.7676
   7523SM  H13G 9929   7.241   4.192   6.816  0.3104  0.1482  1.0386
   7523SM  C14F 9930   7.392   4.291   6.721 -0.1488  0.0423 -0.3547
   7523SM  H14F 9931   7.469   4.371   6.726 -0.8701  0.6704  2.8569
   7523SM  H14G 9932   7.329   4.320   6.635 -0.0387  2.1122  0.2164
   7523SM  C15F 9933   7.465   4.160   6.683  0.6925 -0.0085 -0.2663
   7523SM  H15F 9934   7.497   4.126   6.784  1.2303 -0.1567 -0.4798
   7523SM  H15G 9935   7.555   4.174   6.619  0.5536 -1.9928 -0.9586
   7523SM  C16F 9936   7.367   4.065   6.614 -0.0643  0.0726  0.4818
   7523SM  H16F 9937   7.327   4.114   6.522 -0.2779 -1.1160 -0.0668
   7523SM  H16G 9938   7.276   4.067   6.677 -0.3833  4.1844  0.1812
   7523SM  C17F 9939   7.426   3.926   6.583  0.1398 -0.9584 -0.4039
   7523SM  H17F 9940   7.333   3.876   6.549  0.9522 -2.0650 -1.0628
   7523SM  H17G 9941   7.472   3.879   6.672  1.2798  0.1992 -0.3438
   7523SM  C18F 9942   7.528   3.939   6.470  0.3100 -0.3788  0.5587
   7523SM  H18F 9943   7.596   4.021   6.500 -2.1518  1.3594  1.7525
   7523SM  H18G 9944   7.481   3.997   6.388  2.5935  1.4430  0.4541
   7523SM  C19F 9945   7.593   3.808   6.422  0.2574 -0.2657 -0.0166
   7523SM  H19F 9946   7.509   3.738   6.402 -0.8125  1.2578 -1.1518
   7523SM  H19G 9947   7.644   3.777   6.515 -0.3348 -0.3531  0.2839
   7523SM  C20F 9948   7.678   3.807   6.302  0.4586 -0.7519  0.3666
   7523SM  H20F 9949   7.622   3.829   6.209  2.6559  1.8095 -0.4828
   7523SM  H20G 9950   7.728   3.708   6.298  1.5771 -0.1764 -0.8963
   7523SM  C21F 9951   7.795   3.909   6.281 -0.6761 -0.0945 -0.0906
   7523SM  H21F 9952   7.869   3.912   6.364  0.9753 -1.1629 -1.4556
   7523SM  H21G 9953   7.752   4.012   6.279  1.0361  0.6422 -1.7844
   7523SM  C22F 9954   7.871   3.883   6.145 -0.1811 -0.3858 -0.2134
   7523SM  H22F 9955   7.795   3.875   6.064 -0.5825 -0.8641  0.2134
   7523SM  H22G 9956   7.914   3.782   6.158 -0.5858 -0.5355 -0.0296
   7523SM  C23F 9957   7.974   3.984   6.107 -1.1099 -0.5262  1.0651
   7523SM  H23F 9958   8.070   3.984   6.163  1.0292 -0.8388 -2.2935
   7523SM  H23G 9959   7.933   4.087   6.109 -0.9480 -0.4375  0.1203
   7523SM  H23H 9960   8.005   3.964   6.002 -0.7018  1.7946  0.6864
   7623SM     N 9961   0.230   5.152   8.012  0.3488 -0.3074 -0.1242
   7623SM   C15 9962   0.268   5.209   8.148 -0.2563  0.9578  0.3654
   7623SM  H15A 9963   0.197   5.172   8.221  0.5267 -0.4654  0.4400
   7623SM  H15B 9964   0.273   5.317   8.152  0.4666  0.9063  1.2141
   7623SM  H15C 9965   0.367   5.173   8.173 -0.0640  1.6054  0.5718
   7623SM   C14 9966   0.201   5.008   8.023 -0.4282  0.8119  0.2307
   7623SM  H14A 9967   0.284   4.943   8.047 -0.9104 -0.5572 -1.6334
   7623SM  H14B 9968   0.159   4.974   7.930 -1.6815 -1.4296  1.5280
   7623SM  H14C 9969   0.132   4.986   8.103  1.7364  2.3716  2.7347
   7623SM   C13 9970   0.099   5.212   7.973  0.1242  0.3225 -0.3953
   7623SM  H13A 9971   0.090   5.320   7.970 -0.0461  0.4267  2.0279
   7623SM  H13B 9972   0.024   5.181   8.044  0.0592  1.0557 -0.1327
   7623SM  H13C 9973   0.069   5.175   7.876 -1.2299  0.5117 -0.0658
   7623SM   C12 9974   0.335   5.178   7.914 -0.4731 -0.6215  0.2254
   7623SM  H12A 9975   0.314   5.134   7.818 -1.3326  1.7388 -0.7337
   7623SM  H12B 9976   0.427   5.131   7.945 -0.3322  0.6309  1.8559
   7623SM   C11 9977   0.368   5.323   7.890  0.4287  0.6990  0.4565
   7623SM  H11A 9978   0.408   5.358   7.987 -0.1660 -1.6461  1.6267
   7623SM  H11B 9979   0.272   5.373   7.865  0.7217  1.5857  1.0684
   7623SM     P 9980   0.490   5.475   7.726  0.1199  0.0078  0.1484
   7623SM   O13 9981   0.437   5.580   7.821  0.2567  0.4685 -0.4502
   7623SM   O14 9982   0.632   5.483   7.683  0.3016 -0.2746  0.2270
   7623SM   O11 9983   0.390   5.465   7.599 -0.4643 -0.3466  0.1924
   7623SM   O12 9984   0.467   5.337   7.791 -0.7817  0.0418  0.1885
   7623SM   C1S 9985   0.425   5.374   7.499 -0.0782  0.2293  0.0883
   7623SM   H1S 9986   0.387   5.273   7.527  0.4193  0.0405  0.0921
   7623SM   H1T 9987   0.535   5.369   7.485  0.3298  1.4982  2.3984
   7623SM    NF 9988   0.341   5.299   7.271 -0.5045 -0.5492  0.1242
   7623SM   HNF 9989   0.390   5.310   7.186 -0.9276  3.0484  0.2089
   7623SM   C2S 9990   0.355   5.406   7.361  0.4009  0.0717 -0.3430
   7623SM   H2S 9991   0.252   5.445   7.379  0.9941  1.3035  0.5216
   7623SM   C3S 9992   0.427   5.528   7.307  0.3827 -0.0214  0.4341
   7623SM   H3S 9993   0.530   5.502   7.276  0.0433  0.2660 -1.0498
   7623SM    O3 9994   0.428   5.641   7.394 -0.7826  0.0069  0.7022
   7623SM   HO3 9995   0.394   5.611   7.478 -0.4249  0.7979  1.1372
   7623SM   C4S 9996   0.350   5.575   7.185  0.0019 -0.0028  0.3553
   7623SM   H4S 9997   0.401   5.540   7.095 -0.0822 -0.6689  0.5591
   7623SM   C5S 9998   0.228   5.636   7.185  0.3424 -0.2977 -0.2596
   7623SM   H5S 9999   0.171   5.647   7.279  1.1196 -0.2946  0.2248
   7623SM   C6S10000   0.159   5.667   7.062 -0.6972  0.5138  0.4101
   7623SM   H6S10001   0.144   5.777   7.055  1.1644  0.8056  0.6392
   7623SM   H6T10002   0.063   5.611   7.070 -0.6242  0.2483 -0.4555
   7623SM   C7S10003   0.220   5.621   6.924 -1.1708  0.2794  0.4561
   7623SM   H7S10004   0.221   5.510   6.934  0.2864  0.3083  0.9371
   7623SM   H7T10005   0.322   5.663   6.936 -1.5209  0.7312  2.3194
   7623SM   C8S10006   0.149   5.667   6.794  0.2922  0.1374  0.2508
   7623SM   H8S10007   0.043   5.638   6.807 -0.7223  2.7737 -1.2787
   7623SM   H8T10008   0.197   5.618   6.706  3.6670  2.5240  0.5586
   7623SM   C9S10009   0.154   5.820   6.780 -0.3703  0.3007 -0.2199
   7623SM   H9S10010   0.127   5.869   6.876 -1.4453 -0.5080 -0.0868
   7623SM   H9T10011   0.081   5.848   6.701  0.7576  0.9719 -1.0521
   7623SM  C10S10012   0.284   5.884   6.716 -0.2184 -0.1198  0.5587
   7623SM  H10S10013   0.366   5.879   6.791 -1.1957  0.5378  1.7001
   7623SM  H10T10014   0.268   5.993   6.702  3.4173  0.6157  1.0131
   7623SM  C11S10015   0.332   5.807   6.589 -0.1637 -0.2022  0.2749
   7623SM  H11S10016   0.237   5.781   6.538  0.0123 -0.1716 -0.0643
   7623SM  H11T10017   0.379   5.713   6.624  1.3191  0.7462  0.9662
   7623SM  C12S10018   0.410   5.888   6.489 -0.3618 -0.3469  0.3758
   7623SM  H12S10019   0.501   5.926   6.540  0.1798  0.7105 -1.2947
   7623SM  H12T10020   0.362   5.982   6.455  0.0121  0.0363  0.8943
   7623SM  C13S10021   0.455   5.815   6.359  0.3113  0.3076  0.2988
   7623SM  H13S10022   0.517   5.876   6.289  1.5586 -0.6195  0.5573
   7623SM  H13T10023   0.358   5.803   6.305  1.3627  0.6297 -1.7860
   7623SM  C14S10024   0.512   5.669   6.371 -0.1209 -0.5744 -0.2768
   7623SM  H14S10025   0.429   5.603   6.404  0.4337 -0.3225  1.7614
   7623SM  H14T10026   0.589   5.668   6.451  2.0646  2.2966 -2.1358
   7623SM  C15S10027   0.565   5.617   6.234  1.2912  0.1502 -0.2829
   7623SM  H15S10028   0.653   5.684   6.227  0.8140  1.1877  2.3504
   7623SM  H15T10029   0.497   5.636   6.148 -0.3379 -0.4785  0.8210
   7623SM  C16S10030   0.611   5.472   6.218 -0.8202 -0.5708  0.8028
   7623SM  H16S10031   0.534   5.414   6.272 -1.5592  2.1608  2.8980
   7623SM  H16T10032   0.709   5.453   6.267 -0.7929 -2.5373  0.0858
   7623SM  C17S10033   0.611   5.421   6.068  0.0688 -0.1013 -0.2574
   7623SM  H17S10034   0.688   5.479   6.013 -2.1310  2.1270 -1.1563
   7623SM  H17T10035   0.519   5.468   6.027  0.2332  0.1615 -0.3298
   7623SM  C18S10036   0.609   5.273   6.034  0.5554  0.7817 -0.0217
   7623SM  H18S10037   0.582   5.260   5.927 -2.0940  2.9130  0.2638
   7623SM  H18T10038   0.541   5.203   6.086 -0.0010 -0.8104 -2.7240
   7623SM  H18U10039   0.713   5.235   6.041  0.5207  0.8108  0.7329
   7623SM   C1F10040   0.279   5.182   7.291 -0.2787 -0.5059  0.2899
   7623SM    OF10041   0.208   5.165   7.389 -0.3368  0.3275 -0.3505
   7623SM   C2F10042   0.286   5.075   7.182 -0.1045 -0.4691 -0.0567
   7623SM   H2F10043   0.396   5.063   7.173 -0.2400 -0.8370 -1.5598
   7623SM   H2G10044   0.251   5.110   7.082 -0.0465 -1.3313 -0.3961
   7623SM   C3F10045   0.213   4.949   7.231  0.1143 -0.3343 -0.6532
   7623SM   H3F10046   0.105   4.976   7.239  0.1459 -0.2557 -0.4663
   7623SM   H3G10047   0.251   4.922   7.332 -0.8908 -1.7084 -0.6174
   7623SM   C4F10048   0.228   4.818   7.145  0.1054  0.3070 -0.4356
   7623SM   H4F10049   0.178   4.728   7.186  0.4207 -0.4599 -1.6774
   7623SM   H4G10050   0.338   4.804   7.139  0.4612  2.0948  1.0826
   7623SM   C5F10051   0.163   4.847   7.008 -0.7455  0.3136 -0.4213
   7623SM   H5F10052   0.237   4.918   6.966 -0.1635  0.2811  0.5228
   7623SM   H5G10053   0.068   4.891   7.043  0.3576  1.9713  0.6470
   7623SM   C6F10054   0.137   4.720   6.933  0.2585 -0.3561 -0.0204
   7623SM   H6F10055   0.068   4.654   6.989  0.5866 -0.3980  0.3435
   7623SM   H6G10056   0.230   4.659   6.929 -0.1746 -0.9890 -0.5890
   7623SM   C7F10057   0.082   4.744   6.792 -0.3032  1.1666  0.5864
   7623SM   H7F10058   0.160   4.802   6.739  0.1139  0.1244  0.0519
   7623SM   H7G10059  -0.015   4.799   6.788 -0.8556  0.1369 -1.5041
   7623SM   C8F10060   0.063   4.609   6.712 -0.0544  0.4783  0.3285
   7623SM   H8F10061   0.017   4.631   6.613 -0.6367 -1.3797  0.1473
   7623SM   H8G10062  -0.010   4.539   6.759  1.5753 -1.9510 -0.5606
   7623SM   C9F10063   0.195   4.546   6.670  0.0107  0.3883 -0.0374
   7623SM   H9F10064   0.231   4.501   6.765 -0.1014  0.6757  0.1405
   7623SM   H9G10065   0.262   4.629   6.639 -0.4404  0.6794 -0.2424
   7623SM  C10F10066   0.186   4.426   6.574  0.5171 -0.4088 -0.6427
   7623SM  H10F10067   0.127   4.347   6.626  0.4622 -0.1305 -0.2770
   7623SM  H10G10068   0.289   4.388   6.561  0.2156 -0.8317 -1.9503
   7623SM  C11F10069   0.122   4.457   6.438  0.3051 -0.5895 -0.2349
   7623SM  H11F10070   0.187   4.519   6.371 -0.0326  0.6629  0.5606
   7623SM  H11G10071   0.021   4.501   6.457  0.0681 -1.4579  0.5294
   7623SM  C12F10072   0.098   4.323   6.364 -1.1434 -0.4402 -0.0934
   7623SM  H12F10073   0.077   4.248   6.443 -1.0854  0.3961  0.7408
   7623SM  H12G10074   0.201   4.297   6.333 -0.7343  0.8966  0.0445
   7623SM  C13F10075  -0.003   4.330   6.258 -0.2927 -0.3185 -0.0879
   7623SM  H13F10076   0.021   4.255   6.180  0.9763 -2.5095  2.2647
   7623SM  H13G10077  -0.004   4.435   6.223 -1.1975  0.2630  1.5631
   7623SM  C14F10078  -0.154   4.311   6.299 -1.0327 -0.9723  0.4961
   7623SM  H14F10079  -0.182   4.382   6.380 -2.7837  1.3410 -1.9873
   7623SM  H14G10080  -0.165   4.203   6.324  1.2453 -1.1207  1.1346
   7623SM  C15F10081  -0.249   4.350   6.183 -0.3942  0.4635  0.2178
   7623SM  H15F10082  -0.208   4.318   6.085 -2.1986  0.2982 -0.5352
   7623SM  H15G10083  -0.242   4.461   6.176 -2.0792  0.7848  2.6174
   7623SM  C16F10084  -0.391   4.303   6.199 -0.5209  1.0687 -0.0732
   7623SM  H16F10085  -0.392   4.193   6.189  1.3546  1.0644 -0.6352
   7623SM  H16G10086  -0.452   4.339   6.114 -0.5642 -2.5435 -1.7344
   7623SM  C17F10087  -0.454   4.356   6.322  0.7171  0.4008 -0.7732
   7623SM  H17F10088  -0.447   4.467   6.330  2.9212  0.1985  1.1048
   7623SM  H17G10089  -0.398   4.321   6.411  0.7814 -0.1520 -1.0269
   7623SM  C18F10090  -0.601   4.315   6.352 -0.4275 -0.0027  0.4454
   7623SM  H18F10091  -0.666   4.349   6.269 -1.2533  2.0239  1.8550
   7623SM  H18G10092  -0.631   4.359   6.450 -0.4619  1.0128 -0.0126
   7623SM  C19F10093  -0.623   4.160   6.362  0.6906  0.0478  0.2854
   7623SM  H19F10094  -0.533   4.135   6.422  0.7511  1.0011  0.6110
   7623SM  H19G10095  -0.612   4.115   6.261 -0.1744  0.7776 -0.1446
   7623SM  C20F10096  -0.754   4.119   6.433 -0.0720 -0.6342  0.0932
   7623SM  H20F10097  -0.771   4.159   6.535 -3.6870 -1.6513  0.0427
   7623SM  H20G10098  -0.743   4.009   6.447  2.4131 -0.7858 -2.2245
   7623SM  C21F10099  -0.880   4.165   6.359  0.1894 -0.5268 -0.4218
   7623SM  H21F10100  -0.881   4.276   6.366  1.2637 -0.3421 -2.4119
   7623SM  H21G10101  -0.967   4.136   6.422  0.0255 -0.0533 -0.4214
   7623SM  C22F10102  -0.907   4.122   6.220 -0.2790  0.7394  0.6528
   7623SM  H22F10103  -0.891   4.012   6.215 -2.5297  0.3374  1.0483
   7623SM  H22G10104  -0.826   4.156   6.152  0.5623 -1.1874  0.6163
   7623SM  C23F10105  -1.051   4.155   6.180  0.0127  1.0596  0.0072
   7623SM  H23F10106  -1.076   4.125   6.076  0.8748 -0.9791  0.3369
   7623SM  H23G10107  -1.073   4.263   6.191  1.1524  1.4731 -1.3945
   7623SM  H23H10108  -1.128   4.107   6.243 -0.8741  1.0146 -1.0763
   7723SM     N10109   0.814   2.602   7.662  0.4906  0.2309  0.7069
   7723SM   C1510110   0.743   2.610   7.528  0.1262 -0.3109 -0.5753
   7723SM  H15A10111   0.743   2.521   7.467 -2.9345  0.3565 -1.7297
   7723SM  H15B10112   0.782   2.688   7.464  1.1061 -0.8188 -0.6294
   7723SM  H15C10113   0.641   2.640   7.543  0.8115  2.8886 -1.4732
   7723SM   C1410114   0.784   2.733   7.731  0.0884 -0.1238 -0.0504
   7723SM  H14A10115   0.797   2.821   7.670  0.0648  2.2961  3.1653
   7723SM  H14B10116   0.854   2.738   7.813 -0.3393 -0.8740  0.3716
   7723SM  H14C10117   0.686   2.736   7.775  0.8954 -1.5236  1.9753
   7723SM   C1310118   0.751   2.483   7.735 -0.0450 -0.1800  0.7405
   7723SM  H13A10119   0.645   2.498   7.739  0.0586  1.2525 -0.8445
   7723SM  H13B10120   0.787   2.472   7.836  2.8104 -2.1069 -0.3455
   7723SM  H13C10121   0.764   2.400   7.667  1.4879  2.0649 -1.9378
   7723SM   C1210122   0.960   2.577   7.665 -0.2524  0.5382  0.2095
   7723SM  H12A10123   0.989   2.562   7.768 -0.1137 -2.1961 -0.1597
   7723SM  H12B10124   1.003   2.667   7.624  1.4651 -0.3575 -0.0357
   7723SM   C1110125   1.002   2.451   7.581 -0.8217 -0.2725  0.0634
   7723SM  H11A10126   0.942   2.365   7.616 -0.2709 -1.1635 -1.1080
   7723SM  H11B10127   1.109   2.430   7.602  0.3239  1.6592 -3.0848
   7723SM     P10128   1.068   2.570   7.354 -0.4190  0.0074 -0.4852
   7723SM   O1310129   1.055   2.704   7.406 -0.2523  0.2171 -0.3258
   7723SM   O1410130   1.205   2.513   7.330 -0.1571 -0.0486  0.5001
   7723SM   O1110131   0.995   2.573   7.211 -0.3033  0.0042 -0.0131
   7723SM   O1210132   0.985   2.460   7.439  0.5683  0.2917  0.1899
   7723SM   C1S10133   0.975   2.450   7.147  0.5928  0.1757 -0.1512
   7723SM   H1S10134   0.895   2.387   7.193 -0.3631  2.2403  1.1599
   7723SM   H1T10135   1.064   2.385   7.157 -0.3960 -1.5699 -1.9588
   7723SM    NF10136   0.919   2.331   6.937 -0.0442 -0.4910  0.4756
   7723SM   HNF10137   0.982   2.289   6.873 -0.3452 -2.4771  1.4036
   7723SM   C2S10138   0.948   2.457   6.992  0.6132  0.0127 -0.0595
   7723SM   H2S10139   0.852   2.515   6.995  0.0848 -0.8546  0.1008
   7723SM   C3S10140   1.052   2.538   6.916  0.4580 -0.7511  0.4172
   7723SM   H3S10141   1.146   2.478   6.911  1.9222  1.3688  1.2702
   7723SM    O310142   1.088   2.659   6.980  0.9979  0.0476 -0.5857
   7723SM   HO310143   1.055   2.648   7.070  2.9657  1.3283  0.3591
   7723SM   C4S10144   1.007   2.574   6.783  0.7564 -0.4376 -0.1232
   7723SM   H4S10145   1.023   2.492   6.712  0.3991  0.0864 -0.8268
   7723SM   C5S10146   0.941   2.682   6.731  0.4798 -0.1927  0.8186
   7723SM   H5S10147   0.915   2.772   6.790  0.4985 -0.3667  1.0952
   7723SM   C6S10148   0.901   2.700   6.587 -0.3885  0.6721 -0.7869
   7723SM   H6S10149   0.957   2.784   6.541  0.6602  1.1566  1.2541
   7723SM   H6T10150   0.799   2.745   6.593  0.2962  2.1628  0.5195
   7723SM   C7S10151   0.901   2.576   6.494  0.4628 -0.6194 -0.7751
   7723SM   H7S10152   0.825   2.595   6.415  0.6224  0.9234 -0.5987
   7723SM   H7T10153   0.863   2.489   6.551  0.5911  0.6571  1.3762
   7723SM   C8S10154   1.038   2.539   6.431  0.4156 -0.2144 -0.2696
   7723SM   H8S10155   1.118   2.595   6.484 -1.4790  2.1937  0.2736
   7723SM   H8T10156   1.030   2.575   6.326  0.8539 -0.6770 -0.4628
   7723SM   C9S10157   1.069   2.386   6.429 -0.5605  0.2143  0.6393
   7723SM   H9S10158   1.107   2.335   6.520  0.7384  0.8758  0.4783
   7723SM   H9T10159   1.154   2.358   6.364 -1.2119  1.8294 -1.0083
   7723SM  C10S10160   0.964   2.283   6.390  0.6045 -0.0976  0.1966
   7723SM  H10S10161   0.880   2.282   6.463  0.4808 -0.1802  0.0532
   7723SM  H10T10162   1.012   2.183   6.381 -0.0009 -0.2806 -1.1983
   7723SM  C11S10163   0.918   2.308   6.250 -0.7307 -0.1758 -0.2199
   7723SM  H11S10164   1.002   2.324   6.179 -0.1658  3.8006  1.0578
   7723SM  H11T10165   0.871   2.409   6.259  0.2400  0.2790 -0.1839
   7723SM  C12S10166   0.818   2.202   6.200  0.0164 -0.1051 -0.0555
   7723SM  H12S10167   0.771   2.234   6.104 -1.2632  0.8211  0.8508
   7723SM  H12T10168   0.738   2.178   6.273  1.1873 -1.2147  0.8963
   7723SM  C13S10169   0.876   2.062   6.170  0.1424  0.0858  0.4191
   7723SM  H13S10170   0.907   2.013   6.266  0.6079 -0.2697  0.0931
   7723SM  H13T10171   0.974   2.071   6.118  0.3081  0.2149  0.7483
   7723SM  C14S10172   0.769   1.972   6.102 -0.0133  0.6543 -0.1998
   7723SM  H14S10173   0.790   1.959   5.994 -2.2041  1.2085 -0.7381
   7723SM  H14T10174   0.669   2.018   6.115  0.4364  1.8350 -0.8429
   7723SM  C15S10175   0.746   1.839   6.169 -0.3534 -0.1934 -0.1534
   7723SM  H15S10176   0.691   1.841   6.265 -2.3205 -1.7161 -1.1615
   7723SM  H15T10177   0.845   1.791   6.185  0.3703  1.5753  0.9516
   7723SM  C16S10178   0.670   1.743   6.078  0.2790 -0.5264  0.0602
   7723SM  H16S10179   0.720   1.750   5.979  1.3987  0.9767  0.6947
   7723SM  H16T10180   0.566   1.777   6.058  0.4699  1.3185  1.8365
   7723SM  C17S10181   0.671   1.608   6.131 -0.1044  0.4557  0.7348
   7723SM  H17S10182   0.660   1.606   6.241 -0.0761 -0.4415  0.7310
   7723SM  H17T10183   0.768   1.560   6.105 -0.5263  0.2525 -0.5669
   7723SM  C18S10184   0.561   1.530   6.056 -0.1402 -0.7102 -0.1597
   7723SM  H18S10185   0.460   1.564   6.087  0.4490  0.5181  0.4944
   7723SM  H18T10186   0.572   1.425   6.088  0.8938 -0.1913  1.2679
   7723SM  H18U10187   0.574   1.549   5.947  0.6416  1.8776  0.3127
   7723SM   C1F10188   0.801   2.276   6.946 -0.1515 -0.0230  0.2175
   7723SM    OF10189   0.733   2.317   7.038  0.2556 -0.7492  0.7416
   7723SM   C2F10190   0.751   2.171   6.857  0.1059  0.8767 -0.2106
   7723SM   H2F10191   0.820   2.090   6.889  0.1921  0.3928 -1.5734
   7723SM   H2G10192   0.774   2.197   6.752  0.3083  0.8385 -0.1754
   7723SM   C3F10193   0.609   2.130   6.883 -0.3922  0.0885 -0.0102
   7723SM   H3F10194   0.533   2.207   6.857 -0.4852 -0.3814 -1.2007
   7723SM   H3G10195   0.591   2.097   6.988 -4.3359  1.6292 -0.0258
   7723SM   C4F10196   0.578   2.006   6.800 -0.7257 -0.1740  0.2975
   7723SM   H4F10197   0.617   2.024   6.698  1.2877  1.8138  1.3512
   7723SM   H4G10198   0.467   2.004   6.788 -0.6561  0.0451 -0.4346
   7723SM   C5F10199   0.639   1.871   6.849 -0.2250 -0.3362 -0.3966
   7723SM   H5F10200   0.637   1.873   6.960 -2.4449  1.3194 -0.4005
   7723SM   H5G10201   0.747   1.859   6.823 -0.2110  1.8347 -1.6165
   7723SM   C6F10202   0.567   1.745   6.813  0.3760 -0.1514  1.1002
   7723SM   H6F10203   0.479   1.745   6.880 -1.4898 -1.1333 -1.2073
   7723SM   H6G10204   0.632   1.661   6.848 -0.4039 -1.7044 -0.9439
   7723SM   C7F10205   0.525   1.720   6.674  0.1808  0.4351 -0.0534
   7723SM   H7F10206   0.607   1.731   6.600  2.3359 -1.7358  1.8340
   7723SM   H7G10207   0.448   1.794   6.641  0.2137  0.5625  0.1507
   7723SM   C8F10208   0.480   1.580   6.647  0.3960  0.8097 -0.1364
   7723SM   H8F10209   0.387   1.555   6.703  0.9043 -0.3794  0.2179
   7723SM   H8G10210   0.559   1.509   6.681 -1.4251 -1.1620  0.2060
   7723SM   C9F10211   0.454   1.553   6.498 -0.4503 -0.8724  0.5938
   7723SM   H9F10212   0.548   1.544   6.439 -0.8797 -0.7727 -0.1166
   7723SM   H9G10213   0.409   1.644   6.454  0.0517  0.8419  3.3714
   7723SM  C10F10214   0.356   1.443   6.462  0.6395  0.3557  0.1132
   7723SM  H10F10215   0.265   1.453   6.525  1.5818  0.8896  1.4346
   7723SM  H10G10216   0.400   1.348   6.500  0.2252  1.3225  3.3107
   7723SM  C11F10217   0.321   1.434   6.314 -0.0257  0.2246 -0.0796
   7723SM  H11F10218   0.400   1.380   6.258 -1.5633 -0.8288 -1.3289
   7723SM  H11G10219   0.321   1.536   6.270  1.2447  0.0522 -0.5023
   7723SM  C12F10220   0.177   1.383   6.272 -0.9569 -0.2897 -0.7989
   7723SM  H12F10221   0.168   1.402   6.163  0.2092  2.3856 -0.5022
   7723SM  H12G10222   0.094   1.449   6.305 -1.2875  0.3956 -2.8762
   7723SM  C13F10223   0.164   1.237   6.303  0.9780  0.1942 -0.3822
   7723SM  H13F10224   0.212   1.214   6.400  0.0311  2.0273  0.5616
   7723SM  H13G10225   0.205   1.169   6.224  1.6983 -1.3601  1.2609
   7723SM  C14F10226   0.015   1.192   6.315 -0.0385 -0.0140  0.7241
   7723SM  H14F10227  -0.036   1.237   6.228 -0.4390 -0.1160  0.9023
   7723SM  H14G10228  -0.024   1.247   6.403 -1.8329  0.8456 -0.5523
   7723SM  C15F10229  -0.014   1.039   6.310 -0.3855  0.2598  0.3071
   7723SM  H15F10230  -0.121   1.011   6.304 -0.3456  0.3543 -3.5530
   7723SM  H15G10231   0.017   0.994   6.407 -0.3319  0.0053  0.1717
   7723SM  C16F10232   0.041   0.966   6.191 -0.6669 -0.1673 -0.3403
   7723SM  H16F10233   0.014   0.859   6.205 -1.9032  0.4739  3.2670
   7723SM  H16G10234   0.151   0.962   6.175 -0.7762 -0.7539 -1.0103
   7723SM  C17F10235  -0.031   1.004   6.057  0.0432 -0.1709 -0.4510
   7723SM  H17F10236   0.011   1.104   6.030  1.7659 -0.9396 -0.7721
   7723SM  H17G10237  -0.139   1.006   6.081 -0.1219  2.5129 -1.1275
   7723SM  C18F10238   0.005   0.905   5.935 -0.0445  0.3376  0.1062
   7723SM  H18F10239  -0.037   0.807   5.969  0.2573  0.2597  0.2583
   7723SM  H18G10240   0.116   0.895   5.936 -0.1539 -1.0792  0.7473
   7723SM  C19F10241  -0.057   0.956   5.809 -0.2400  0.1178  0.1099
   7723SM  H19F10242  -0.016   1.059   5.799  0.6218 -0.1076  1.0905
   7723SM  H19G10243  -0.167   0.963   5.819 -0.6700 -2.3481 -1.7927
   7723SM  C20F10244  -0.046   0.879   5.682 -0.5305 -0.2829  0.5925
   7723SM  H20F10245  -0.105   0.786   5.697 -0.3362 -0.2234  1.9094
   7723SM  H20G10246   0.059   0.856   5.656 -0.9070 -0.1942 -1.0909
   7723SM  C21F10247  -0.108   0.945   5.558 -0.5041 -0.4808  0.1421
   7723SM  H21F10248  -0.040   1.028   5.528  0.3725  0.5209  4.2081
   7723SM  H21G10249  -0.204   0.992   5.588 -0.3312  0.9706 -1.4339
   7723SM  C22F10250  -0.130   0.850   5.439 -0.1943  0.2321 -0.3183
   7723SM  H22F10251  -0.186   0.914   5.367 -1.5432 -1.0240 -0.4243
   7723SM  H22G10252  -0.200   0.772   5.475 -0.3222  0.7404  0.5688
   7723SM  C23F10253   0.002   0.792   5.392 -0.8324  0.7506 -0.5304
   7723SM  H23F10254   0.070   0.865   5.343  1.9039  0.4245  2.4732
   7723SM  H23G10255  -0.008   0.723   5.305  0.0723 -0.2765  0.1575
   7723SM  H23H10256   0.052   0.745   5.480 -0.1935  2.8685  0.2819
   7823SM     N10257   1.220   6.186   7.061  0.0559  0.7378 -0.0970
   7823SM   C1510258   1.268   6.100   6.951  0.0403  0.2304  0.2231
   7823SM  H15A10259   1.270   6.151   6.856  0.5388  3.6311  1.9154
   7823SM  H15B10260   1.195   6.022   6.936  0.5711  0.0591 -1.7275
   7823SM  H15C10261   1.361   6.054   6.982 -0.3350  1.0591  2.8119
   7823SM   C1410262   1.203   6.087   7.176 -0.2838 -0.5364 -0.0207
   7823SM  H14A10263   1.138   6.006   7.146 -0.9411  0.1073 -0.3704
   7823SM  H14B10264   1.163   6.137   7.262  0.0222  0.4261 -0.4202
   7823SM  H14C10265   1.293   6.043   7.215  0.8671 -0.0140 -1.9173
   7823SM   C1310266   1.330   6.288   7.090  0.3211  0.4228  0.5880
   7823SM  H13A10267   1.381   6.317   6.999  3.4620  1.0464  2.4124
   7823SM  H13B10268   1.398   6.244   7.162  0.8550  1.0650  0.4862
   7823SM  H13C10269   1.282   6.378   7.125 -1.2348  0.7548 -2.1220
   7823SM   C1210270   1.087   6.249   7.026 -0.0502  0.2363 -0.3714
   7823SM  H12A10271   1.047   6.292   7.117  2.0998  2.9177 -0.5491
   7823SM  H12B10272   1.023   6.171   6.987 -0.2081 -0.8065  1.8092
   7823SM   C1110273   1.091   6.365   6.926 -0.2874  0.1098 -0.1546
   7823SM  H11A10274   1.000   6.356   6.863  0.5818 -1.0078 -1.3229
   7823SM  H11B10275   1.180   6.354   6.859  1.7053  2.1081  1.9634
   7823SM     P10276   1.159   6.618   6.931 -0.5731 -0.0697 -0.0464
   7823SM   O1310277   1.102   6.739   6.997 -0.0930  0.3215 -0.5161
   7823SM   O1410278   1.306   6.611   6.938  0.1327  0.0961 -0.6634
   7823SM   O1110279   1.103   6.612   6.779  0.1293  0.2602  0.2379
   7823SM   O1210280   1.099   6.490   7.001 -0.3466 -0.0231  0.0442
   7823SM   C1S10281   0.965   6.649   6.765 -0.0207 -0.5093 -0.0818
   7823SM   H1S10282   0.943   6.752   6.802  0.5404 -0.1433 -0.7329
   7823SM   H1T10283   0.904   6.574   6.820 -0.9315 -0.6656 -1.2619
   7823SM    NF10284   0.794   6.700   6.589  0.1434 -0.4568 -0.2362
   7823SM   HNF10285   0.729   6.639   6.544 -2.3709  0.5185  1.8326
   7823SM   C2S10286   0.924   6.641   6.618  0.1435  0.1436  0.4225
   7823SM   H2S10287   1.005   6.700   6.569 -0.2072  0.3440  0.0767
   7823SM   C3S10288   0.936   6.496   6.562 -0.3429 -0.6599 -0.3813
   7823SM   H3S10289   0.855   6.443   6.617  0.4483 -2.1576 -0.6372
   7823SM    O310290   1.068   6.440   6.586 -0.1347 -0.2813  0.0019
   7823SM   HO310291   1.116   6.507   6.636  0.4117  0.1006 -1.0024
   7823SM   C4S10292   0.901   6.496   6.415  0.2063  0.6872  0.0921
   7823SM   H4S10293   0.797   6.463   6.401  0.6785 -0.4371 -0.9016
   7823SM   C5S10294   0.974   6.514   6.304 -0.3276  0.2804 -0.0689
   7823SM   H5S10295   1.080   6.536   6.320 -0.4911 -0.5407  2.7832
   7823SM   C6S10296   0.914   6.515   6.169 -0.3590 -0.6789 -0.2633
   7823SM   H6S10297   0.916   6.613   6.116 -1.1374 -1.2601 -1.4231
   7823SM   H6T10298   0.808   6.484   6.161 -0.4214 -0.4022 -0.5435
   7823SM   C7S10299   0.983   6.422   6.072 -0.0497  0.3261  0.7443
   7823SM   H7S10300   0.961   6.317   6.099  1.1949  0.1377  1.0505
   7823SM   H7T10301   1.093   6.433   6.064 -0.0610 -0.8148 -2.2496
   7823SM   C8S10302   0.922   6.434   5.936 -0.7196  0.2151 -0.2466
   7823SM   H8S10303   0.924   6.540   5.901  2.9504  0.0070 -1.1054
   7823SM   H8T10304   0.817   6.397   5.940 -0.4628 -0.4429  0.5770
   7823SM   C9S10305   0.990   6.341   5.830 -0.6146 -0.7467  0.0206
   7823SM   H9S10306   0.952   6.347   5.726  0.9383 -0.2602 -0.5556
   7823SM   H9T10307   0.986   6.234   5.860  2.6969 -1.7590 -2.5515
   7823SM  C10S10308   1.142   6.365   5.817  0.0256  0.1092  0.2788
   7823SM  H10S10309   1.203   6.349   5.908 -0.8192  0.6611  0.9532
   7823SM  H10T10310   1.153   6.471   5.786  1.3124 -0.2634 -0.6024
   7823SM  C11S10311   1.212   6.276   5.704 -0.1211  0.3444 -0.0553
   7823SM  H11S10312   1.165   6.176   5.698  3.4878 -1.5261 -0.0970
   7823SM  H11T10313   1.316   6.269   5.743 -0.3997 -2.2153  0.3855
   7823SM  C12S10314   1.225   6.333   5.560  0.0537  0.1398 -0.0703
   7823SM  H12S10315   1.237   6.442   5.575 -2.7455  0.4669  0.4548
   7823SM  H12T10316   1.126   6.333   5.509 -0.2844 -0.5030  0.5690
   7823SM  C13S10317   1.321   6.255   5.473  0.4131 -0.2150 -0.7317
   7823SM  H13S10318   1.295   6.147   5.482 -0.2507  0.0088  0.2041
   7823SM  H13T10319   1.426   6.265   5.507  0.4145 -1.1890 -0.4148
   7823SM  C14S10320   1.337   6.302   5.325 -0.2489 -0.0378 -0.1727
   7823SM  H14S10321   1.234   6.311   5.284  0.0344  1.9309 -0.5402
   7823SM  H14T10322   1.402   6.222   5.283  1.2986  1.4277 -0.6931
   7823SM  C15S10323   1.381   6.451   5.317 -0.7108  0.6509 -0.4121
   7823SM  H15S10324   1.463   6.476   5.388  1.9750 -0.6644 -2.8475
   7823SM  H15T10325   1.291   6.514   5.330  0.1956  1.6267  1.6768
   7823SM  C16S10326   1.449   6.482   5.183 -0.2614  0.0248  0.0385
   7823SM  H16S10327   1.375   6.491   5.100 -0.1368 -0.1136 -0.0897
   7823SM  H16T10328   1.529   6.408   5.165 -0.8230 -0.5925  0.0217
   7823SM  C17S10329   1.527   6.617   5.174 -0.3536 -0.0664  0.4985
   7823SM  H17S10330   1.613   6.612   5.244  1.3081  0.5724 -1.3873
   7823SM  H17T10331   1.476   6.714   5.193  1.9920  1.0976  1.2557
   7823SM  C18S10332   1.576   6.621   5.028  0.1879 -0.2357  0.0348
   7823SM  H18S10333   1.508   6.668   4.954  0.1467  0.4711  0.5061
   7823SM  H18T10334   1.604   6.522   4.987  0.1547 -0.2101 -0.0500
   7823SM  H18U10335   1.665   6.687   5.028 -0.0414  0.0818  0.6997
   7823SM   C1F10336   0.765   6.830   6.614  0.5468 -0.3276  0.0057
   7823SM    OF10337   0.847   6.920   6.622  0.0161  0.1999 -0.6951
   7823SM   C2F10338   0.619   6.859   6.617 -0.5370 -0.5137 -0.2029
   7823SM   H2F10339   0.608   6.937   6.696  2.6567 -1.1173  0.9811
   7823SM   H2G10340   0.577   6.759   6.640  2.3095 -1.4764  1.2034
   7823SM   C3F10341   0.561   6.925   6.488 -0.0089  0.3610 -0.0614
   7823SM   H3F10342   0.633   7.001   6.450 -0.3315 -0.2728 -2.0998
   7823SM   H3G10343   0.461   6.971   6.501 -0.4939 -1.0077  1.3105
   7823SM   C4F10344   0.551   6.812   6.373 -0.0017 -0.3956 -0.1797
   7823SM   H4F10345   0.505   6.718   6.409  1.9019 -1.7353 -1.1435
   7823SM   H4G10346   0.659   6.796   6.352 -0.0971 -0.2252 -0.8458
   7823SM   C5F10347   0.484   6.852   6.237 -0.5501  0.9393 -0.0412
   7823SM   H5F10348   0.524   6.952   6.211 -0.2880  0.9763  0.5105
   7823SM   H5G10349   0.375   6.874   6.244 -0.6224  0.4349  0.5321
   7823SM   C6F10350   0.518   6.753   6.122  0.2038 -0.0835  0.3160
   7823SM   H6F10351   0.471   6.658   6.155  0.5613  0.3114  2.0596
   7823SM   H6G10352   0.627   6.734   6.109  0.0938 -0.4500 -0.1312
   7823SM   C7F10353   0.448   6.792   5.993  0.0244 -0.5132  0.8366
   7823SM   H7F10354   0.469   6.893   5.953  1.2607 -1.3791 -0.8534
   7823SM   H7G10355   0.339   6.783   6.013 -0.6767  0.5390 -2.0920
   7823SM   C8F10356   0.482   6.701   5.876 -0.2726  0.7953  0.2984
   7823SM   H8F10357   0.398   6.693   5.803 -0.7784 -1.3386  1.0277
   7823SM   H8G10358   0.493   6.595   5.910  0.2789  0.3881 -1.0985
   7823SM   C9F10359   0.603   6.750   5.792 -0.4512  0.3352  0.4092
   7823SM   H9F10360   0.686   6.732   5.864 -0.5665 -1.3416  0.1844
   7823SM   H9G10361   0.599   6.856   5.760  2.3144  0.2341 -0.5722
   7823SM  C10F10362   0.613   6.668   5.660 -0.0242 -0.0335 -0.1460
   7823SM  H10F10363   0.673   6.723   5.585  0.3811  0.6330  0.6580
   7823SM  H10G10364   0.512   6.656   5.616 -0.2512 -0.0912  0.3798
   7823SM  C11F10365   0.654   6.521   5.681 -0.0944  0.2091  0.2173
   7823SM  H11F10366   0.573   6.477   5.744 -2.0490  1.8192 -1.0200
   7823SM  H11G10367   0.752   6.511   5.731 -0.4720  0.7351  1.0994
   7823SM  C12F10368   0.656   6.434   5.550 -0.2323 -0.8262  0.0765
   7823SM  H12F10369   0.560   6.443   5.495 -0.0453 -0.8002 -0.2475
   7823SM  H12G10370   0.664   6.332   5.595 -2.9311 -0.1311  2.3787
   7823SM  C13F10371   0.773   6.478   5.457  0.1146  0.4328  0.0702
   7823SM  H13F10372   0.868   6.486   5.512  0.1282 -0.7439  0.2426
   7823SM  H13G10373   0.752   6.573   5.402 -0.9378  0.2163  0.0699
   7823SM  C14F10374   0.809   6.369   5.362  0.4531  0.1604  0.0252
   7823SM  H14F10375   0.714   6.312   5.349  0.0463  0.7265  0.4864
   7823SM  H14G10376   0.880   6.310   5.423  1.0214  1.0061  0.2039
   7823SM  C15F10377   0.882   6.416   5.237  0.3469  0.0860  0.7674
   7823SM  H15F10378   0.991   6.429   5.258  0.5704  1.4872 -1.0164
   7823SM  H15G10379   0.836   6.511   5.201  1.9848  0.5228 -0.2958
   7823SM  C16F10380   0.855   6.325   5.116 -0.0701  0.1108  0.3582
   7823SM  H16F10381   0.745   6.306   5.120  0.0248 -0.2385  1.7004
   7823SM  H16G10382   0.919   6.235   5.126  0.4574 -0.0012 -2.8375
   7823SM  C17F10383   0.890   6.388   4.983 -0.0596  0.1578  0.3719
   7823SM  H17F10384   0.991   6.434   4.989  0.3820 -0.7968  0.4492
   7823SM  H17G10385   0.814   6.460   4.946 -0.1991 -0.1098  0.1349
   7823SM  C18F10386   0.886   6.284   4.871  0.6541  0.6235 -0.5456
   7823SM  H18F10387   0.789   6.232   4.853  1.9555 -2.3755  0.4290
   7823SM  H18G10388   0.955   6.200   4.894 -0.4418 -0.6030 -1.5616
   7823SM  C19F10389   0.921   6.322   4.727 -0.1713  0.6170  0.3975
   7823SM  H19F10390   1.019   6.373   4.725 -1.1714  2.6740 -1.3935
   7823SM  H19G10391   0.843   6.393   4.690 -0.7355  0.2482  0.8608
   7823SM  C20F10392   0.935   6.197   4.638 -0.3055 -0.2899 -0.3864
   7823SM  H20F10393   0.836   6.147   4.630 -1.3480  1.5146  0.6205
   7823SM  H20G10394   1.008   6.126   4.684 -0.4897  0.0944  0.5258
   7823SM  C21F10395   0.971   6.227   4.490 -0.2326 -0.0388  0.2599
   7823SM  H21F10396   0.988   6.134   4.431 -1.6688 -0.4435  0.4449
   7823SM  H21G10397   1.062   6.289   4.475 -2.1170  2.2376 -3.6424
   7823SM  C22F10398   0.847   6.297   4.418 -0.7088 -0.2394  0.0565
   7823SM  H22F10399   0.818   6.389   4.473 -0.6409  0.5762 -1.2535
   7823SM  H22G10400   0.769   6.218   4.423 -1.9180  0.6084 -3.2407
   7823SM  C23F10401   0.878   6.333   4.273 -0.3038 -0.3696 -0.1345
   7823SM  H23F10402   0.971   6.394   4.275 -0.5220 -0.0362 -0.0109
   7823SM  H23G10403   0.791   6.386   4.230  0.6433  0.6130 -0.9130
   7823SM  H23H10404   0.885   6.245   4.206 -0.0832 -1.0121  0.7193
   7923SM     N10405   7.263   0.503   7.573  0.1268  0.6123 -0.4089
   7923SM   C1510406   7.159   0.599   7.514 -0.2324  0.4920  0.0749
   7923SM  H15A10407   7.210   0.685   7.473  2.0184 -1.6668 -2.0386
   7923SM  H15B10408   7.093   0.638   7.590  2.2280  1.7048  1.7237
   7923SM  H15C10409   7.111   0.553   7.428  0.7657  0.5228 -0.5114
   7923SM   C1410410   7.336   0.446   7.457  0.3138 -0.1937 -0.0235
   7923SM  H14A10411   7.399   0.519   7.410  0.1687 -0.1239 -0.1077
   7923SM  H14B10412   7.269   0.413   7.379 -2.9470  2.2045  1.5079
   7923SM  H14C10413   7.399   0.364   7.490  1.1701  0.1529 -0.7568
   7923SM   C1310414   7.363   0.568   7.664 -0.4746 -0.2602  0.0576
   7923SM  H13A10415   7.434   0.501   7.709 -2.6312 -0.7287  3.0533
   7923SM  H13B10416   7.318   0.636   7.736  2.2924  0.2137  1.4683
   7923SM  H13C10417   7.419   0.630   7.595  0.1809 -1.1669 -0.2295
   7923SM   C1210418   7.201   0.391   7.659  0.6311  0.0977 -0.0563
   7923SM  H12A10419   7.268   0.308   7.681 -0.5925 -1.3173 -1.4086
   7923SM  H12B10420   7.127   0.338   7.600  0.4788 -1.0115  1.0943
   7923SM   C1110421   7.113   0.444   7.778 -0.1676  0.8958 -0.4994
   7923SM  H11A10422   7.084   0.551   7.769 -1.4175  0.5923 -0.2158
   7923SM  H11B10423   7.173   0.444   7.872  2.8662  1.8219 -2.2770
   7923SM     P10424   6.866   0.402   7.718 -0.3326  0.3345  0.1748
   7923SM   O1310425   6.763   0.311   7.772  0.0080 -0.3279  0.2499
   7923SM   O1410426   6.847   0.547   7.737 -0.6395 -0.4877  0.0209
   7923SM   O1110427   6.888   0.373   7.563 -0.2810  0.5081  0.0301
   7923SM   O1210428   7.003   0.361   7.788 -0.1160  0.7069  0.3657
   7923SM   C1S10429   6.908   0.230   7.538 -0.6638 -0.2905 -0.4346
   7923SM   H1S10430   6.842   0.163   7.597  0.6495 -1.0325  0.2221
   7923SM   H1T10431   7.009   0.191   7.561 -2.0132 -4.1792 -0.3774
   7923SM    NF10432   6.871   0.055   7.368  0.4122  0.0685  0.0062
   7923SM   HNF10433   6.941   0.008   7.315 -0.4032 -0.9562 -0.1782
   7923SM   C2S10434   6.881   0.201   7.382 -0.0880  0.0571 -0.7184
   7923SM   H2S10435   6.777   0.235   7.367 -0.1487  0.9477  1.3735
   7923SM   C3S10436   6.974   0.278   7.295 -0.2245  0.2345 -0.4004
   7923SM   H3S10437   7.080   0.248   7.306 -0.2326  0.6567  1.0188
   7923SM    O310438   6.980   0.414   7.330 -0.2910 -0.1029 -0.3348
   7923SM   HO310439   6.936   0.415   7.415 -0.6781  2.2058 -0.5100
   7923SM   C4S10440   6.933   0.260   7.156 -0.3190  0.3295 -0.4272
   7923SM   H4S10441   6.997   0.191   7.099 -1.8457 -0.3753 -1.3645
   7923SM   C5S10442   6.834   0.325   7.091  0.0240 -0.7421  0.1528
   7923SM   H5S10443   6.772   0.402   7.140 -0.9197 -0.2786 -1.6865
   7923SM   C6S10444   6.787   0.311   6.946 -0.1957  0.1697 -0.1740
   7923SM   H6S10445   6.782   0.412   6.901 -1.2517 -0.3257 -1.2547
   7923SM   H6T10446   6.682   0.273   6.944  0.0031 -0.4294 -2.4927
   7923SM   C7S10447   6.864   0.218   6.855  0.1016 -0.2255  0.6210
   7923SM   H7S10448   6.849   0.110   6.880  2.2803 -1.2770 -2.0926
   7923SM   H7T10449   6.971   0.246   6.852 -0.6460  3.1448  1.3978
   7923SM   C8S10450   6.812   0.220   6.711  0.3236 -0.0953 -0.2958
   7923SM   H8S10451   6.839   0.312   6.655 -2.5272  0.7236 -0.4402
   7923SM   H8T10452   6.701   0.222   6.711  0.2714 -0.7938 -2.1772
   7923SM   C9S10453   6.857   0.098   6.635  0.2574  0.3736  0.2222
   7923SM   H9S10454   6.846   0.003   6.690  1.9850 -0.3400 -0.6022
   7923SM   H9T10455   6.967   0.110   6.624  0.3229  0.4543  0.9063
   7923SM  C10S10456   6.792   0.079   6.497  0.0602  0.7168 -0.7037
   7923SM  H10S10457   6.683   0.092   6.512  0.1388  2.3261 -1.3504
   7923SM  H10T10458   6.815  -0.026   6.467  2.0405  0.9276 -0.0230
   7923SM  C11S10459   6.844   0.177   6.396 -0.6839  0.2592  0.5702
   7923SM  H11S10460   6.885   0.134   6.303  0.1271  1.9407  0.1144
   7923SM  H11T10461   6.937   0.220   6.440 -0.4750  1.2374 -0.7819
   7923SM  C12S10462   6.743   0.287   6.361 -0.0125  0.2634  0.1217
   7923SM  H12S10463   6.782   0.364   6.290 -1.0024  0.6124 -0.0635
   7923SM  H12T10464   6.711   0.331   6.458 -1.2105 -0.0408 -0.1193
   7923SM  C13S10465   6.619   0.232   6.285 -0.7500  0.5958 -0.5650
   7923SM  H13S10466   6.573   0.147   6.340  1.7195 -0.7240 -0.4199
   7923SM  H13T10467   6.645   0.184   6.188  0.5541  2.2159 -1.0678
   7923SM  C14S10468   6.513   0.337   6.269 -0.3496  0.0189  0.7082
   7923SM  H14S10469   6.539   0.415   6.195  0.6302 -0.1621  0.8528
   7923SM  H14T10470   6.506   0.394   6.364  0.3759  1.7928 -0.2556
   7923SM  C15S10471   6.375   0.271   6.245  0.2202  0.8734  0.2991
   7923SM  H15S10472   6.360   0.206   6.335  1.8763  0.2051  0.1333
   7923SM  H15T10473   6.387   0.204   6.158  0.5504  0.9387  0.2944
   7923SM  C16S10474   6.269   0.377   6.230 -0.0216 -0.1627  0.1487
   7923SM  H16S10475   6.301   0.481   6.253 -2.3896  0.5624  0.4044
   7923SM  H16T10476   6.178   0.359   6.291  0.1315 -0.5242  0.2751
   7923SM  C17S10477   6.212   0.390   6.088  0.0581 -0.0925  0.5226
   7923SM  H17S10478   6.300   0.410   6.024  0.5019 -1.5132  0.6455
   7923SM  H17T10479   6.137   0.472   6.087 -1.3407 -1.3358 -0.1998
   7923SM  C18S10480   6.151   0.262   6.033 -0.0182 -0.3694 -0.6125
   7923SM  H18S10481   6.067   0.232   6.100  1.4985 -3.7454  0.0107
   7923SM  H18T10482   6.215   0.171   6.037 -0.4197 -0.6440 -0.3616
   7923SM  H18U10483   6.116   0.280   5.929 -0.1082  0.6763 -0.4118
   7923SM   C1F10484   6.767  -0.024   7.404 -0.4003 -0.4641  0.4945
   7923SM    OF10485   6.684   0.007   7.485 -0.5310 -0.1910 -0.2543
   7923SM   C2F10486   6.784  -0.169   7.353 -0.0470 -0.3943  0.5351
   7923SM   H2F10487   6.771  -0.240   7.437  0.8956  0.3467  1.3277
   7923SM   H2G10488   6.888  -0.190   7.319  0.2562 -1.4469  2.0436
   7923SM   C3F10489   6.685  -0.218   7.241  0.0848 -0.2174 -0.8332
   7923SM   H3F10490   6.582  -0.201   7.280 -0.3407 -1.5159 -1.3237
   7923SM   H3G10491   6.699  -0.327   7.225  0.6146 -0.6661  2.0446
   7923SM   C4F10492   6.696  -0.143   7.104 -0.5239 -0.3439 -0.2104
   7923SM   H4F10493   6.799  -0.149   7.062 -1.4891 -3.9389 -2.4916
   7923SM   H4G10494   6.672  -0.037   7.125  1.9778  0.2185  0.2234
   7923SM   C5F10495   6.617  -0.223   6.999  0.5070 -0.1523  0.7220
   7923SM   H5F10496   6.511  -0.201   7.026  0.5617  0.0623  0.7633
   7923SM   H5G10497   6.632  -0.330   7.025  0.0656 -0.3687  0.1178
   7923SM   C6F10498   6.645  -0.183   6.853  0.3470 -0.2107  0.0184
   7923SM   H6F10499   6.744  -0.225   6.827 -0.5477 -0.4244 -3.4519
   7923SM   H6G10500   6.652  -0.073   6.850  1.9399 -0.2506  1.1873
   7923SM   C7F10501   6.556  -0.234   6.747  0.1059  0.3356  0.0199
   7923SM   H7F10502   6.452  -0.207   6.773 -0.4086 -0.4664 -1.0883
   7923SM   H7G10503   6.557  -0.346   6.745 -0.0506  0.3346 -1.7179
   7923SM   C8F10504   6.600  -0.191   6.607  0.6990 -0.2772 -0.4185
   7923SM   H8F10505   6.707  -0.221   6.596  0.2918 -1.9700  0.0195
   7923SM   H8G10506   6.595  -0.080   6.598 -2.4924 -0.4414 -2.0836
   7923SM   C9F10507   6.507  -0.240   6.491  0.0313  0.5369 -0.7097
   7923SM   H9F10508   6.400  -0.212   6.499 -0.9623 -2.4834 -1.9160
   7923SM   H9G10509   6.508  -0.351   6.492  1.3403  0.5437  0.1169
   7923SM  C10F10510   6.550  -0.183   6.357  0.2558 -0.0285  0.4444
   7923SM  H10F10511   6.644  -0.227   6.316  0.4670  0.9007 -0.0684
   7923SM  H10G10512   6.576  -0.076   6.367 -1.7223  1.0233 -3.7363
   7923SM  C11F10513   6.435  -0.184   6.247  0.5403 -0.0691 -0.9347
   7923SM  H11F10514   6.354  -0.121   6.289  1.9485  1.2445 -0.0639
   7923SM  H11G10515   6.394  -0.287   6.236 -0.2433  0.1070  0.1908
   7923SM  C12F10516   6.489  -0.137   6.104 -0.4604 -0.4366 -0.0810
   7923SM  H12F10517   6.576  -0.201   6.077 -1.0977 -1.4105  0.1239
   7923SM  H12G10518   6.526  -0.033   6.113 -1.7101  0.1549 -1.4381
   7923SM  C13F10519   6.386  -0.141   5.996 -0.1496  0.4316  0.7119
   7923SM  H13F10520   6.300  -0.071   6.006 -0.5152  0.5574 -2.3269
   7923SM  H13G10521   6.333  -0.238   6.005 -1.7408  1.1774 -0.0694
   7923SM  C14F10522   6.442  -0.133   5.852 -0.8508 -0.3606  0.2874
   7923SM  H14F10523   6.367  -0.149   5.772  2.1225 -2.1324 -2.3940
   7923SM  H14G10524   6.501  -0.223   5.824 -1.9935 -0.2321 -2.9469
   7923SM  C15F10525   6.521  -0.008   5.813  0.2730 -0.1887 -0.0423
   7923SM  H15F10526   6.569  -0.028   5.715  0.6510  1.5814 -0.2504
   7923SM  H15G10527   6.603   0.012   5.886 -0.2964  0.5485  0.4137
   7923SM  C16F10528   6.430   0.114   5.820 -0.2144  0.4860  0.5294
   7923SM  H16F10529   6.401   0.138   5.925 -1.4858  0.2190  0.2483
   7923SM  H16G10530   6.342   0.089   5.757 -0.0778 -0.9043  0.8507
   7923SM  C17F10531   6.487   0.239   5.756 -0.3231  0.4788  0.7266
   7923SM  H17F10532   6.406   0.303   5.717  0.7961  1.3787 -0.2179
   7923SM  H17G10533   6.537   0.199   5.665 -1.1374 -2.2174  1.3631
   7923SM  C18F10534   6.580   0.319   5.847  0.0024  0.1738  0.4147
   7923SM  H18F10535   6.658   0.256   5.893 -0.1851 -1.1884 -1.0406
   7923SM  H18G10536   6.512   0.357   5.926  0.6887  0.9325  0.6588
   7923SM  C19F10537   6.647   0.435   5.779 -0.3544 -0.4089 -0.7030
   7923SM  H19F10538   6.565   0.492   5.729  0.0859  2.2541  1.3708
   7923SM  H19G10539   6.734   0.409   5.716  0.1013 -0.6303  0.0065
   7923SM  C20F10540   6.700   0.545   5.875 -0.8738  0.3114  0.4788
   7923SM  H20F10541   6.613   0.586   5.929 -4.3119  0.1903 -4.3108
   7923SM  H20G10542   6.743   0.625   5.811  0.9833  1.1313  2.6364
   7923SM  C21F10543   6.810   0.500   5.976  0.2220  0.1878 -0.5089
   7923SM  H21F10544   6.876   0.422   5.931 -0.5595 -0.3443 -0.7589
   7923SM  H21G10545   6.767   0.456   6.068 -0.1524  1.1691 -0.1960
   7923SM  C22F10546   6.899   0.609   6.034 -0.3966  0.4976  0.0025
   7923SM  H22F10547   6.858   0.712   6.043 -0.0301  0.6304  0.1540
   7923SM  H22G10548   6.981   0.628   5.962 -1.2360 -0.8994 -1.3549
   7923SM  C23F10549   6.955   0.579   6.175 -0.1095 -0.3572 -0.3523
   7923SM  H23F10550   7.024   0.660   6.206  0.9882 -1.5672  0.4818
   7923SM  H23G10551   7.005   0.480   6.172 -1.6451 -1.1439 -1.0625
   7923SM  H23H10552   6.874   0.567   6.250  0.8925 -1.0608  0.6435
   8023SM     N10553   0.245   0.191   7.870  0.6437 -0.0737  0.5814
   8023SM   C1510554   0.178   0.320   7.829  0.1547 -0.1173  0.5474
   8023SM  H15A10555   0.218   0.408   7.877  0.7408 -0.5942  0.9315
   8023SM  H15B10556   0.071   0.315   7.846 -0.0233 -1.9914 -0.7975
   8023SM  H15C10557   0.181   0.334   7.722  1.3844 -1.0702  0.4438
   8023SM   C1410558   0.381   0.202   7.813 -0.0118 -0.4221  0.3308
   8023SM  H14A10559   0.437   0.292   7.836  0.6342 -0.6333 -0.3519
   8023SM  H14B10560   0.373   0.192   7.706 -1.2137 -0.1254  0.3873
   8023SM  H14C10561   0.442   0.115   7.832 -0.6529 -0.8299  0.5445
   8023SM   C1310562   0.257   0.178   8.020  0.2011 -0.3229  0.1239
   8023SM  H13A10563   0.324   0.095   8.038  1.0085  0.2208 -0.3268
   8023SM  H13B10564   0.165   0.169   8.077 -0.5507  2.2376 -0.5848
   8023SM  H13C10565   0.311   0.259   8.065 -0.4214  0.9605 -1.3768
   8023SM   C1210566   0.164   0.068   7.827 -0.5165  0.1666  0.3510
   8023SM  H12A10567   0.064   0.077   7.869 -0.5041  2.5011  0.0359
   8023SM  H12B10568   0.207  -0.021   7.871  0.7587  0.3510 -0.4775
   8023SM   C1110569   0.149   0.065   7.670  0.0945  0.0634  0.2946
   8023SM  H11A10570   0.156   0.169   7.631 -0.7845 -0.0045 -0.0623
   8023SM  H11B10571   0.050   0.022   7.645  0.3677 -0.8084  0.7070
   8023SM     P10572   0.269  -0.166   7.665  0.1610 -0.1047 -0.1009
   8023SM   O1310573   0.409  -0.214   7.662  0.4736 -0.2605 -0.5183
   8023SM   O1410574   0.190  -0.198   7.788  0.0498 -0.2411  0.5647
   8023SM   O1110575   0.197  -0.231   7.544  0.0730  0.0079  0.3384
   8023SM   O1210576   0.258  -0.015   7.628  0.1987 -0.2932  0.2530
   8023SM   C1S10577   0.173  -0.164   7.425  0.5737  0.2152 -0.1226
   8023SM   H1S10578   0.257  -0.100   7.391 -0.2270  1.3281 -0.0476
   8023SM   H1T10579   0.084  -0.098   7.438  0.5313  0.1420 -0.0383
   8023SM    NF10580   0.139  -0.200   7.184  0.8511 -0.4160  0.0597
   8023SM   HNF10581   0.054  -0.162   7.149  0.1387 -2.0232 -0.0467
   8023SM   C2S10582   0.130  -0.266   7.315 -0.0840  0.0810 -0.0850
   8023SM   H2S10583   0.206  -0.346   7.313  0.4782  0.5091  2.0246
   8023SM   C3S10584  -0.002  -0.338   7.351 -0.1150 -0.0268  0.9507
   8023SM   H3S10585  -0.079  -0.261   7.371  1.5434  2.1040 -0.4612
   8023SM    O310586   0.025  -0.418   7.462  0.3838 -0.2302 -0.3292
   8023SM   HO310587   0.106  -0.378   7.493 -0.2700  0.0928  1.0073
   8023SM   C4S10588  -0.043  -0.429   7.241  0.2683  0.4148 -0.1913
   8023SM   H4S10589   0.004  -0.529   7.240  0.9634  0.7110  0.8203
   8023SM   C5S10590  -0.145  -0.407   7.165  0.2107 -0.3574  0.6444
   8023SM   H5S10591  -0.210  -0.318   7.169 -1.4075 -1.3131 -2.0680
   8023SM   C6S10592  -0.204  -0.508   7.079 -0.0855 -0.0071  0.2443
   8023SM   H6S10593  -0.312  -0.525   7.095 -0.2274 -0.8193 -1.2876
   8023SM   H6T10594  -0.154  -0.608   7.085 -1.0513 -0.5903 -0.8473
   8023SM   C7S10595  -0.202  -0.459   6.933 -0.2544  0.2977  0.1044
   8023SM   H7S10596  -0.100  -0.438   6.895 -0.5541  3.8727  0.9265
   8023SM   H7T10597  -0.263  -0.367   6.923 -1.0364 -0.2828 -0.6714
   8023SM   C8S10598  -0.262  -0.558   6.831 -0.3295  0.2918 -1.2215
   8023SM   H8S10599  -0.369  -0.572   6.860 -0.0460  1.4782  0.5445
   8023SM   H8T10600  -0.209  -0.656   6.840 -3.6024 -1.6554 -1.4669
   8023SM   C9S10601  -0.264  -0.513   6.682  0.0031 -0.0136 -0.3131
   8023SM   H9S10602  -0.286  -0.404   6.676 -0.4212 -0.0602  0.3383
   8023SM   H9T10603  -0.346  -0.562   6.626  0.2456 -1.2782  0.3907
   8023SM  C10S10604  -0.137  -0.540   6.601  0.4775  0.6643  0.3786
   8023SM  H10S10605  -0.118  -0.648   6.618 -2.4940 -0.0380 -0.1171
   8023SM  H10T10606  -0.053  -0.488   6.652  1.2308  1.6672 -1.7907
   8023SM  C11S10607  -0.151  -0.516   6.443  0.0316 -0.7471  0.1143
   8023SM  H11S10608  -0.161  -0.406   6.438 -0.6461 -0.8315 -0.6618
   8023SM  H11T10609  -0.245  -0.568   6.411  0.5265 -1.9415  0.5387
   8023SM  C12S10610  -0.032  -0.575   6.366  0.1487 -0.1815 -1.0018
   8023SM  H12S10611  -0.025  -0.683   6.393  0.6642  0.3455  1.1757
   8023SM  H12T10612   0.060  -0.524   6.401 -0.9741  0.4427  1.2081
   8023SM  C13S10613  -0.031  -0.561   6.217 -0.2095 -0.2447  0.3959
   8023SM  H13S10614  -0.008  -0.459   6.180 -0.7573 -1.0095 -2.2817
   8023SM  H13T10615  -0.135  -0.587   6.190 -0.6425  0.4540  1.3470
   8023SM  C14S10616   0.060  -0.659   6.140 -0.3987 -0.3737 -0.4131
   8023SM  H14S10617   0.039  -0.762   6.177  0.0236 -0.1951  0.3364
   8023SM  H14T10618   0.166  -0.643   6.169 -0.6677 -0.2557  0.5436
   8023SM  C15S10619   0.061  -0.652   5.991  0.2641 -0.1813 -0.0594
   8023SM  H15S10620   0.140  -0.717   5.947  0.4428  0.8955 -1.4093
   8023SM  H15T10621   0.095  -0.551   5.959  0.9397 -0.8928 -1.7106
   8023SM  C16S10622  -0.081  -0.656   5.928 -0.4729  0.1569  0.3600
   8023SM  H16S10623  -0.142  -0.569   5.961 -1.9614  0.4365 -2.7296
   8023SM  H16T10624  -0.135  -0.749   5.956  0.4310  0.3136  2.8053
   8023SM  C17S10625  -0.087  -0.644   5.771 -0.1384 -0.1521 -0.1604
   8023SM  H17S10626  -0.055  -0.542   5.743 -1.2067  0.5744  1.1451
   8023SM  H17T10627  -0.192  -0.651   5.736 -0.5786 -0.0373  1.0773
   8023SM  C18S10628  -0.001  -0.744   5.686  0.4655  0.4441  0.5866
   8023SM  H18S10629  -0.024  -0.850   5.710  2.4819 -0.5929 -1.6650
   8023SM  H18T10630   0.104  -0.715   5.710  0.6693 -0.8235  1.3042
   8023SM  H18U10631  -0.020  -0.728   5.578 -2.0740 -0.6276  0.8302
   8023SM   C1F10632   0.252  -0.164   7.124  0.4739 -0.1373 -0.2630
   8023SM    OF10633   0.358  -0.212   7.156 -0.6491 -0.1756 -0.5405
   8023SM   C2F10634   0.245  -0.058   7.024 -0.1350 -0.5246  0.4003
   8023SM   H2F10635   0.231   0.040   7.075 -0.4402 -0.8938  1.0328
   8023SM   H2G10636   0.157  -0.070   6.957  0.3365  2.0042 -0.8195
   8023SM   C3F10637   0.373  -0.049   6.939 -0.0903  0.0888 -0.2550
   8023SM   H3F10638   0.397  -0.145   6.890 -1.4936 -1.3189  1.6515
   8023SM   H3G10639   0.463  -0.014   6.994  0.6674 -0.6193 -1.0175
   8023SM   C4F10640   0.343   0.062   6.836  0.3649 -0.6895 -0.7272
   8023SM   H4F10641   0.304   0.138   6.906  0.5596 -0.7202 -0.5831
   8023SM   H4G10642   0.264   0.030   6.765  0.1724 -1.3942 -0.2185
   8023SM   C5F10643   0.469   0.091   6.753  0.0703 -0.2147  0.5135
   8023SM   H5F10644   0.511  -0.009   6.730 -2.0075 -1.8413  3.1822
   8023SM   H5G10645   0.543   0.150   6.810  0.6461 -0.1241 -0.3124
   8023SM   C6F10646   0.428   0.168   6.622  0.1692 -0.0923 -0.1279
   8023SM   H6F10647   0.411   0.275   6.647 -0.7420 -0.5377  1.3182
   8023SM   H6G10648   0.327   0.136   6.586  0.4130  0.9954 -1.8764
   8023SM   C7F10649   0.524   0.152   6.511  0.3107 -0.1543 -0.1162
   8023SM   H7F10650   0.550   0.044   6.499 -2.0154 -0.7869  0.1093
   8023SM   H7G10651   0.616   0.202   6.548 -0.0867 -0.5973  1.5388
   8023SM   C8F10652   0.481   0.222   6.380 -0.4526  0.1746 -0.1596
   8023SM   H8F10653   0.470   0.332   6.388  0.7054  0.4544 -1.9294
   8023SM   H8G10654   0.381   0.179   6.355  0.0558 -1.6367  0.7196
   8023SM   C9F10655   0.578   0.214   6.258 -0.8419 -0.3110 -0.4692
   8023SM   H9F10656   0.586   0.103   6.253 -0.3616 -0.4057  1.5469
   8023SM   H9G10657   0.678   0.250   6.289 -1.0583 -0.4935  0.4546
   8023SM  C10F10658   0.531   0.291   6.133 -0.2626  0.2051  0.3349
   8023SM  H10F10659   0.543   0.400   6.150 -0.9465 -0.0087  2.4264
   8023SM  H10G10660   0.426   0.258   6.120  0.0121 -0.5742  0.0178
   8023SM  C11F10661   0.604   0.240   6.006  0.0664 -0.4398 -0.2261
   8023SM  H11F10662   0.600   0.130   5.995 -1.7295 -0.3866 -0.3626
   8023SM  H11G10663   0.714   0.254   6.014  0.1428  0.9549 -2.6650
   8023SM  C12F10664   0.555   0.315   5.877 -0.0312 -0.3610 -0.0097
   8023SM  H12F10665   0.625   0.307   5.792  0.8670  1.6901  0.4841
   8023SM  H12G10666   0.553   0.425   5.892  1.5739  0.1778 -3.0986
   8023SM  C13F10667   0.412   0.269   5.825 -0.4864  0.8656  0.6550
   8023SM  H13F10668   0.350   0.268   5.917 -0.2235 -2.2979  0.9240
   8023SM  H13G10669   0.420   0.163   5.794  0.4382  0.2199  2.9053
   8023SM  C14F10670   0.357   0.359   5.715  0.3770 -0.5921 -0.2103
   8023SM  H14F10671   0.420   0.340   5.625  1.1494 -1.1239  0.4307
   8023SM  H14G10672   0.381   0.462   5.749  1.4921 -0.8549 -0.1744
   8023SM  C15F10673   0.210   0.346   5.689  0.2721  0.3205  0.2421
   8023SM  H15F10674   0.163   0.345   5.790 -0.3766 -1.3063 -0.0488
   8023SM  H15G10675   0.184   0.246   5.648  0.7762  0.2276  0.1432
   8023SM  C16F10676   0.156   0.461   5.595  0.7181  0.9344 -0.2012
   8023SM  H16F10677   0.148   0.559   5.647 -2.8437  0.6402  0.1153
   8023SM  H16G10678   0.048   0.437   5.578  1.2730 -1.9986 -0.1410
   8023SM  C17F10679   0.219   0.473   5.460 -0.1438 -0.1187  0.1850
   8023SM  H17F10680   0.327   0.498   5.462 -0.5518  2.2579 -2.3761
   8023SM  H17G10681   0.170   0.550   5.398 -0.2541 -1.6485 -1.7587
   8023SM  C18F10682   0.192   0.341   5.382  0.5123  0.4234 -0.1070
   8023SM  H18F10683   0.088   0.301   5.384  1.1559 -1.4174 -0.8153
   8023SM  H18G10684   0.251   0.257   5.427 -0.0282  0.6503  1.0696
   8023SM  C19F10685   0.227   0.353   5.235  1.1006 -0.1308  0.3971
   8023SM  H19F10686   0.328   0.399   5.224 -0.1845  2.3645 -1.8598
   8023SM  H19G10687   0.163   0.429   5.186  1.3966  0.8958  1.5584
   8023SM  C20F10688   0.215   0.216   5.169  0.0590  0.1247  0.1647
   8023SM  H20F10689   0.109   0.181   5.172  0.0842 -0.1957 -1.7743
   8023SM  H20G10690   0.279   0.149   5.231 -0.7514  0.5207  1.4669
   8023SM  C21F10691   0.253   0.213   5.020  0.4328  0.0921 -0.0623
   8023SM  H21F10692   0.281   0.108   4.997 -2.8445 -1.2629  1.5228
   8023SM  H21G10693   0.346   0.272   5.003 -0.0925  1.0316  0.2106
   8023SM  C22F10694   0.134   0.262   4.931 -0.7402  0.0701  0.5409
   8023SM  H22F10695   0.110   0.370   4.941 -2.1536 -0.1515 -0.1355
   8023SM  H22G10696   0.041   0.211   4.961 -0.7561  0.5279  1.2885
   8023SM  C23F10697   0.140   0.222   4.777  0.1453 -0.9085 -0.4153
   8023SM  H23F10698   0.199   0.130   4.755 -0.1805 -0.9045 -1.3535
   8023SM  H23G10699   0.188   0.302   4.717  0.3092  0.9260  2.0441
   8023SM  H23H10700   0.038   0.203   4.737 -1.0432  0.6396  1.6999
   8123SM     N10701   3.704   4.196   2.313 -0.8140  0.1838 -0.5512
   8123SM   C1510702   3.584   4.235   2.233 -0.1714  0.2668 -0.2030
   8123SM  H15A10703   3.515   4.152   2.231  0.6142 -0.4378  0.8928
   8123SM  H15B10704   3.612   4.251   2.130 -1.6510 -0.3993 -0.7359
   8123SM  H15C10705   3.534   4.321   2.275  0.7482 -0.7239  3.2350
   8123SM   C1410706   3.761   4.064   2.261  0.8531  0.1794 -0.0757
   8123SM  H14A10707   3.850   4.027   2.310 -0.6027 -1.1890  1.7028
   8123SM  H14B10708   3.775   4.079   2.155 -2.2554 -0.9230 -0.7383
   8123SM  H14C10709   3.688   3.985   2.270  0.2935  0.7759  0.7941
   8123SM   C1310710   3.809   4.305   2.292  0.2524 -0.3411  0.4907
   8123SM  H13A10711   3.840   4.320   2.190  3.2517  0.9911  1.4804
   8123SM  H13B10712   3.898   4.288   2.351  0.8189 -0.2143 -0.3194
   8123SM  H13C10713   3.783   4.404   2.327 -0.0527 -0.9520  2.0887
   8123SM   C1210714   3.675   4.167   2.464  0.1391 -0.0353 -0.0179
   8123SM  H12A10715   3.764   4.115   2.495  0.4532  0.0386 -0.7726
   8123SM  H12B10716   3.590   4.099   2.467 -1.1066  1.4192 -0.8268
   8123SM   C1110717   3.637   4.292   2.547 -0.1691 -0.3682 -0.0312
   8123SM  H11A10718   3.580   4.259   2.636 -0.1988  0.0332  0.0989
   8123SM  H11B10719   3.575   4.357   2.481  0.7281 -0.1413 -0.6591
   8123SM     P10720   3.839   4.319   2.710  0.0002  0.2516  0.2346
   8123SM   O1310721   3.775   4.204   2.774 -0.4555  0.2682  0.3025
   8123SM   O1410722   3.985   4.314   2.677 -0.0938 -0.3394 -0.8327
   8123SM   O1110723   3.812   4.437   2.803 -0.7009 -0.3116 -0.2235
   8123SM   O1210724   3.755   4.371   2.584  0.0894  0.3256 -0.0559
   8123SM   C1S10725   3.681   4.485   2.833  0.0314  0.5568 -0.3448
   8123SM   H1S10726   3.608   4.404   2.810 -1.0387  1.5043 -0.3289
   8123SM   H1T10727   3.649   4.576   2.778 -0.5819 -0.5864 -1.9719
   8123SM    NF10728   3.524   4.516   3.041 -0.6847 -0.2802  0.1921
   8123SM   HNF10729   3.475   4.600   3.061 -0.2384 -0.3731  1.7780
   8123SM   C2S10730   3.662   4.516   2.986 -0.2834  0.1442  0.4834
   8123SM   H2S10731   3.722   4.438   3.038  2.0195  0.1108 -1.9957
   8123SM   C3S10732   3.735   4.650   3.003 -0.9746 -0.3103 -0.4467
   8123SM   H3S10733   3.687   4.723   2.934  0.9051  0.5486 -0.9047
   8123SM    O310734   3.869   4.648   2.972  0.2127  0.1354 -0.0393
   8123SM   HO310735   3.878   4.561   2.933  0.7346 -0.5510  1.5513
   8123SM   C4S10736   3.724   4.708   3.146  0.1292  0.0174 -0.1999
   8123SM   H4S10737   3.630   4.755   3.178  0.3869 -0.5947  1.5365
   8123SM   C5S10738   3.818   4.709   3.244 -0.0725 -0.2983  0.1470
   8123SM   H5S10739   3.918   4.676   3.213 -0.2200 -1.1844  0.5926
   8123SM   C6S10740   3.812   4.779   3.380  0.0592 -0.5234  0.3586
   8123SM   H6S10741   3.733   4.856   3.393 -0.5678 -1.1087  0.0888
   8123SM   H6T10742   3.908   4.835   3.382 -1.4032  2.4146 -2.2815
   8123SM   C7S10743   3.790   4.685   3.497 -0.4057  0.0937  1.2618
   8123SM   H7S10744   3.870   4.609   3.482 -0.6376  0.3897 -2.3876
   8123SM   H7T10745   3.690   4.636   3.486 -0.3891  0.5739 -2.0487
   8123SM   C8S10746   3.812   4.757   3.633 -0.2209  0.0483  0.0409
   8123SM   H8S10747   3.728   4.829   3.642  0.8354  1.3451 -0.2140
   8123SM   H8T10748   3.905   4.818   3.634  0.1914 -0.5665  0.9082
   8123SM   C9S10749   3.801   4.660   3.745  0.1142 -0.0858  0.1632
   8123SM   H9S10750   3.874   4.583   3.714 -0.5095 -0.9152  0.7089
   8123SM   H9T10751   3.711   4.596   3.748 -1.0099  1.3734 -1.0443
   8123SM  C10S10752   3.834   4.720   3.879  0.7087  0.2491  0.2431
   8123SM  H10S10753   3.750   4.786   3.909  1.1167  0.9070 -0.0304
   8123SM  H10T10754   3.932   4.773   3.881  0.0353  1.5273  0.3700
   8123SM  C11S10755   3.841   4.615   3.992  0.3355 -0.1595 -0.2092
   8123SM  H11S10756   3.916   4.540   3.957 -0.4873 -0.9301 -0.3812
   8123SM  H11T10757   3.750   4.552   4.003 -0.6874  1.2785 -0.1651
   8123SM  C12S10758   3.898   4.681   4.124 -0.1596  0.6397  0.6656
   8123SM  H12S10759   3.815   4.741   4.166 -2.0213 -0.6198 -1.0538
   8123SM  H12T10760   3.989   4.740   4.102  1.5866 -2.9045 -3.0211
   8123SM  C13S10761   3.924   4.574   4.234  0.1553  0.0002 -0.2195
   8123SM  H13S10762   3.837   4.515   4.271  0.2726  0.1455  0.2957
   8123SM  H13T10763   3.954   4.629   4.325 -2.8902 -0.9010  1.4666
   8123SM  C14S10764   4.036   4.475   4.202  0.4338 -0.2681  0.3395
   8123SM  H14S10765   4.125   4.538   4.181  0.6247 -1.1909 -2.0058
   8123SM  H14T10766   4.014   4.418   4.109  2.5996 -0.8176  0.1152
   8123SM  C15S10767   4.063   4.380   4.315 -0.5909  0.0408  0.0687
   8123SM  H15S10768   3.973   4.317   4.334 -1.0704  0.9394  0.8390
   8123SM  H15T10769   4.076   4.432   4.412  1.0291 -1.1427  0.5179
   8123SM  C16S10770   4.197   4.307   4.294 -1.0078 -0.0996  0.3658
   8123SM  H16S10771   4.275   4.385   4.280 -0.5590 -0.2415  1.9523
   8123SM  H16T10772   4.189   4.251   4.198 -1.8295  0.3075  0.1914
   8123SM  C17S10773   4.249   4.208   4.396  0.1978 -0.1279 -0.1746
   8123SM  H17S10774   4.179   4.122   4.410 -1.0281  0.9732  0.8136
   8123SM  H17T10775   4.250   4.268   4.490 -2.4484 -0.9290  0.4745
   8123SM  C18S10776   4.398   4.153   4.379  0.2125  0.0053 -0.3858
   8123SM  H18S10777   4.411   4.080   4.296  3.0693  0.3298 -0.3289
   8123SM  H18T10778   4.426   4.103   4.474 -0.0946 -0.7041 -0.6684
   8123SM  H18U10779   4.460   4.244   4.360 -0.9175  0.4896 -1.9456
   8123SM   C1F10780   3.456   4.404   3.046 -0.5865  0.0067 -0.0277
   8123SM    OF10781   3.496   4.300   3.003  0.2578  0.2616  0.2354
   8123SM   C2F10782   3.322   4.419   3.118  0.0192 -0.2211 -0.2823
   8123SM   H2F10783   3.263   4.325   3.114  1.8925 -1.4351 -0.9164
   8123SM   H2G10784   3.263   4.500   3.072  0.1957 -0.2266 -0.5172
   8123SM   C3F10785   3.332   4.448   3.266  0.5773  0.6913 -0.5987
   8123SM   H3F10786   3.227   4.441   3.298  1.0268 -4.2110  0.5000
   8123SM   H3G10787   3.380   4.547   3.286  3.2380 -0.5281 -0.5148
   8123SM   C4F10788   3.400   4.332   3.351  0.1878  0.1965  0.5306
   8123SM   H4F10789   3.506   4.328   3.319  0.0537 -1.0902  0.2039
   8123SM   H4G10790   3.350   4.237   3.323 -0.4922  0.4323  0.9264
   8123SM   C5F10791   3.385   4.356   3.501 -0.5411 -0.1492 -0.2730
   8123SM   H5F10792   3.280   4.388   3.519 -0.9303 -0.5893 -1.6103
   8123SM   H5G10793   3.447   4.445   3.525  1.1275 -0.6223 -2.4621
   8123SM   C6F10794   3.418   4.234   3.582 -0.4439 -0.0563  0.2991
   8123SM   H6F10795   3.523   4.204   3.563 -0.3343 -0.2284  1.1303
   8123SM   H6G10796   3.359   4.148   3.542 -0.0365 -0.4478  0.5348
   8123SM   C7F10797   3.400   4.257   3.731  0.0687  0.1546 -0.5905
   8123SM   H7F10798   3.292   4.266   3.753  0.2674 -2.6582  2.3109
   8123SM   H7G10799   3.453   4.349   3.764  0.5664 -0.4370  0.3086
   8123SM   C8F10800   3.451   4.136   3.806 -0.2474  0.1733 -0.6620
   8123SM   H8F10801   3.560   4.151   3.818 -0.6535  1.5596  2.7659
   8123SM   H8G10802   3.421   4.038   3.763  0.0729 -0.2831  0.1349
   8123SM   C9F10803   3.382   4.125   3.940 -0.6306  0.3999 -0.3121
   8123SM   H9F10804   3.272   4.117   3.929 -0.5100 -1.6872 -0.4165
   8123SM   H9G10805   3.412   4.213   4.001  1.9118 -1.8558  1.9628
   8123SM  C10F10806   3.426   4.002   4.023  0.6004 -0.8886  0.0134
   8123SM  H10F10807   3.530   4.021   4.056  0.4721  0.3660 -0.2442
   8123SM  H10G10808   3.429   3.920   3.948  0.5137 -0.5412 -0.3741
   8123SM  C11F10809   3.343   3.960   4.148  0.8546  0.4760 -0.0044
   8123SM  H11F10810   3.384   3.863   4.182  2.7170  2.2136  3.1142
   8123SM  H11G10811   3.236   3.948   4.119  0.9929  0.4737 -0.5193
   8123SM  C12F10812   3.350   4.059   4.257 -0.1707  0.3214  0.1828
   8123SM  H12F10813   3.269   4.135   4.255  1.4847  2.1828 -0.6259
   8123SM  H12G10814   3.443   4.121   4.251 -0.1914  0.2276 -3.7623
   8123SM  C13F10815   3.340   3.991   4.392  0.2460  0.0527  0.8102
   8123SM  H13F10816   3.431   3.930   4.408 -0.3392 -1.7678 -2.2150
   8123SM  H13G10817   3.249   3.929   4.381  0.1011  0.4877 -0.6230
   8123SM  C14F10818   3.316   4.089   4.512 -0.0581  0.6427  0.1809
   8123SM  H14F10819   3.229   4.150   4.479 -0.5920 -1.0715 -1.7958
   8123SM  H14G10820   3.403   4.158   4.519  1.8182 -1.7581  2.4394
   8123SM  C15F10821   3.298   4.013   4.637 -0.1568  0.0175 -0.4076
   8123SM  H15F10822   3.305   4.084   4.721  2.5577  0.1394 -0.6417
   8123SM  H15G10823   3.387   3.949   4.658 -1.0936 -1.7402 -1.4908
   8123SM  C16F10824   3.163   3.935   4.638 -0.0298  0.3286  0.1071
   8123SM  H16F10825   3.170   3.857   4.559 -0.4755 -0.1547  0.5319
   8123SM  H16G10826   3.076   4.001   4.619 -0.3798  0.9962  3.3855
   8123SM  C17F10827   3.142   3.880   4.780  0.4312  0.1962  0.0093
   8123SM  H17F10828   3.036   3.860   4.807 -0.1656  2.0281 -0.8188
   8123SM  H17G10829   3.169   3.960   4.852  0.8714  0.3561 -0.3300
   8123SM  C18F10830   3.229   3.762   4.808 -0.0287 -0.2529 -0.7939
   8123SM  H18F10831   3.225   3.742   4.918 -0.1113  3.8728  0.1108
   8123SM  H18G10832   3.337   3.772   4.786  0.5370 -2.1868  0.7404
   8123SM  C19F10833   3.187   3.638   4.727 -1.0585 -0.5077 -0.7734
   8123SM  H19F10834   3.145   3.664   4.628 -2.2185  0.7494  0.0212
   8123SM  H19G10835   3.105   3.586   4.781  0.1959 -0.7672  1.0198
   8123SM  C20F10836   3.300   3.537   4.704  0.0661 -0.2870  0.0528
   8123SM  H20F10837   3.357   3.513   4.796  0.8794  0.0725 -0.3502
   8123SM  H20G10838   3.377   3.583   4.638  0.4145  0.3824  0.9127
   8123SM  C21F10839   3.255   3.410   4.646 -0.7392 -0.8770  0.6387
   8123SM  H21F10840   3.153   3.411   4.603 -1.6085 -1.4407  2.5761
   8123SM  H21G10841   3.245   3.331   4.723  0.1560 -0.9034  0.7453
   8123SM  C22F10842   3.363   3.361   4.549 -0.4126  0.4443  0.7861
   8123SM  H22F10843   3.363   3.251   4.538 -0.0197  0.3157  1.9231
   8123SM  H22G10844   3.469   3.378   4.579  0.5829 -3.5619  0.1374
   8123SM  C23F10845   3.349   3.415   4.403  0.2130 -0.4371 -0.1466
   8123SM  H23F10846   3.369   3.523   4.412  1.3645 -0.6933  0.5355
   8123SM  H23G10847   3.250   3.392   4.356 -0.2721 -0.0331  0.6705
   8123SM  H23H10848   3.424   3.364   4.338  1.0962  0.9591 -0.2559
   8223SM     N10849   4.300   5.084   2.263 -0.3395 -0.4039 -0.6827
   8223SM   C1510850   4.289   5.109   2.118 -0.6445  1.0429  0.2019
   8223SM  H15A10851   4.386   5.100   2.071 -0.3281 -3.0271  1.2250
   8223SM  H15B10852   4.251   5.207   2.096  0.0369  0.8418 -2.2190
   8223SM  H15C10853   4.230   5.025   2.083  1.1022 -0.8508  1.5799
   8223SM   C1410854   4.359   5.202   2.327 -0.1386 -1.0363  0.0360
   8223SM  H14A10855   4.285   5.280   2.335 -1.3632 -1.8195 -2.4165
   8223SM  H14B10856   4.445   5.234   2.269 -0.9633  0.7988 -0.2315
   8223SM  H14C10857   4.389   5.174   2.427  0.7903  0.1695  0.1169
   8223SM   C1310858   4.160   5.079   2.317 -0.3142  0.6877 -0.0208
   8223SM  H13A10859   4.111   4.989   2.281 -1.1549  0.4703  1.5831
   8223SM  H13B10860   4.102   5.167   2.293  0.8105  1.8308  1.2649
   8223SM  H13C10861   4.166   5.076   2.424 -4.1989 -0.1201  0.3225
   8223SM   C1210862   4.369   4.950   2.295  0.7619 -0.1135 -0.3785
   8223SM  H12A10863   4.461   4.956   2.240 -1.5252  1.4495 -4.4681
   8223SM  H12B10864   4.305   4.869   2.261 -1.4259  1.9278 -1.4141
   8223SM   C1110865   4.412   4.920   2.443  0.1110  0.2880  0.1939
   8223SM  H11A10866   4.451   4.816   2.453  2.4829  1.0588 -0.2639
   8223SM  H11B10867   4.315   4.922   2.495  1.1435 -1.2495  2.3000
   8223SM     P10868   4.648   4.989   2.485 -0.0455 -0.1518  0.1956
   8223SM   O1310869   4.668   4.933   2.353 -0.7121 -0.4213  0.4242
   8223SM   O1410870   4.723   5.110   2.521 -0.4707 -0.4222  0.1669
   8223SM   O1110871   4.665   4.880   2.598  0.2088  0.2306  0.8509
   8223SM   O1210872   4.502   5.021   2.502  0.4175 -0.2626  0.0279
   8223SM   C1S10873   4.653   4.933   2.731 -0.5700  0.0490 -1.0267
   8223SM   H1S10874   4.574   5.011   2.743  0.9644  1.5639 -0.4925
   8223SM   H1T10875   4.750   4.970   2.770 -0.3761 -1.1183 -0.3833
   8223SM    NF10876   4.580   4.878   2.961 -0.0424  0.2143 -0.7928
   8223SM   HNF10877   4.653   4.865   3.027  0.1668  1.6779 -0.7026
   8223SM   C2S10878   4.602   4.821   2.831  1.2648 -0.2881  0.3722
   8223SM   H2S10879   4.504   4.785   2.793  0.7141  1.0937  0.4344
   8223SM   C3S10880   4.706   4.709   2.821 -0.1134 -0.6632 -0.1469
   8223SM   H3S10881   4.806   4.758   2.817 -0.8120  0.7937 -0.6347
   8223SM    O310882   4.695   4.637   2.701 -0.4423 -0.1894  0.1607
   8223SM   HO310883   4.664   4.712   2.648  3.0464  0.4102 -1.2850
   8223SM   C4S10884   4.687   4.616   2.932 -0.8782 -0.2424 -0.1706
   8223SM   H4S10885   4.581   4.589   2.936 -0.8090 -0.3854  0.8302
   8223SM   C5S10886   4.784   4.571   3.024  0.3325  0.0590 -0.3125
   8223SM   H5S10887   4.884   4.616   3.019  0.8567 -1.2087 -2.2885
   8223SM   C6S10888   4.756   4.466   3.138  0.4520  0.4055  0.2244
   8223SM   H6S10889   4.837   4.390   3.145 -1.3231 -1.8032 -1.4954
   8223SM   H6T10890   4.668   4.401   3.118 -1.2423  2.5901  0.1605
   8223SM   C7S10891   4.718   4.535   3.267 -0.4728 -0.3027  0.6535
   8223SM   H7S10892   4.615   4.575   3.259 -0.8416 -1.4417 -0.6949
   8223SM   H7T10893   4.774   4.626   3.294  1.9585 -1.4541 -0.2355
   8223SM   C8S10894   4.723   4.433   3.380 -0.1667 -0.3635 -0.1611
   8223SM   H8S10895   4.692   4.333   3.344  0.9279 -0.3971 -1.0619
   8223SM   H8T10896   4.663   4.455   3.471  2.2663 -0.6768  1.5946
   8223SM   C9S10897   4.869   4.403   3.425 -0.1285 -0.1781  0.0328
   8223SM   H9S10898   4.917   4.496   3.462  0.5343 -0.5551  0.1369
   8223SM   H9T10899   4.923   4.367   3.334 -0.5351  1.4912 -0.8931
   8223SM  C10S10900   4.871   4.297   3.534 -0.5968 -0.2973 -0.4509
   8223SM  H10S10901   4.783   4.232   3.517 -1.2101  0.1048  1.0475
   8223SM  H10T10902   4.858   4.353   3.628  0.6256 -0.8172  0.0560
   8223SM  C11S10903   5.001   4.221   3.546 -0.3060 -0.1021 -0.5974
   8223SM  H11S10904   5.086   4.265   3.490  0.7142 -1.6804 -0.3501
   8223SM  H11T10905   4.989   4.123   3.495 -3.3725 -0.6271  0.9210
   8223SM  C12S10906   5.035   4.187   3.690  0.2494 -0.1239  0.0366
   8223SM  H12S10907   4.938   4.155   3.735 -1.2087  1.8947 -1.4868
   8223SM  H12T10908   5.071   4.276   3.746 -1.5980  1.0727 -0.5700
   8223SM  C13S10909   5.144   4.078   3.714  0.2658  0.1730 -0.1223
   8223SM  H13S10910   5.126   3.991   3.649  0.4161  1.0501 -1.3719
   8223SM  H13T10911   5.141   4.057   3.823 -0.1835 -0.5655 -0.2700
   8223SM  C14S10912   5.283   4.129   3.680  0.9543 -0.7825 -0.3291
   8223SM  H14S10913   5.310   4.211   3.750 -1.2343 -0.0514 -0.2516
   8223SM  H14T10914   5.285   4.183   3.584  0.5947  2.8486  1.5373
   8223SM  C15S10915   5.398   4.034   3.679  0.2842  0.6216  0.8957
   8223SM  H15S10916   5.361   3.960   3.604 -0.4636  2.9398 -1.1672
   8223SM  H15T10917   5.407   3.990   3.781 -0.9818 -2.2834 -0.1176
   8223SM  C16S10918   5.525   4.104   3.631  0.1510  0.5004 -0.6344
   8223SM  H16S10919   5.550   4.167   3.719 -1.7166  1.5401 -0.8059
   8223SM  H16T10920   5.517   4.168   3.541  0.0390  2.6681  0.8300
   8223SM  C17S10921   5.627   3.999   3.603  0.0440  0.6332  0.5457
   8223SM  H17S10922   5.606   3.953   3.503 -0.3345 -1.0034  1.3394
   8223SM  H17T10923   5.615   3.916   3.676  0.6417 -1.2141 -1.3168
   8223SM  C18S10924   5.766   4.058   3.592 -0.3473  0.0839 -0.2058
   8223SM  H18S10925   5.841   4.005   3.528  1.5423  1.9070  0.3866
   8223SM  H18T10926   5.805   4.065   3.696  2.3501  1.8897 -1.2214
   8223SM  H18U10927   5.770   4.163   3.557 -1.3269 -0.6081 -2.6491
   8223SM   C1F10928   4.476   4.950   2.995  0.0367 -0.0387  0.0524
   8223SM    OF10929   4.399   4.997   2.912  0.9344  0.3205  0.1018
   8223SM   C2F10930   4.459   4.981   3.141  0.4668  0.6385  0.2709
   8223SM   H2F10931   4.515   5.071   3.174  0.6650  0.8523 -0.6372
   8223SM   H2G10932   4.495   4.891   3.196 -1.2548  0.7662  1.7190
   8223SM   C3F10933   4.311   5.003   3.173  0.5113 -0.2564 -0.8973
   8223SM   H3F10934   4.246   4.918   3.142 -1.7605  1.5388 -1.3443
   8223SM   H3G10935   4.280   5.091   3.112 -1.0092 -1.7730 -2.4369
   8223SM   C4F10936   4.286   5.048   3.319  1.0144  0.0735 -0.4571
   8223SM   H4F10937   4.325   5.151   3.335  2.2711 -0.4624  0.0860
   8223SM   H4G10938   4.355   4.993   3.387  2.0773  1.8686 -0.0322
   8223SM   C5F10939   4.136   5.046   3.359  0.8312 -0.0511 -0.4809
   8223SM   H5F10940   4.092   4.944   3.354 -1.5166  0.8934 -0.4502
   8223SM   H5G10941   4.075   5.116   3.298 -2.3886 -0.4644  2.0203
   8223SM   C6F10942   4.112   5.102   3.504  0.0970 -0.3949  0.9017
   8223SM   H6F10943   4.155   5.203   3.487  2.3426 -1.1942  1.4096
   8223SM   H6G10944   4.172   5.054   3.585  3.3534 -0.5360 -1.4130
   8223SM   C7F10945   3.968   5.117   3.534 -0.0572 -0.5163  0.4211
   8223SM   H7F10946   3.912   5.021   3.525 -1.0495  0.0934 -0.0388
   8223SM   H7G10947   3.924   5.188   3.461  1.4385  0.2137  0.1905
   8223SM   C8F10948   3.947   5.179   3.670 -0.2779  0.5186  0.3266
   8223SM   H8F10949   3.847   5.226   3.682 -0.3174  0.3063  0.8607
   8223SM   H8G10950   4.012   5.269   3.678  0.8796 -0.3994  1.7073
   8223SM   C9F10951   3.959   5.083   3.794  0.4580  0.1965 -0.2798
   8223SM   H9F10952   4.067   5.058   3.792  0.4178 -0.2453  1.3905
   8223SM   H9G10953   3.893   4.996   3.773  2.3182 -1.4950  0.5572
   8223SM  C10F10954   3.916   5.148   3.928 -0.3409 -0.5315 -0.5735
   8223SM  H10F10955   3.809   5.175   3.917 -0.2315 -0.2136 -0.9103
   8223SM  H10G10956   3.978   5.240   3.932 -0.9409 -0.0438 -1.7942
   8223SM  C11F10957   3.920   5.057   4.047 -0.1001 -0.3489  0.1319
   8223SM  H11F10958   4.023   5.019   4.062 -0.2666 -0.6243  0.6215
   8223SM  H11G10959   3.853   4.970   4.029  0.1942  0.0374 -3.3568
   8223SM  C12F10960   3.901   5.125   4.183 -0.2323 -0.7376 -0.4174
   8223SM  H12F10961   3.824   5.204   4.173  1.1287  0.6376 -0.5340
   8223SM  H12G10962   3.999   5.171   4.210 -0.7848 -0.2601  0.8625
   8223SM  C13F10963   3.856   5.015   4.279  0.6786 -0.3192  0.1453
   8223SM  H13F10964   3.936   4.940   4.294  0.3879 -0.5773  0.4264
   8223SM  H13G10965   3.772   4.956   4.236  2.2964 -0.1188 -3.7086
   8223SM  C14F10966   3.824   5.076   4.413  0.3820 -0.7072  0.2817
   8223SM  H14F10967   3.743   5.148   4.386  2.0184  0.8011 -0.8438
   8223SM  H14G10968   3.902   5.146   4.452  0.4190 -0.7334  0.2544
   8223SM  C15F10969   3.777   4.981   4.517 -0.2688  0.7022  0.0219
   8223SM  H15F10970   3.857   4.915   4.559  0.7265  1.3636 -0.7906
   8223SM  H15G10971   3.690   4.932   4.468 -1.4318  1.1966  1.5023
   8223SM  C16F10972   3.723   5.058   4.643 -0.2946 -0.7724  0.2718
   8223SM  H16F10973   3.812   5.119   4.669 -0.7425  0.3453 -0.6818
   8223SM  H16G10974   3.710   4.989   4.729 -3.5010 -0.0559  0.4983
   8223SM  C17F10975   3.586   5.124   4.614 -0.2002 -0.3770 -0.3420
   8223SM  H17F10976   3.499   5.057   4.631 -1.3721  1.6330  2.6563
   8223SM  H17G10977   3.570   5.153   4.508 -3.5817 -0.7860 -0.0447
   8223SM  C18F10978   3.561   5.232   4.719  0.9007 -0.9792 -0.1755
   8223SM  H18F10979   3.615   5.327   4.696 -2.2186  1.1082  0.5006
   8223SM  H18G10980   3.601   5.200   4.818 -1.6838  1.0899  1.6847
   8223SM  C19F10981   3.406   5.270   4.739  0.5122  0.1118  0.6852
   8223SM  H19F10982   3.356   5.193   4.801 -1.2367 -0.8513 -1.7948
   8223SM  H19G10983   3.352   5.272   4.643 -3.2274 -0.1720  2.6074
   8223SM  C20F10984   3.386   5.407   4.799  0.4467  0.8654  0.4641
   8223SM  H20F10985   3.454   5.420   4.886  1.6835  0.2033 -0.3734
   8223SM  H20G10986   3.284   5.425   4.840  0.4524 -0.9336  1.3567
   8223SM  C21F10987   3.402   5.518   4.696 -0.4849 -0.2593 -0.0336
   8223SM  H21F10988   3.314   5.518   4.629  0.5693  0.2274 -1.4693
   8223SM  H21G10989   3.494   5.505   4.634 -0.1617  0.3627  0.2979
   8223SM  C22F10990   3.395   5.664   4.754 -0.1468 -0.0374 -0.4375
   8223SM  H22F10991   3.491   5.665   4.810  0.0239 -1.4653 -0.6640
   8223SM  H22G10992   3.318   5.662   4.835 -1.3150  0.4196 -1.4997
   8223SM  C23F10993   3.383   5.775   4.649 -0.1959 -0.0740  0.4921
   8223SM  H23F10994   3.349   5.867   4.701  2.9068  1.6208 -0.2193
   8223SM  H23G10995   3.308   5.746   4.572  0.6474 -0.0568 -0.3470
   8223SM  H23H10996   3.478   5.806   4.601  0.3086 -1.5704  0.4732
   8323SM     N10997   4.385   4.389   2.094 -0.3300  0.0027  0.1319
   8323SM   C1510998   4.473   4.267   2.112 -0.5034  0.1355 -0.2940
   8323SM  H15A10999   4.434   4.199   2.187  0.0144  0.3428  0.1668
   8323SM  H15B11000   4.568   4.304   2.145 -1.0675  1.3068  0.0776
   8323SM  H15C11001   4.488   4.215   2.019  1.1983  0.4204 -0.1970
   8323SM   C1411002   4.424   4.445   1.952 -0.4690 -0.5965 -0.7001
   8323SM  H14A11003   4.358   4.524   1.920 -0.6290  0.4581  2.0070
   8323SM  H14B11004   4.427   4.361   1.884 -0.3237  1.5292 -3.5074
   8323SM  H14C11005   4.522   4.491   1.955 -1.8069  2.3931  1.4669
   8323SM   C1311006   4.241   4.337   2.071  0.0050 -0.4866 -0.6741
   8323SM  H13A11007   4.257   4.242   2.022  0.4344 -1.2235  0.8314
   8323SM  H13B11008   4.175   4.402   2.016 -1.4121 -2.2670 -1.1759
   8323SM  H13C11009   4.193   4.319   2.166 -0.1157 -0.1141 -0.6627
   8323SM   C1211010   4.397   4.480   2.214 -0.0380  0.3289 -0.0717
   8323SM  H12A11011   4.365   4.582   2.203 -1.4915  0.1589  1.9835
   8323SM  H12B11012   4.502   4.479   2.242 -0.5033 -2.2334  1.9430
   8323SM   C1111013   4.328   4.438   2.349 -0.4294  0.1483  0.0352
   8323SM  H11A11014   4.372   4.493   2.434 -2.7860  1.4683  0.4958
   8323SM  H11B11015   4.352   4.330   2.357  2.3993  0.5882 -1.3687
   8323SM     P11016   4.134   4.605   2.340  0.6702 -0.1533  0.5697
   8323SM   O1311017   4.184   4.669   2.215  0.3379 -0.7418  0.0593
   8323SM   O1411018   3.988   4.610   2.348  0.2269  0.4695 -0.0893
   8323SM   O1111019   4.192   4.680   2.465 -0.2716  0.1959 -0.0733
   8323SM   O1211020   4.187   4.462   2.342  0.5366 -0.2202 -0.2595
   8323SM   C1S11021   4.171   4.622   2.595  0.2602 -0.0750  0.1900
   8323SM   H1S11022   4.241   4.540   2.621 -0.9492 -0.6402  1.9162
   8323SM   H1T11023   4.068   4.581   2.601 -0.8976  2.1165 -2.5449
   8323SM    NF11024   4.152   4.664   2.842  0.9706  0.1785 -0.0524
   8323SM   HNF11025   4.075   4.689   2.900  2.1644  0.6806  1.3848
   8323SM   C2S11026   4.157   4.727   2.706 -0.0516 -0.2821 -0.0677
   8323SM   H2S11027   4.256   4.778   2.701 -0.6521  0.8478 -0.8925
   8323SM   C3S11028   4.046   4.824   2.674 -0.6194  0.8180  0.4971
   8323SM   H3S11029   3.951   4.766   2.675 -0.5811  0.7328 -0.2262
   8323SM    O311030   4.055   4.886   2.548 -0.1462  0.5868  0.2339
   8323SM   HO311031   4.107   4.824   2.497  0.6020 -0.1226  1.8222
   8323SM   C4S11032   4.037   4.940   2.771  0.7114  1.1108 -0.6011
   8323SM   H4S11033   4.126   5.005   2.766  1.5783  0.0157  0.1501
   8323SM   C5S11034   3.936   4.961   2.857 -0.2373 -0.0187 -0.4757
   8323SM   H5S11035   3.850   4.897   2.829 -0.2336  0.7314 -2.3711
   8323SM   C6S11036   3.913   5.071   2.961  0.5579 -0.2552  0.1114
   8323SM   H6S11037   4.002   5.134   2.980  1.2127 -0.6462 -1.4816
   8323SM   H6T11038   3.883   5.027   3.058  1.6422 -0.9446  0.1460
   8323SM   C7S11039   3.809   5.178   2.914 -0.0012  0.5402 -0.6570
   8323SM   H7S11040   3.714   5.122   2.905 -0.5057  1.0549  1.1640
   8323SM   H7T11041   3.845   5.231   2.823  0.0612  1.6247 -0.0089
   8323SM   C8S11042   3.805   5.291   3.022 -0.5877 -0.1764 -0.3665
   8323SM   H8S11043   3.751   5.379   2.981 -0.4272 -0.0083 -0.2236
   8323SM   H8T11044   3.910   5.319   3.044 -0.8743  1.7898 -1.3022
   8323SM   C9S11045   3.725   5.247   3.149 -0.8044 -0.1323 -0.2598
   8323SM   H9S11046   3.784   5.177   3.212 -0.9552 -0.7813 -0.8215
   8323SM   H9T11047   3.641   5.194   3.098  0.6214 -1.3798 -1.4048
   8323SM  C10S11048   3.675   5.360   3.234  0.3901  0.2246 -0.4612
   8323SM  H10S11049   3.612   5.423   3.168 -0.4666  0.3734  0.4769
   8323SM  H10T11050   3.757   5.430   3.260  0.8994 -0.5799  0.1819
   8323SM  C11S11051   3.606   5.304   3.362 -0.1157  1.0975 -0.4966
   8323SM  H11S11052   3.652   5.203   3.375 -0.1414  0.9976 -1.1471
   8323SM  H11T11053   3.498   5.285   3.349 -0.0894 -0.8354  1.4819
   8323SM  C12S11054   3.615   5.399   3.484  0.0962  1.7880  0.3841
   8323SM  H12S11055   3.569   5.499   3.474 -0.1597  2.1398  3.7327
   8323SM  H12T11056   3.724   5.415   3.501  0.4851  1.1223 -1.2841
   8323SM  C13S11057   3.539   5.350   3.602 -0.0847  0.5676 -0.1079
   8323SM  H13S11058   3.565   5.244   3.625 -0.6332  0.4649  0.0502
   8323SM  H13T11059   3.434   5.355   3.569  1.0561  2.6589 -4.0458
   8323SM  C14S11060   3.569   5.422   3.736 -0.0484  0.4065 -0.4706
   8323SM  H14S11061   3.518   5.520   3.735  0.3062  0.5915 -1.1214
   8323SM  H14T11062   3.678   5.438   3.744 -0.1277  0.1596  1.3062
   8323SM  C15S11063   3.522   5.344   3.856  0.5408  0.1229 -0.1196
   8323SM  H15S11064   3.611   5.292   3.898 -0.4332 -1.0409  0.5831
   8323SM  H15T11065   3.443   5.268   3.838  0.4262  0.2743 -0.2554
   8323SM  C16S11066   3.479   5.443   3.970  0.1252  0.7681  0.0566
   8323SM  H16S11067   3.401   5.510   3.928  0.0403 -1.0914 -3.0799
   8323SM  H16T11068   3.568   5.506   3.992  0.4567  0.0384  0.8506
   8323SM  C17S11069   3.426   5.377   4.095  0.1257 -0.2328  0.2940
   8323SM  H17S11070   3.346   5.307   4.062  1.0886 -1.8744  1.3181
   8323SM  H17T11071   3.375   5.443   4.168  0.2721 -1.8815  1.9532
   8323SM  C18S11072   3.531   5.300   4.172 -0.0339 -0.1622 -0.0592
   8323SM  H18S11073   3.503   5.260   4.272  0.7137 -0.8143 -0.0939
   8323SM  H18T11074   3.610   5.376   4.193 -0.4614  0.0822  0.6801
   8323SM  H18U11075   3.581   5.213   4.124  1.4992  1.5713 -1.7713
   8323SM   C1F11076   4.240   4.585   2.899 -0.5123  0.3452 -0.0981
   8323SM    OF11077   4.350   4.555   2.841  0.2248  0.1827  0.1819
   8323SM   C2F11078   4.209   4.534   3.034  0.0884 -0.3056 -0.8798
   8323SM   H2F11079   4.146   4.442   3.028  0.1187 -0.2535 -2.1106
   8323SM   H2G11080   4.154   4.611   3.093 -0.2658 -0.5160 -0.9266
   8323SM   C3F11081   4.334   4.504   3.116 -0.3728  0.0614 -0.1610
   8323SM   H3F11082   4.399   4.592   3.096 -1.0664  0.6498  0.1283
   8323SM   H3G11083   4.382   4.411   3.078 -3.3277 -1.9684  0.8006
   8323SM   C4F11084   4.301   4.483   3.269 -0.8463  0.3222 -0.3066
   8323SM   H4F11085   4.395   4.442   3.313 -1.0059  0.6102  0.3046
   8323SM   H4G11086   4.233   4.396   3.281 -0.4737 -0.1514 -1.4271
   8323SM   C5F11087   4.244   4.607   3.348  0.3070 -0.2841  0.0395
   8323SM   H5F11088   4.143   4.632   3.310  0.3706 -0.6300 -0.3664
   8323SM   H5G11089   4.313   4.694   3.335  0.6955 -0.4705  0.8159
   8323SM   C6F11090   4.246   4.591   3.502  0.4233 -0.1103  0.2710
   8323SM   H6F11091   4.344   4.546   3.529  0.8124  0.5254 -0.0692
   8323SM   H6G11092   4.166   4.525   3.542  0.2797 -0.0272  0.1214
   8323SM   C7F11093   4.244   4.729   3.591  0.7227  0.4620 -0.1276
   8323SM   H7F11094   4.136   4.756   3.587  0.7125  0.3918 -0.3596
   8323SM   H7G11095   4.302   4.805   3.535  0.3687  0.4953 -0.4560
   8323SM   C8F11096   4.278   4.726   3.733  0.1834  0.7941 -0.6489
   8323SM   H8F11097   4.253   4.824   3.780 -0.7385 -0.4356  1.5728
   8323SM   H8G11098   4.382   4.694   3.755 -0.1186  0.3747  0.2199
   8323SM   C9F11099   4.183   4.629   3.815 -0.3065  0.5686 -0.0653
   8323SM   H9F11100   4.080   4.648   3.777 -1.2695 -2.1540  0.9459
   8323SM   H9G11101   4.174   4.664   3.920  0.8395  0.9758 -0.0868
   8323SM  C10F11102   4.226   4.485   3.845  0.0438  0.4529  0.2795
   8323SM  H10F11103   4.227   4.440   3.744  2.6960  1.3855 -0.1887
   8323SM  H10G11104   4.138   4.445   3.899 -0.9037  0.5695 -1.1274
   8323SM  C11F11105   4.360   4.466   3.909 -0.0830  0.4060 -0.8816
   8323SM  H11F11106   4.365   4.524   4.004 -0.4978 -0.5262 -0.2733
   8323SM  H11G11107   4.439   4.512   3.845 -0.8680  0.2940 -1.9582
   8323SM  C12F11108   4.390   4.329   3.954 -0.5280  0.4618 -0.1384
   8323SM  H12F11109   4.389   4.262   3.865 -0.7372 -0.8146  0.7847
   8323SM  H12G11110   4.311   4.286   4.020 -0.6061 -0.1731 -0.6342
   8323SM  C13F11111   4.529   4.324   4.020  0.0187  0.6644 -0.0735
   8323SM  H13F11112   4.519   4.364   4.124  1.3184 -2.8097  1.5366
   8323SM  H13G11113   4.597   4.383   3.955  1.0654  2.0595  2.1426
   8323SM  C14F11114   4.578   4.176   4.025  0.1020  0.2355 -0.4075
   8323SM  H14F11115   4.566   4.125   3.927  0.2106 -0.3650 -0.1148
   8323SM  H14G11116   4.517   4.123   4.101  0.0805 -0.5459 -0.9543
   8323SM  C15F11117   4.728   4.173   4.081  0.6233  1.2845 -0.1290
   8323SM  H15F11118   4.734   4.212   4.185 -0.5285 -0.1373  0.5136
   8323SM  H15G11119   4.792   4.231   4.011  2.6409 -1.6466 -0.9214
   8323SM  C16F11120   4.786   4.025   4.076  0.2831 -0.4204 -0.1814
   8323SM  H16F11121   4.765   3.976   3.978  0.4930  0.5639 -0.7279
   8323SM  H16G11122   4.729   3.969   4.153  2.2102 -2.1892  0.0447
   8323SM  C17F11123   4.939   4.016   4.102 -0.1649  0.6337 -0.1220
   8323SM  H17F11124   4.949   4.076   4.195 -1.2729  1.8226 -0.7416
   8323SM  H17G11125   5.003   4.054   4.020  0.6402  0.9825  0.6428
   8323SM  C18F11126   4.977   3.873   4.120 -0.0176 -0.0356  0.2825
   8323SM  H18F11127   4.919   3.809   4.051  0.1714  2.1508 -2.0401
   8323SM  H18G11128   4.938   3.829   4.214  1.2836 -2.9213 -0.4359
   8323SM  C19F11129   5.130   3.848   4.102  0.1316 -0.3640  0.3346
   8323SM  H19F11130   5.147   3.842   3.993  2.9442  0.9183  0.6118
   8323SM  H19G11131   5.138   3.742   4.132  1.1905 -0.5300 -0.4907
   8323SM  C20F11132   5.224   3.937   4.180 -0.0236  0.3527  0.8930
   8323SM  H20F11133   5.211   3.938   4.291  1.4656 -0.9766  1.1103
   8323SM  H20G11134   5.208   4.042   4.148 -0.6194  0.7451  2.3522
   8323SM  C21F11135   5.377   3.907   4.156  0.1125 -0.0795 -0.0548
   8323SM  H21F11136   5.405   3.912   4.048  0.3012  0.6413  0.0215
   8323SM  H21G11137   5.391   3.801   4.186  0.4787 -0.0199 -0.0046
   8323SM  C22F11138   5.469   3.993   4.237 -0.3055 -0.0694  0.2385
   8323SM  H22F11139   5.441   3.980   4.343  1.7185  0.3544  0.8832
   8323SM  H22G11140   5.446   4.092   4.191 -3.6268 -2.2508 -3.4489
   8323SM  C23F11141   5.617   3.952   4.229  0.9093 -0.6225  0.0296
   8323SM  H23F11142   5.650   3.867   4.293 -1.3329 -0.0116  2.1623
   8323SM  H23G11143   5.676   4.046   4.229 -1.2835  0.8448 -0.6916
   8323SM  H23H11144   5.627   3.917   4.124 -0.1226  0.9995 -0.6489
   8423SM     N11145   4.020   2.584   1.987  0.6155  0.2763  0.4721
   8423SM   C1511146   3.888   2.512   1.980  0.3690  0.0207 -0.2600
   8423SM  H15A11147   3.802   2.577   1.987 -0.2741 -0.6114 -1.9453
   8423SM  H15B11148   3.891   2.441   2.061 -1.4800  0.0934 -0.0870
   8423SM  H15C11149   3.869   2.462   1.886  2.4386 -0.5469 -0.4358
   8423SM   C1411150   4.125   2.483   1.945 -0.0149  0.2450 -0.1532
   8423SM  H14A11151   4.109   2.489   1.838  0.7779  0.4429 -0.2650
   8423SM  H14B11152   4.109   2.388   1.994  2.0557  0.8858  1.8973
   8423SM  H14C11153   4.229   2.512   1.949  0.3281 -0.8454 -0.8033
   8423SM   C1311154   4.017   2.700   1.884  1.2287  0.1180  0.0324
   8423SM  H13A11155   4.113   2.737   1.853  0.3600  1.5207 -1.1211
   8423SM  H13B11156   3.958   2.777   1.932 -2.0872 -1.2309 -1.5537
   8423SM  H13C11157   3.960   2.677   1.796 -1.7931 -0.2070  1.9138
   8423SM   C1211158   4.047   2.630   2.125 -0.3635  0.9362 -0.5023
   8423SM  H12A11159   3.980   2.709   2.158  1.9342  2.2992  1.2385
   8423SM  H12B11160   4.142   2.680   2.117  0.4511  0.2425  3.1121
   8423SM   C1111161   4.071   2.524   2.238  0.6848  0.3197 -0.4270
   8423SM  H11A11162   4.090   2.586   2.329 -1.6555  2.5555 -1.3340
   8423SM  H11B11163   4.160   2.460   2.219 -0.1954 -0.8764 -0.6226
   8423SM     P11164   3.855   2.440   2.368  0.3492  0.0417 -0.0316
   8423SM   O1311165   3.816   2.583   2.371  0.0304 -0.1026  0.0482
   8423SM   O1411166   3.744   2.348   2.327 -0.6155 -0.5198 -0.4410
   8423SM   O1111167   3.912   2.396   2.510  0.1701  0.1052 -0.3250
   8423SM   O1211168   3.972   2.426   2.254  0.1232 -0.1873 -0.4855
   8423SM   C1S11169   3.987   2.269   2.509 -0.6129 -0.7625 -0.1644
   8423SM   H1S11170   4.080   2.281   2.450 -0.7917  1.1231 -0.1388
   8423SM   H1T11171   3.924   2.187   2.469 -0.6164 -0.5477 -0.6079
   8423SM    NF11172   4.109   2.118   2.670  0.6498 -0.3706  0.4238
   8423SM   HNF11173   4.078   2.030   2.708 -0.7387  0.2882  0.8804
   8423SM   C2S11174   4.019   2.229   2.662  0.3170 -0.1562 -0.7814
   8423SM   H2S11175   4.081   2.312   2.703  0.3348 -1.2513  1.5859
   8423SM   C3S11176   3.877   2.212   2.739 -0.9119  0.5796  0.0921
   8423SM   H3S11177   3.839   2.122   2.688  0.8452 -0.7568  1.0271
   8423SM    O311178   3.782   2.313   2.715  0.0493  0.0639  0.6713
   8423SM   HO311179   3.825   2.365   2.647 -1.7258 -0.7602 -1.1530
   8423SM   C4S11180   3.900   2.192   2.883 -0.2017 -0.2351  0.0423
   8423SM   H4S11181   3.934   2.088   2.893 -1.4484 -0.7725 -0.9921
   8423SM   C5S11182   3.880   2.277   2.986  0.4079 -0.6876  0.4495
   8423SM   H5S11183   3.821   2.368   2.968  0.4764 -0.7594 -0.1664
   8423SM   C6S11184   3.898   2.240   3.129  1.6550 -0.0155 -0.2486
   8423SM   H6S11185   3.797   2.229   3.175  0.9042  3.2123 -0.8426
   8423SM   H6T11186   3.958   2.316   3.185 -0.9353  0.2819  2.3506
   8423SM   C7S11187   3.968   2.109   3.150 -0.0262 -0.1817  0.4349
   8423SM   H7S11188   4.067   2.109   3.100  0.6197 -1.0862  1.6651
   8423SM   H7T11189   3.922   2.022   3.099  0.9984 -1.7828  2.1457
   8423SM   C8S11190   3.991   2.082   3.299 -0.1577  0.1736  0.2776
   8423SM   H8S11191   3.902   2.024   3.333 -0.6715  0.2220 -0.8957
   8423SM   H8T11192   3.999   2.173   3.362  0.0827  0.5187 -0.2463
   8423SM   C9S11193   4.116   1.997   3.324 -0.5793  0.1132 -0.9485
   8423SM   H9S11194   4.212   2.039   3.288 -0.6804 -0.3004 -1.7087
   8423SM   H9T11195   4.100   1.899   3.275 -4.1579  0.1221 -0.0758
   8423SM  C10S11196   4.133   1.965   3.476  0.3820  0.5374 -0.1241
   8423SM  H10S11197   4.036   1.927   3.515  0.5443 -0.0627 -0.2966
   8423SM  H10T11198   4.159   2.057   3.533 -0.0044  0.0766  0.8087
   8423SM  C11S11199   4.239   1.855   3.501 -0.3921  0.0273  0.2627
   8423SM  H11S11200   4.338   1.890   3.464 -0.5852 -0.6366 -0.8959
   8423SM  H11T11201   4.215   1.761   3.448  1.3882 -0.2004 -0.2040
   8423SM  C12S11202   4.255   1.817   3.647  0.2209 -0.2645 -0.1488
   8423SM  H12S11203   4.301   1.716   3.645 -1.4468 -1.0690  0.5406
   8423SM  H12T11204   4.155   1.806   3.694 -0.5458 -0.4283 -1.7538
   8423SM  C13S11205   4.330   1.920   3.724 -0.5303  0.4923  0.2525
   8423SM  H13S11206   4.297   2.025   3.711  2.2184  1.1875 -1.9300
   8423SM  H13T11207   4.434   1.922   3.686 -0.0076  0.9643  1.6275
   8423SM  C14S11208   4.337   1.869   3.866 -1.0418  0.1052 -0.2522
   8423SM  H14S11209   4.381   1.767   3.872 -0.7187  0.3281  1.8873
   8423SM  H14T11210   4.231   1.867   3.899 -1.2482 -0.5599 -0.9230
   8423SM  C15S11211   4.401   1.966   3.967 -0.0517  0.0511  0.1600
   8423SM  H15S11212   4.342   2.059   3.956  0.4073  0.5035  1.3864
   8423SM  H15T11213   4.501   1.991   3.927 -0.1206 -0.7069 -0.5142
   8423SM  C16S11214   4.405   1.912   4.110 -0.1402  0.6694  0.5198
   8423SM  H16S11215   4.494   1.845   4.115  2.0317  3.1797 -1.5782
   8423SM  H16T11216   4.305   1.871   4.132  0.3503 -1.1056 -0.4203
   8423SM  C17S11217   4.427   2.024   4.212  0.4536  0.1131 -0.0218
   8423SM  H17S11218   4.356   2.105   4.185  0.0382 -0.6351 -1.2435
   8423SM  H17T11219   4.525   2.072   4.193  1.4785 -1.2334  1.5322
   8423SM  C18S11220   4.423   1.985   4.366  0.0269  0.0936 -0.6443
   8423SM  H18S11221   4.488   2.053   4.425 -2.1591  1.5774  0.1741
   8423SM  H18T11222   4.454   1.879   4.378 -0.4169  0.1738  1.6900
   8423SM  H18U11223   4.317   1.996   4.397 -0.4936 -1.4815 -1.7354
   8423SM   C1F11224   4.243   2.133   2.644  0.0990  0.2513 -0.2310
   8423SM    OF11225   4.287   2.227   2.587 -0.6838 -0.0877  0.2410
   8423SM   C2F11226   4.331   2.018   2.684  0.6259  0.0314 -0.3498
   8423SM   H2F11227   4.326   1.950   2.597  1.3523 -0.5852  0.0733
   8423SM   H2G11228   4.295   1.965   2.775 -1.7624  0.7299 -0.8069
   8423SM   C3F11229   4.482   2.056   2.695 -0.8180 -0.2216 -0.3441
   8423SM   H3F11230   4.524   2.089   2.597  0.7101 -0.2708  0.2562
   8423SM   H3G11231   4.534   1.962   2.724 -2.9589 -1.3289  0.1345
   8423SM   C4F11232   4.529   2.153   2.806  0.3427  0.0862 -0.0392
   8423SM   H4F11233   4.524   2.256   2.765 -0.9663 -0.5956 -1.7073
   8423SM   H4G11234   4.638   2.141   2.827  0.3542 -0.7064 -0.5095
   8423SM   C5F11235   4.449   2.149   2.937 -0.7553  0.4667  0.3170
   8423SM   H5F11236   4.450   2.044   2.972  2.4495  1.0075  2.2982
   8423SM   H5G11237   4.344   2.177   2.914 -1.0469 -1.3255 -0.7194
   8423SM   C6F11238   4.507   2.228   3.051  0.2302  0.5378  0.0182
   8423SM   H6F11239   4.522   2.335   3.026  3.2654 -0.3556 -2.7381
   8423SM   H6G11240   4.610   2.190   3.065  0.0819 -0.4343 -1.3568
   8423SM   C7F11241   4.427   2.198   3.177 -0.4947  0.4387  0.2436
   8423SM   H7F11242   4.465   2.103   3.221  0.8194  0.1109 -1.5007
   8423SM   H7G11243   4.319   2.182   3.154 -0.9658  1.3031  1.7339
   8423SM   C8F11244   4.454   2.307   3.286 -0.4189 -0.1111 -0.1367
   8423SM   H8F11245   4.449   2.410   3.244  3.3769  0.9017  1.4788
   8423SM   H8G11246   4.556   2.290   3.326 -0.3761  2.9238  1.3021
   8423SM   C9F11247   4.360   2.302   3.403 -0.6187  0.0959 -0.6308
   8423SM   H9F11248   4.392   2.213   3.460 -0.0386  0.8135  0.1885
   8423SM   H9G11249   4.252   2.294   3.379 -0.6757 -2.4661  0.1697
   8423SM  C10F11250   4.378   2.419   3.504  0.7348  0.2396  0.1288
   8423SM  H10F11251   4.357   2.520   3.463  1.7748  0.9284  1.2521
   8423SM  H10G11252   4.485   2.413   3.534  0.7104  1.5819  0.5367
   8423SM  C11F11253   4.287   2.396   3.620  0.2612  0.0651 -0.1234
   8423SM  H11F11254   4.287   2.290   3.651  0.8412  0.8972  3.0623
   8423SM  H11G11255   4.183   2.426   3.593  0.7202  0.9824 -0.9291
   8423SM  C12F11256   4.314   2.500   3.733  0.2346  0.0848 -0.9775
   8423SM  H12F11257   4.281   2.603   3.705  1.6504  0.8376  0.0427
   8423SM  H12G11258   4.423   2.505   3.753  0.0822 -0.6290  0.1068
   8423SM  C13F11259   4.234   2.466   3.857  0.2671 -0.0739 -0.1912
   8423SM  H13F11260   4.261   2.362   3.885 -0.4323 -0.4821 -1.0265
   8423SM  H13G11261   4.125   2.464   3.835 -0.0308 -0.2299  1.1733
   8423SM  C14F11262   4.243   2.560   3.975 -0.8128  0.4546  0.3498
   8423SM  H14F11263   4.220   2.666   3.950  0.4690  1.2798  2.4165
   8423SM  H14G11264   4.350   2.568   4.003 -0.4949 -0.6909 -0.4837
   8423SM  C15F11265   4.163   2.513   4.090 -0.7210  0.2071 -0.1522
   8423SM  H15F11266   4.198   2.414   4.125  0.3347  0.2254 -1.0955
   8423SM  H15G11267   4.058   2.503   4.056 -0.6113  2.8492 -1.5816
   8423SM  C16F11268   4.162   2.613   4.212 -0.8910 -0.1395  0.4546
   8423SM  H16F11269   4.123   2.708   4.169 -0.2939  0.0555  0.3351
   8423SM  H16G11270   4.269   2.636   4.232  0.5990 -1.8258 -4.2985
   8423SM  C17F11271   4.081   2.565   4.328  0.3454 -0.3194 -0.4716
   8423SM  H17F11272   4.096   2.460   4.361  2.0613  0.0156 -0.1169
   8423SM  H17G11273   3.975   2.563   4.295 -0.2417  2.0542  0.9576
   8423SM  C18F11274   4.101   2.646   4.448 -0.2802  0.0651  0.1854
   8423SM  H18F11275   4.207   2.632   4.480 -1.1669 -0.8025  2.9829
   8423SM  H18G11276   4.031   2.612   4.527 -1.4451 -0.7129 -1.1396
   8423SM  C19F11277   4.085   2.796   4.420 -0.0172 -0.0264 -0.1604
   8423SM  H19F11278   4.005   2.812   4.344 -0.6257  0.8891  0.6491
   8423SM  H19G11279   4.184   2.829   4.382 -0.7329  2.1201 -0.2594
   8423SM  C20F11280   4.046   2.885   4.539 -1.0778  0.0454 -0.6037
   8423SM  H20F11281   4.119   2.869   4.621 -0.7248 -1.0659 -1.1157
   8423SM  H20G11282   3.961   2.836   4.591  1.0195 -3.4930 -0.1435
   8423SM  C21F11283   4.006   3.024   4.505 -0.1710 -0.0905  0.3802
   8423SM  H21F11284   3.945   3.023   4.412 -1.6941  1.8215  1.2914
   8423SM  H21G11285   4.095   3.084   4.476 -1.5761  1.2168 -1.4099
   8423SM  C22F11286   3.933   3.100   4.613  0.0966 -0.0448 -1.3638
   8423SM  H22F11287   3.914   3.204   4.578  0.8151  0.4768 -0.2480
   8423SM  H22G11288   4.003   3.114   4.698  0.8888  0.9242 -2.1619
   8423SM  C23F11289   3.794   3.050   4.672  0.7170  0.4008  0.0147
   8423SM  H23F11290   3.746   3.116   4.747 -2.9938 -2.4173  0.3948
   8423SM  H23G11291   3.798   2.948   4.714  1.2444 -0.0020 -0.9767
   8423SM  H23H11292   3.730   3.043   4.582  0.8948 -1.8440  0.0137
   8523SM     N11293   5.910   3.453   1.988 -0.5568  0.3197  0.5321
   8523SM   C1511294   5.810   3.497   2.097 -0.4260  0.6374  1.2911
   8523SM  H15A11295   5.727   3.542   2.044  1.0800  1.3810 -0.5166
   8523SM  H15B11296   5.863   3.571   2.156  0.1390  1.3719 -0.0833
   8523SM  H15C11297   5.780   3.416   2.162 -4.2601  1.7185  1.1432
   8523SM   C1411298   6.027   3.395   2.055 -0.4966  0.0725 -0.3369
   8523SM  H14A11299   5.991   3.312   2.114 -0.6904  0.4095  0.0264
   8523SM  H14B11300   6.066   3.468   2.124  0.8761  0.2855 -1.2950
   8523SM  H14C11301   6.106   3.368   1.986 -0.4278  0.8484 -0.5758
   8523SM   C1311302   5.855   3.332   1.916  0.1006 -0.4020 -0.3475
   8523SM  H13A11303   5.845   3.243   1.976  2.1511 -0.1261  0.4987
   8523SM  H13B11304   5.930   3.308   1.842  2.3933 -0.1304  1.7280
   8523SM  H13C11305   5.766   3.349   1.857 -0.8616  0.2275  1.2374
   8523SM   C1211306   5.955   3.566   1.895 -0.4687  0.4832  0.1840
   8523SM  H12A11307   5.878   3.597   1.826  1.1997  0.5134 -1.7475
   8523SM  H12B11308   6.019   3.509   1.830 -0.6825  0.0300  0.3659
   8523SM   C1111309   6.046   3.678   1.949 -0.0185  0.0593 -0.2347
   8523SM  H11A11310   6.094   3.720   1.857 -0.6399 -0.2804 -0.7185
   8523SM  H11B11311   6.126   3.638   2.015  2.0014  1.0657 -1.9363
   8523SM     P11312   6.000   3.920   2.042 -0.0187 -0.0325  0.5603
   8523SM   O1311313   6.034   3.987   1.911 -0.6402  0.5071  0.0226
   8523SM   O1411314   5.911   3.988   2.138 -0.2815 -0.2226 -0.2031
   8523SM   O1111315   6.137   3.899   2.117 -0.5434  0.8018 -0.1308
   8523SM   O1211316   5.962   3.773   2.021 -0.2120 -0.1104 -0.4286
   8523SM   C1S11317   6.183   3.973   2.228  0.4673  0.1285  0.1073
   8523SM   H1S11318   6.136   4.074   2.234 -0.2880 -0.2488  0.7724
   8523SM   H1T11319   6.294   3.975   2.216  0.4133  0.7148 -0.3255
   8523SM    NF11320   6.253   3.977   2.468 -0.2880  0.4657  0.4807
   8523SM   HNF11321   6.330   3.928   2.510  0.2276  1.5076  0.7876
   8523SM   C2S11322   6.173   3.900   2.365  0.1743 -0.0522 -0.3600
   8523SM   H2S11323   6.065   3.912   2.392 -0.4306 -2.1723 -1.5983
   8523SM   C3S11324   6.204   3.748   2.356  0.4293  0.2342  0.0124
   8523SM   H3S11325   6.313   3.726   2.354  0.2719 -0.5306 -0.5759
   8523SM    O311326   6.151   3.677   2.246  0.6479  0.4206 -0.0566
   8523SM   HO311327   6.150   3.743   2.176  1.9759 -0.7044 -1.1724
   8523SM   C4S11328   6.163   3.672   2.484 -0.7782 -0.4077 -0.0957
   8523SM   H4S11329   6.247   3.661   2.554 -1.4861  0.6473  0.9659
   8523SM   C5S11330   6.039   3.626   2.514  0.7673  0.1652  1.0170
   8523SM   H5S11331   5.957   3.654   2.447  1.5784  1.8633  0.6781
   8523SM   C6S11332   6.004   3.546   2.636 -0.3225 -0.0035 -0.5985
   8523SM   H6S11333   6.057   3.448   2.631 -1.9192 -0.9758  0.7266
   8523SM   H6T11334   5.895   3.528   2.641 -0.3529  0.2525 -0.3215
   8523SM   C7S11335   6.056   3.596   2.773  0.5662  0.7936  0.0103
   8523SM   H7S11336   6.166   3.605   2.761  0.5845 -0.5962 -1.0570
   8523SM   H7T11337   6.041   3.516   2.848 -0.2564  1.0979  0.1831
   8523SM   C8S11338   5.986   3.730   2.823 -0.5906  0.8488  0.3158
   8523SM   H8S11339   5.876   3.719   2.837 -0.5994  2.0271  1.3465
   8523SM   H8T11340   6.002   3.813   2.750 -1.5903  0.7793 -0.0062
   8523SM   C9S11341   6.039   3.779   2.964  0.1228  0.2478 -0.1888
   8523SM   H9S11342   6.142   3.819   2.950  0.8252 -1.8487 -1.4679
   8523SM   H9T11343   6.031   3.704   3.046 -0.5650  1.2417  0.6755
   8523SM  C10S11344   5.944   3.887   3.027  0.6624  0.2595  0.0893
   8523SM  H10S11345   5.840   3.848   3.015  0.4655  0.8572 -0.1681
   8523SM  H10T11346   5.947   3.978   2.963  3.0882 -0.0457 -0.3128
   8523SM  C11S11347   5.970   3.915   3.175 -0.3084  0.1020 -0.1170
   8523SM  H11S11348   5.993   3.821   3.230 -0.8040 -1.2701 -2.1693
   8523SM  H11T11349   5.873   3.959   3.209  0.7043  1.2022  1.4635
   8523SM  C12S11350   6.080   4.022   3.184  0.0920  0.4551  0.1270
   8523SM  H12S11351   6.052   4.106   3.116  0.6225 -1.2406 -2.3126
   8523SM  H12T11352   6.183   3.998   3.150  0.4802  0.2844  1.3947
   8523SM  C13S11353   6.082   4.073   3.330 -0.1735 -0.0581 -0.3512
   8523SM  H13S11354   6.109   3.993   3.403 -0.8006  0.9285  0.9947
   8523SM  H13T11355   5.983   4.112   3.359  0.8405  0.8791  2.1037
   8523SM  C14S11356   6.170   4.196   3.337 -0.6146 -0.2447  0.1684
   8523SM  H14S11357   6.113   4.275   3.284  0.1372 -1.1771 -2.1570
   8523SM  H14T11358   6.267   4.181   3.284  0.3571  0.1188  1.7454
   8523SM  C15S11359   6.206   4.253   3.471 -0.0480 -0.6302  0.3991
   8523SM  H15S11360   6.113   4.296   3.514  0.2523  0.2665  0.1738
   8523SM  H15T11361   6.247   4.352   3.442 -1.6787  0.3924  1.4170
   8523SM  C16S11362   6.290   4.153   3.542 -0.1086 -0.5402  0.3046
   8523SM  H16S11363   6.366   4.116   3.469 -0.1235 -1.0216  0.5296
   8523SM  H16T11364   6.228   4.075   3.590 -0.7239 -1.0701 -1.2842
   8523SM  C17S11365   6.355   4.203   3.671  0.3676  0.3006  0.4648
   8523SM  H17S11366   6.422   4.117   3.696 -1.3421 -1.3149 -0.2972
   8523SM  H17T11367   6.271   4.213   3.743  0.2652 -0.6344  0.4869
   8523SM  C18S11368   6.440   4.333   3.667 -0.0354 -0.2694 -1.0008
   8523SM  H18S11369   6.475   4.352   3.770 -1.1275 -1.7604 -0.3098
   8523SM  H18T11370   6.385   4.423   3.632  0.5290  1.1207  1.4886
   8523SM  H18U11371   6.528   4.303   3.605  0.3221 -0.3822 -0.4442
   8523SM   C1F11372   6.235   4.109   2.487 -0.2375 -0.2893  1.2692
   8523SM    OF11373   6.129   4.160   2.460  0.3286  0.0465  0.3579
   8523SM   C2F11374   6.345   4.183   2.548 -0.6287 -1.0273  0.5790
   8523SM   H2F11375   6.443   4.137   2.524  0.6611  2.3538 -1.3676
   8523SM   H2G11376   6.347   4.181   2.659 -0.0142  0.2907  0.6127
   8523SM   C3F11377   6.366   4.325   2.491 -0.2540  0.2055  0.2781
   8523SM   H3F11378   6.267   4.374   2.474 -1.1160 -0.9155  1.8128
   8523SM   H3G11379   6.420   4.307   2.396 -1.2469 -1.3778 -0.0287
   8523SM   C4F11380   6.464   4.408   2.570  0.6479  0.3465 -0.5052
   8523SM   H4F11381   6.566   4.364   2.567  1.1207  0.9693  2.6837
   8523SM   H4G11382   6.435   4.413   2.677 -1.8260 -1.3501 -1.0156
   8523SM   C5F11383   6.484   4.552   2.515 -0.0106  0.4437  0.0835
   8523SM   H5F11384   6.391   4.612   2.511  0.2480  0.8223 -0.2816
   8523SM   H5G11385   6.511   4.534   2.409 -1.5258  3.3269 -0.8923
   8523SM   C6F11386   6.588   4.637   2.588  0.2242  0.2764  0.2381
   8523SM   H6F11387   6.630   4.716   2.522 -1.5322  1.2351  0.2099
   8523SM   H6G11388   6.674   4.571   2.612 -1.3639 -1.9971  0.0438
   8523SM   C7F11389   6.537   4.703   2.716  0.2275 -1.2278  0.2842
   8523SM   H7F11390   6.469   4.632   2.768 -1.0786  0.4649  0.9668
   8523SM   H7G11391   6.463   4.779   2.683  0.1058 -0.9102  1.2580
   8523SM   C8F11392   6.650   4.757   2.806 -0.4292  0.0452  0.1904
   8523SM   H8F11393   6.611   4.842   2.866  0.4199  0.8518 -0.3876
   8523SM   H8G11394   6.729   4.796   2.738  1.8771 -1.4720  1.8410
   8523SM   C9F11395   6.706   4.654   2.907 -0.3584  0.0120  1.2437
   8523SM   H9F11396   6.749   4.568   2.850 -0.6344  0.2926  0.6021
   8523SM   H9G11397   6.633   4.616   2.981 -1.4576  0.2989  0.3307
   8523SM  C10F11398   6.816   4.717   2.989 -1.2131 -0.3306  0.1541
   8523SM  H10F11399   6.788   4.816   3.029  0.6183  0.5904 -0.7311
   8523SM  H10G11400   6.894   4.748   2.916 -1.5437 -0.9449 -0.4700
   8523SM  C11F11401   6.879   4.625   3.101  0.7742 -0.5568  0.2542
   8523SM  H11F11402   6.806   4.605   3.182  1.5680 -1.9849  0.6558
   8523SM  H11G11403   6.971   4.668   3.146  1.0508  1.1965 -1.8080
   8523SM  C12F11404   6.905   4.482   3.044  0.4084 -0.3396 -0.3730
   8523SM  H12F11405   6.960   4.506   2.950 -0.6830 -1.0491 -1.2261
   8523SM  H12G11406   6.806   4.435   3.023 -0.4050  0.3436  1.7331
   8523SM  C13F11407   7.000   4.400   3.133  0.2896 -0.1234 -0.7060
   8523SM  H13F11408   7.083   4.462   3.176  0.9240 -1.8207  0.6106
   8523SM  H13G11409   7.046   4.320   3.071 -1.6170 -2.0588  0.2806
   8523SM  C14F11410   6.944   4.338   3.255 -0.0161  0.0154  0.5575
   8523SM  H14F11411   6.879   4.412   3.306 -0.7420 -1.0370  1.2054
   8523SM  H14G11412   7.023   4.302   3.325 -0.0199 -0.8870  0.1210
   8523SM  C15F11413   6.861   4.213   3.219 -0.0264  0.0979 -0.3185
   8523SM  H15F11414   6.908   4.140   3.149  1.1947 -1.9118  2.4031
   8523SM  H15G11415   6.761   4.241   3.180 -1.3565 -2.5242  0.9928
   8523SM  C16F11416   6.851   4.112   3.341  1.0357 -0.2254 -0.0718
   8523SM  H16F11417   6.807   4.181   3.416 -0.2383  3.3572 -3.6793
   8523SM  H16G11418   6.950   4.074   3.375  1.6829 -0.7651 -2.3589
   8523SM  C17F11419   6.751   4.010   3.298 -0.3529  0.6161 -0.0150
   8523SM  H17F11420   6.772   3.946   3.210 -1.6390 -0.2612  0.2762
   8523SM  H17G11421   6.652   4.059   3.295 -0.8814 -0.4157  0.0433
   8523SM  C18F11422   6.721   3.899   3.405 -0.0458 -0.4548 -0.3506
   8523SM  H18F11423   6.685   3.943   3.501  0.9874 -1.2419  0.4150
   8523SM  H18G11424   6.821   3.858   3.431 -0.8207 -2.1477  0.0953
   8523SM  C19F11425   6.631   3.791   3.351  0.2762  0.9222 -0.7856
   8523SM  H19F11426   6.696   3.707   3.320 -3.4165 -2.7085  0.4179
   8523SM  H19G11427   6.583   3.817   3.254  2.6984  1.3343 -1.9521
   8523SM  C20F11428   6.525   3.733   3.445 -0.1591 -0.4151 -0.2020
   8523SM  H20F11429   6.579   3.711   3.539  1.0664  2.3833 -0.1441
   8523SM  H20G11430   6.472   3.646   3.400  0.6118 -1.5238  0.9899
   8523SM  C21F11431   6.418   3.841   3.476  0.6117 -0.2283 -0.3320
   8523SM  H21F11432   6.398   3.905   3.387  0.8647  0.0083 -0.2179
   8523SM  H21G11433   6.451   3.915   3.552  0.4611  0.5025 -0.9698
   8523SM  C22F11434   6.287   3.767   3.537 -0.0783  0.0518  0.4119
   8523SM  H22F11435   6.227   3.848   3.584 -0.1157  0.5508 -0.4744
   8523SM  H22G11436   6.321   3.705   3.622  0.0703  0.4535  0.6474
   8523SM  C23F11437   6.201   3.690   3.433  0.3575  0.0899  0.6635
   8523SM  H23F11438   6.134   3.616   3.483 -0.0805 -0.4161 -0.6375
   8523SM  H23G11439   6.265   3.625   3.371  2.9990  1.8472  1.4025
   8523SM  H23H11440   6.141   3.763   3.375  1.9281  0.1481 -0.9428
   8623SM     N11441   3.653   1.733   2.131  0.0654  0.7362 -0.8206
   8623SM   C1511442   3.634   1.814   2.009 -0.5903 -0.2044 -0.1624
   8623SM  H15A11443   3.533   1.811   1.972  0.0996 -0.3610 -2.1364
   8623SM  H15B11444   3.685   1.767   1.926 -2.7574 -1.5005 -0.8385
   8623SM  H15C11445   3.652   1.919   2.026  0.0493 -0.3854  0.3145
   8623SM   C1411446   3.601   1.594   2.088  0.0285 -0.5118 -0.1872
   8623SM  H14A11447   3.630   1.517   2.158  0.2370  0.1219  0.4312
   8623SM  H14B11448   3.631   1.552   1.993 -1.1532 -1.3048 -0.2295
   8623SM  H14C11449   3.494   1.600   2.091  0.0981  2.7713 -0.7886
   8623SM   C1311450   3.801   1.716   2.164 -0.0639 -0.2987 -0.2341
   8623SM  H13A11451   3.850   1.809   2.185 -1.3940  0.3878 -0.0720
   8623SM  H13B11452   3.847   1.667   2.079  2.9656 -0.5507  1.4064
   8623SM  H13C11453   3.823   1.660   2.254 -1.5570  3.4370  2.6752
   8623SM   C1211454   3.571   1.788   2.249 -0.5227 -0.3469 -0.5935
   8623SM  H12A11455   3.466   1.783   2.224 -0.5929 -0.4219 -0.2836
   8623SM  H12B11456   3.595   1.893   2.253 -0.0011 -0.4074 -1.7651
   8623SM   C1111457   3.578   1.719   2.392  0.1410  0.6692 -0.2773
   8623SM  H11A11458   3.525   1.622   2.384 -0.0636  0.4044  3.0161
   8623SM  H11B11459   3.510   1.778   2.456  0.6811  1.4553 -0.4040
   8623SM     P11460   3.793   1.818   2.492 -0.4436  0.2911  0.4139
   8623SM   O1311461   3.914   1.768   2.560 -0.0681 -0.6278 -0.2106
   8623SM   O1411462   3.808   1.921   2.385 -0.2849  0.0357  0.4693
   8623SM   O1111463   3.700   1.871   2.604  0.0220 -0.1934 -0.1698
   8623SM   O1211464   3.717   1.692   2.444  0.2606 -0.7601  0.9206
   8623SM   C1S11465   3.653   1.796   2.716 -0.0492 -0.2061  0.2108
   8623SM   H1S11466   3.721   1.711   2.739  2.4850  2.0287  1.4674
   8623SM   H1T11467   3.553   1.751   2.699 -0.1813  0.5465 -1.1700
   8623SM    NF11468   3.646   1.810   2.955  0.3722 -0.5399 -0.2743
   8623SM   HNF11469   3.556   1.778   2.983  1.1390 -0.9422  1.9447
   8623SM   C2S11470   3.644   1.894   2.835  0.8607  0.9550 -0.7212
   8623SM   H2S11471   3.740   1.949   2.831  1.4699  0.1726  1.3043
   8623SM   C3S11472   3.521   1.989   2.817 -0.0337 -0.4541 -0.1863
   8623SM   H3S11473   3.425   1.934   2.827 -0.9267  1.0619 -0.1880
   8623SM    O311474   3.515   2.063   2.693  0.1693 -0.4844 -0.4272
   8623SM   HO311475   3.591   2.040   2.641  0.2965  0.7979 -0.8429
   8623SM   C4S11476   3.526   2.091   2.918 -0.5369 -0.4678  0.5029
   8623SM   H4S11477   3.570   2.186   2.883 -0.4412 -0.0312  1.7557
   8623SM   C5S11478   3.503   2.084   3.050 -0.3177  0.8552  0.3813
   8623SM   H5S11479   3.478   1.986   3.092  2.8957 -0.6845 -0.9178
   8623SM   C6S11480   3.535   2.200   3.143  0.4060  0.1647  0.3116
   8623SM   H6S11481   3.447   2.267   3.157 -2.0942 -3.1732  1.8725
   8623SM   H6T11482   3.615   2.266   3.101 -0.6651  1.6946  0.5784
   8623SM   C7S11483   3.572   2.161   3.284 -0.1139  0.3733  0.3561
   8623SM   H7S11484   3.675   2.120   3.293 -0.4326 -0.3488  0.7272
   8623SM   H7T11485   3.504   2.083   3.324 -0.1377  0.2741  0.1193
   8623SM   C8S11486   3.551   2.276   3.383 -0.1436 -0.0515 -0.7585
   8623SM   H8S11487   3.445   2.311   3.382 -0.2313 -0.3061 -0.5414
   8623SM   H8T11488   3.612   2.361   3.345 -0.4718  1.0101  0.9631
   8623SM   C9S11489   3.586   2.250   3.527 -0.1650  0.1316 -0.4397
   8623SM   H9S11490   3.522   2.169   3.569 -1.4964  1.5864  0.4392
   8623SM   H9T11491   3.566   2.342   3.586 -1.5984  0.8649 -1.9716
   8623SM  C10S11492   3.732   2.213   3.544  0.4022  0.9792  0.3374
   8623SM  H10S11493   3.800   2.296   3.514  0.0089  0.6374 -1.6663
   8623SM  H10T11494   3.760   2.121   3.487  1.2511  1.7527 -0.5432
   8623SM  C11S11495   3.761   2.178   3.689  0.0058 -0.2180  0.4146
   8623SM  H11S11496   3.687   2.104   3.727  0.2811 -0.6924  0.0451
   8623SM  H11T11497   3.790   2.267   3.748 -0.0783  0.7365 -0.9480
   8623SM  C12S11498   3.889   2.090   3.701 -0.1974  0.0762 -0.2009
   8623SM  H12S11499   3.958   2.144   3.634 -0.2141 -0.4119 -0.6129
   8623SM  H12T11500   3.871   1.986   3.667  0.9153 -0.3228  0.3887
   8623SM  C13S11501   3.960   2.071   3.838 -0.4957  0.1708  0.3334
   8623SM  H13S11502   3.965   2.160   3.904  2.0314 -0.0613  0.5592
   8623SM  H13T11503   4.066   2.042   3.823  0.2447  1.1082  3.2063
   8623SM  C14S11504   3.900   1.965   3.935  0.4756  0.2622 -0.0176
   8623SM  H14S11505   3.893   1.862   3.893  0.7690 -0.0824  0.7598
   8623SM  H14T11506   3.794   1.994   3.951  0.6904  1.6057 -0.8768
   8623SM  C15S11507   3.976   1.961   4.067  0.8005  0.2248  0.7312
   8623SM  H15S11508   3.981   2.064   4.108 -2.4531  0.2179  1.4171
   8623SM  H15T11509   4.079   1.923   4.051  0.1037 -1.1752 -0.5931
   8623SM  C16S11510   3.920   1.860   4.171 -0.0114 -0.2583  0.7014
   8623SM  H16S11511   3.921   1.763   4.118 -0.6509  1.8574 -3.6397
   8623SM  H16T11512   3.814   1.886   4.192  0.3356  1.4734  0.4576
   8623SM  C17S11513   3.996   1.853   4.302 -0.3621 -0.2163  0.3272
   8623SM  H17S11514   4.101   1.820   4.286 -0.5643 -1.0468  0.7102
   8623SM  H17T11515   3.956   1.770   4.363 -0.6172 -0.6355 -0.3934
   8623SM  C18S11516   3.998   1.986   4.382  0.0851 -0.2807 -0.5597
   8623SM  H18S11517   4.039   2.079   4.338 -1.4861  1.2017  0.9442
   8623SM  H18T11518   4.055   1.966   4.475 -1.9031  0.9375  1.0174
   8623SM  H18U11519   3.897   2.023   4.408 -0.0553 -1.0748  0.0784
   8623SM   C1F11520   3.747   1.765   3.017  0.2481 -0.3007  0.0884
   8623SM    OF11521   3.864   1.783   2.984 -0.5757 -0.6631  0.2852
   8623SM   C2F11522   3.716   1.688   3.131 -0.0452 -0.5443 -0.4511
   8623SM   H2F11523   3.716   1.578   3.116 -2.2647 -0.6532 -0.0028
   8623SM   H2G11524   3.613   1.709   3.167  0.4227  3.1486 -0.8007
   8623SM   C3F11525   3.826   1.713   3.249  0.1905 -0.4679  1.3013
   8623SM   H3F11526   3.851   1.820   3.266 -2.2118  0.1216  1.4436
   8623SM   H3G11527   3.920   1.668   3.210  0.1217  0.7020 -0.2990
   8623SM   C4F11528   3.816   1.638   3.381 -0.3840 -0.1451 -0.6598
   8623SM   H4F11529   3.918   1.613   3.415  0.4821  3.0440 -0.6039
   8623SM   H4G11530   3.771   1.540   3.356  0.9091 -1.0412  0.4033
   8623SM   C5F11531   3.760   1.721   3.501  0.4165 -0.1260  0.4627
   8623SM   H5F11532   3.816   1.817   3.505  0.2254  0.1268 -1.6279
   8623SM   H5G11533   3.779   1.662   3.593 -0.6028  1.0161  1.4453
   8623SM   C6F11534   3.611   1.739   3.480 -0.3975  0.1566 -0.7704
   8623SM   H6F11535   3.565   1.641   3.456  1.0363 -0.8086  0.2522
   8623SM   H6G11536   3.588   1.804   3.393 -0.5309  1.7743  0.4223
   8623SM   C7F11537   3.530   1.813   3.593  0.5187  0.0034 -0.3950
   8623SM   H7F11538   3.428   1.832   3.552  1.2891 -0.9765 -2.8750
   8623SM   H7G11539   3.576   1.914   3.599  1.3812 -0.3859 -0.4480
   8623SM   C8F11540   3.531   1.751   3.727  0.0080 -0.0331 -0.0256
   8623SM   H8F11541   3.632   1.719   3.760 -0.5222 -1.5200  0.2761
   8623SM   H8G11542   3.474   1.655   3.719  1.1152 -0.5669 -2.4709
   8623SM   C9F11543   3.468   1.834   3.842  0.8955  0.1277 -1.6288
   8623SM   H9F11544   3.360   1.857   3.828  0.1810 -2.2445 -0.5058
   8623SM   H9G11545   3.524   1.930   3.840  0.5851  0.3301 -0.8876
   8623SM  C10F11546   3.483   1.762   3.979 -0.3319  0.4813 -0.3428
   8623SM  H10F11547   3.590   1.737   3.998 -0.6414 -0.6432 -0.0204
   8623SM  H10G11548   3.422   1.670   3.970  1.8198 -0.9347 -1.2245
   8623SM  C11F11549   3.436   1.860   4.091  0.4330 -0.1712 -0.1361
   8623SM  H11F11550   3.326   1.868   4.085  0.1869 -0.0645  2.9929
   8623SM  H11G11551   3.482   1.956   4.058  0.3029  0.4551  1.4247
   8623SM  C12F11552   3.485   1.843   4.241  0.4662  0.2191  0.9548
   8623SM  H12F11553   3.595   1.844   4.230  0.4362 -0.6858  0.4424
   8623SM  H12G11554   3.444   1.742   4.264  0.2188  0.3315  1.0049
   8623SM  C13F11555   3.420   1.942   4.340 -0.1175  0.1968 -0.0992
   8623SM  H13F11556   3.310   1.928   4.343 -0.4115  1.7796  4.8157
   8623SM  H13G11557   3.432   2.047   4.304  1.5772  0.1540  0.2830
   8623SM  C14F11558   3.475   1.942   4.480  0.2007  0.3654  0.3681
   8623SM  H14F11559   3.575   1.990   4.476 -0.3843  1.5854 -2.8552
   8623SM  H14G11560   3.489   1.846   4.533 -0.9432 -0.4313 -0.7170
   8623SM  C15F11561   3.386   2.037   4.563 -0.0376  0.7988 -0.8025
   8623SM  H15F11562   3.280   2.013   4.586 -0.5634  3.3481 -0.2104
   8623SM  H15G11563   3.383   2.130   4.502  1.4503  0.1525 -1.9540
   8623SM  C16F11564   3.457   2.061   4.703  0.0894  0.2476 -0.0253
   8623SM  H16F11565   3.400   2.146   4.746 -1.1461  1.0452 -2.9298
   8623SM  H16G11566   3.556   2.109   4.691  0.2390 -0.0988 -0.2284
   8623SM  C17F11567   3.450   1.937   4.798  0.1076 -0.4624  0.2727
   8623SM  H17F11568   3.519   1.857   4.763 -1.5527 -1.6071 -0.5255
   8623SM  H17G11569   3.352   1.886   4.787 -0.9723  1.3660  0.9478
   8623SM  C18F11570   3.470   1.970   4.947 -0.0301 -0.3585  0.0511
   8623SM  H18F11571   3.426   2.066   4.981  0.3535 -1.1618  3.0409
   8623SM  H18G11572   3.579   1.986   4.960  0.5554 -2.8850 -1.0428
   8623SM  C19F11573   3.417   1.861   5.035 -0.1106  0.5567  0.0198
   8623SM  H19F11574   3.472   1.765   5.030 -0.2538  0.3572  1.6011
   8623SM  H19G11575   3.313   1.826   5.021  0.8515 -1.8747 -1.5718
   8623SM  C20F11576   3.414   1.909   5.177 -0.3226 -0.1813  0.6860
   8623SM  H20F11577   3.341   1.992   5.185 -0.9176 -0.7086  0.7997
   8623SM  H20G11578   3.508   1.956   5.214  1.1192 -2.0095 -0.4727
   8623SM  C21F11579   3.372   1.796   5.266 -0.0195  0.4084 -0.7809
   8623SM  H21F11580   3.444   1.711   5.269  0.0430  0.4378  2.2492
   8623SM  H21G11581   3.272   1.762   5.234 -0.3334 -0.3292  0.8941
   8623SM  C22F11582   3.361   1.838   5.408 -0.3480  0.2337  0.0433
   8623SM  H22F11583   3.280   1.909   5.434 -0.3443  0.7004 -1.1551
   8623SM  H22G11584   3.449   1.895   5.444  1.1720 -2.8701  1.5630
   8623SM  C23F11585   3.324   1.735   5.513  0.2390 -0.3071  0.3461
   8623SM  H23F11586   3.240   1.671   5.477 -0.0450 -1.6325  3.1207
   8623SM  H23G11587   3.304   1.782   5.612  3.7105 -0.2389  1.1435
   8623SM  H23H11588   3.411   1.667   5.512 -1.1921 -2.3042 -2.5132
   8723SM     N11589   5.806   1.551   2.007 -1.0558  0.0658 -0.9252
   8723SM   C1511590   5.688   1.491   1.943 -0.1298 -0.2000  0.2533
   8723SM  H15A11591   5.699   1.435   1.851 -0.5500 -1.8469  1.1560
   8723SM  H15B11592   5.617   1.568   1.919 -2.7394 -2.3180  0.6500
   8723SM  H15C11593   5.641   1.425   2.014  1.3287 -1.5276  0.0433
   8723SM   C1411594   5.892   1.437   2.058  0.0969  1.1473 -0.5626
   8723SM  H14A11595   5.899   1.361   1.982 -1.3893  2.3614 -2.0007
   8723SM  H14B11596   5.836   1.399   2.143 -0.4566 -2.9597 -2.5570
   8723SM  H14C11597   5.984   1.482   2.092  0.9151  0.0484 -1.2878
   8723SM   C1311598   5.900   1.624   1.916  0.3188 -0.5506  0.3924
   8723SM  H13A11599   5.864   1.716   1.871 -1.7265 -1.1084  0.7849
   8723SM  H13B11600   5.942   1.565   1.837 -0.5769  0.0984 -0.6071
   8723SM  H13C11601   5.982   1.661   1.976 -0.7887  0.2709  1.4690
   8723SM   C1211602   5.770   1.645   2.125  0.3245 -0.1379  0.7977
   8723SM  H12A11603   5.737   1.737   2.080  1.4461  0.8980  2.0280
   8723SM  H12B11604   5.860   1.679   2.172  0.5552 -0.0193  0.2759
   8723SM   C1111605   5.667   1.607   2.228 -0.0539 -0.1313 -0.6329
   8723SM  H11A11606   5.687   1.674   2.314  2.8055  1.0123 -2.0435
   8723SM  H11B11607   5.681   1.500   2.256  1.2615 -0.0119 -0.7845
   8723SM     P11608   5.406   1.589   2.251  0.1535  0.3010  0.0091
   8723SM   O1311609   5.295   1.601   2.153  0.1263  0.4746 -0.1849
   8723SM   O1411610   5.423   1.469   2.333 -0.3527  0.1884 -0.3377
   8723SM   O1111611   5.394   1.713   2.346  0.4106 -0.5026 -0.3368
   8723SM   O1211612   5.539   1.621   2.167  0.2139 -0.0941 -0.1897
   8723SM   C1S11613   5.265   1.766   2.396 -0.1897  0.4059 -0.2128
   8723SM   H1S11614   5.182   1.740   2.328 -0.5443 -2.9037  1.3138
   8723SM   H1T11615   5.270   1.877   2.400 -0.5932  0.4143  3.1435
   8723SM    NF11616   5.107   1.791   2.579 -0.1569 -0.0688 -0.2561
   8723SM   HNF11617   5.111   1.865   2.646 -0.4043 -0.6369  0.3897
   8723SM   C2S11618   5.236   1.735   2.536  0.1107  0.0937 -0.4854
   8723SM   H2S11619   5.224   1.625   2.542 -4.0874  0.3358 -1.4594
   8723SM   C3S11620   5.354   1.766   2.635 -0.2689 -0.3027  0.3417
   8723SM   H3S11621   5.367   1.875   2.617 -1.4071 -0.5771 -2.8946
   8723SM    O311622   5.482   1.715   2.600  0.2902  0.5314 -0.1110
   8723SM   HO311623   5.468   1.702   2.506 -0.8052  3.9218 -0.5476
   8723SM   C4S11624   5.322   1.740   2.778 -0.5184  0.9334  0.5471
   8723SM   H4S11625   5.251   1.659   2.801  0.6831 -1.6670 -3.7422
   8723SM   C5S11626   5.352   1.829   2.876  0.3658 -0.4282  0.4982
   8723SM   H5S11627   5.406   1.919   2.845 -1.3999 -0.5900 -3.8649
   8723SM   C6S11628   5.307   1.819   3.024 -0.6098  0.6866 -0.1220
   8723SM   H6S11629   5.401   1.792   3.076 -0.6443  2.5510  0.9756
   8723SM   H6T11630   5.235   1.735   3.037  3.0682 -2.6684  0.3185
   8723SM   C7S11631   5.267   1.960   3.074 -0.2141 -0.0194 -0.1100
   8723SM   H7S11632   5.175   1.991   3.020 -1.9389 -4.1351  0.0447
   8723SM   H7T11633   5.348   2.033   3.055 -0.6293  0.6457  0.6427
   8723SM   C8S11634   5.239   1.949   3.221 -0.9520 -0.3389 -0.3146
   8723SM   H8S11635   5.331   1.910   3.270 -1.2508 -1.2091 -0.4380
   8723SM   H8T11636   5.165   1.871   3.245  0.6238 -1.9474 -0.5101
   8723SM   C9S11637   5.201   2.081   3.282  0.1596 -0.1839  0.8609
   8723SM   H9S11638   5.100   2.115   3.248  0.4298 -0.5473 -0.3350
   8723SM   H9T11639   5.278   2.153   3.246  1.4366 -2.0474 -0.2844
   8723SM  C10S11640   5.207   2.084   3.436  1.1595  0.2030  0.6646
   8723SM  H10S11641   5.311   2.063   3.468  0.5096 -0.4439  2.4416
   8723SM  H10T11642   5.144   2.002   3.475 -1.1323  1.6034  0.0944
   8723SM  C11S11643   5.158   2.223   3.487  0.5556  0.5024 -0.5990
   8723SM  H11S11644   5.050   2.235   3.465  0.9320  1.5125 -2.0852
   8723SM  H11T11645   5.219   2.301   3.435  3.3497  0.0029  1.6596
   8723SM  C12S11646   5.175   2.241   3.640  0.2314  0.9804  0.4122
   8723SM  H12S11647   5.286   2.238   3.641  0.3083  1.5026 -2.0602
   8723SM  H12T11648   5.131   2.149   3.684  1.0934 -0.9931 -2.5559
   8723SM  C13S11649   5.146   2.375   3.701  0.9150  0.0871 -0.1071
   8723SM  H13S11650   5.039   2.402   3.712  1.8028  3.9824  0.4275
   8723SM  H13T11651   5.191   2.453   3.635  0.9309  0.0311 -0.1629
   8723SM  C14S11652   5.206   2.383   3.843 -0.0425  0.2055 -0.2095
   8723SM  H14S11653   5.209   2.489   3.875 -0.3159  0.8566 -2.2257
   8723SM  H14T11654   5.307   2.340   3.824  0.3270  0.8434  0.2795
   8723SM  C15S11655   5.132   2.294   3.947  0.0610  0.2261  0.5021
   8723SM  H15S11656   5.109   2.189   3.916 -2.0126  0.2799  1.6905
   8723SM  H15T11657   5.035   2.342   3.973  1.5096  1.4147  4.4019
   8723SM  C16S11658   5.201   2.283   4.083 -0.9746  0.5320  0.1374
   8723SM  H16S11659   5.234   2.387   4.104 -2.0412  1.2613 -1.5753
   8723SM  H16T11660   5.290   2.219   4.068 -2.5715 -1.8284  0.2496
   8723SM  C17S11661   5.121   2.224   4.205  1.0334 -0.1917  0.4131
   8723SM  H17S11662   5.042   2.300   4.223  4.3183  4.0195 -1.1340
   8723SM  H17T11663   5.199   2.222   4.284  1.3265 -0.7622  0.1153
   8723SM  C18S11664   5.065   2.088   4.171  0.7007 -0.3472 -0.8697
   8723SM  H18S11665   5.142   2.013   4.145 -0.6714 -1.5973 -1.5110
   8723SM  H18T11666   4.996   2.101   4.084 -0.4513 -0.1327  0.0568
   8723SM  H18U11667   5.011   2.040   4.255  1.7558 -1.3950 -0.7588
   8723SM   C1F11668   4.995   1.744   2.526 -0.1970  0.8143  0.0625
   8723SM    OF11669   4.988   1.644   2.448 -0.0011 -0.3639 -0.2397
   8723SM   C2F11670   4.866   1.818   2.560 -0.1401 -0.0503 -0.1647
   8723SM   H2F11671   4.782   1.754   2.527  0.0757  0.1808 -1.2208
   8723SM   H2G11672   4.870   1.906   2.492  0.8650 -0.3311 -0.4892
   8723SM   C3F11673   4.855   1.859   2.708  0.2075  0.4036  0.1898
   8723SM   H3F11674   4.765   1.923   2.717 -0.4785 -0.2462 -1.7363
   8723SM   H3G11675   4.931   1.937   2.730  0.9009  0.0630 -0.9008
   8723SM   C4F11676   4.865   1.741   2.804 -0.6334  0.2944 -0.8454
   8723SM   H4F11677   4.933   1.665   2.761  0.6352  1.5901 -1.2382
   8723SM   H4G11678   4.765   1.692   2.809 -1.2368  1.4466 -1.2104
   8723SM   C5F11679   4.910   1.781   2.946  0.0943  0.5605 -0.2089
   8723SM   H5F11680   5.002   1.844   2.941  0.8596 -0.1947  2.4919
   8723SM   H5G11681   4.945   1.689   2.997  0.6580  0.7211 -0.2960
   8723SM   C6F11682   4.805   1.847   3.038  1.1338  0.1237  0.3439
   8723SM   H6F11683   4.729   1.766   3.048  0.0148  0.7406 -2.3892
   8723SM   H6G11684   4.760   1.938   2.995 -1.5012 -0.8314  0.8881
   8723SM   C7F11685   4.854   1.873   3.180  0.0953 -0.1893 -0.2397
   8723SM   H7F11686   4.933   1.951   3.173 -1.7710  1.6746 -1.8540
   8723SM   H7G11687   4.902   1.787   3.231 -0.4697  0.5929  1.6937
   8723SM   C8F11688   4.739   1.939   3.267 -0.2056  0.2109 -0.0241
   8723SM   H8F11689   4.656   1.866   3.277 -2.2445  2.2909 -0.7696
   8723SM   H8G11690   4.700   2.031   3.218 -2.2859  1.6522  3.8808
   8723SM   C9F11691   4.788   1.991   3.405  0.3349 -0.1312  0.1307
   8723SM   H9F11692   4.876   2.053   3.377 -0.5274  0.7686 -0.6348
   8723SM   H9G11693   4.831   1.905   3.462  0.6512  0.5897  0.9970
   8723SM  C10F11694   4.686   2.064   3.491  0.3808 -0.6257  0.1666
   8723SM  H10F11695   4.600   1.997   3.509 -0.7644  1.0123  1.0506
   8723SM  H10G11696   4.647   2.135   3.415 -0.1912 -0.4170  0.6525
   8723SM  C11F11697   4.745   2.107   3.625 -0.0309 -0.1422  0.2292
   8723SM  H11F11698   4.833   2.167   3.594  0.1170 -1.0183 -1.1309
   8723SM  H11G11699   4.792   2.027   3.687  1.8256 -0.2363 -1.2089
   8723SM  C12F11700   4.645   2.183   3.718 -0.2116 -0.1362  0.4915
   8723SM  H12F11701   4.567   2.106   3.735  1.3272 -2.2862 -1.5721
   8723SM  H12G11702   4.601   2.261   3.652 -2.8451 -2.8027 -1.1518
   8723SM  C13F11703   4.711   2.241   3.841  0.0348  0.1029 -0.0334
   8723SM  H13F11704   4.791   2.312   3.810  0.4970  0.2467  1.4265
   8723SM  H13G11705   4.760   2.159   3.896  2.5841  0.6608 -1.3006
   8723SM  C14F11706   4.609   2.312   3.929  0.3358  0.5203 -0.9381
   8723SM  H14F11707   4.513   2.257   3.926  1.9176 -2.5207 -0.3582
   8723SM  H14G11708   4.594   2.417   3.896  1.7498  1.7189  1.9030
   8723SM  C15F11709   4.668   2.316   4.074  0.7494  0.0122  0.4512
   8723SM  H15F11710   4.760   2.379   4.075  0.2767  1.0556 -3.9205
   8723SM  H15G11711   4.694   2.218   4.118  1.9165  0.1270  0.0497
   8723SM  C16F11712   4.566   2.382   4.165 -0.5013  0.3633 -0.2363
   8723SM  H16F11713   4.473   2.322   4.161 -0.6120  0.6183 -2.1785
   8723SM  H16G11714   4.544   2.484   4.126 -0.1267  1.1014  1.3888
   8723SM  C17F11715   4.609   2.404   4.310 -0.2158 -0.3016  0.0987
   8723SM  H17F11716   4.702   2.463   4.324 -0.6127 -0.2807  3.4366
   8723SM  H17G11717   4.624   2.310   4.367  4.1802  0.8325  1.2052
   8723SM  C18F11718   4.507   2.496   4.380 -0.3790  0.2923  0.5385
   8723SM  H18F11719   4.406   2.450   4.384 -1.0468  1.6584 -0.1314
   8723SM  H18G11720   4.503   2.587   4.318 -1.5118 -0.3263 -0.3249
   8723SM  C19F11721   4.551   2.524   4.522  0.3566 -0.1528 -0.2418
   8723SM  H19F11722   4.636   2.596   4.520 -0.3787  0.7327 -0.1207
   8723SM  H19G11723   4.585   2.435   4.578  1.1490 -0.1098 -0.6352
   8723SM  C20F11724   4.440   2.599   4.612  0.0149  0.2430 -0.0127
   8723SM  H20F11725   4.359   2.524   4.627  0.0680  0.1927  0.0257
   8723SM  H20G11726   4.406   2.671   4.535 -0.9022  0.3736  0.5025
   8723SM  C21F11727   4.499   2.662   4.741 -0.4415  0.3126  0.3458
   8723SM  H21F11728   4.571   2.741   4.710 -2.4512  1.6909 -1.0836
   8723SM  H21G11729   4.556   2.582   4.793  0.3355  1.5332  1.4468
   8723SM  C22F11730   4.415   2.726   4.842 -0.4760  0.0833  0.2548
   8723SM  H22F11731   4.323   2.664   4.848 -0.5061  0.2228  1.5598
   8723SM  H22G11732   4.399   2.825   4.794 -0.1484 -0.3210 -0.6966
   8723SM  C23F11733   4.490   2.737   4.978 -0.1154 -0.3212  0.3293
   8723SM  H23F11734   4.571   2.810   4.958  0.4160 -0.5972  1.4328
   8723SM  H23G11735   4.532   2.641   5.014  2.1136  0.8237  0.9394
   8723SM  H23H11736   4.416   2.778   5.051 -1.7716 -0.9520 -0.9186
   8823SM     N11737   1.090   2.109   2.272  0.2617  0.1047 -0.1881
   8823SM   C1511738   0.966   2.026   2.292  0.5726  0.0653  0.3328
   8823SM  H15A11739   0.967   1.957   2.376 -0.2885  1.7001  1.7473
   8823SM  H15B11740   0.943   1.972   2.201 -0.3498  0.9903 -0.0031
   8823SM  H15C11741   0.884   2.096   2.298  2.0863  2.1316 -1.5974
   8823SM   C1411742   1.107   2.192   2.393 -0.2367 -0.0617  0.5145
   8823SM  H14A11743   1.160   2.284   2.373 -2.5719  0.9349 -1.5365
   8823SM  H14B11744   1.162   2.145   2.473 -0.0619 -0.0741  0.3878
   8823SM  H14C11745   1.007   2.216   2.427 -0.5661  2.0537 -1.6736
   8823SM   C1311746   1.216   2.024   2.265 -0.3592  0.3623 -0.3000
   8823SM  H13A11747   1.227   1.978   2.168 -2.3636 -0.0914 -0.3555
   8823SM  H13B11748   1.226   1.943   2.335  0.8633  1.9910  1.4878
   8823SM  H13C11749   1.301   2.089   2.272 -0.5615  0.6405 -0.3781
   8823SM   C1211750   1.078   2.199   2.150 -0.0056  0.1976  0.1252
   8823SM  H12A11751   0.998   2.268   2.174  0.3393  0.8921 -0.6766
   8823SM  H12B11752   1.040   2.149   2.062  2.0735  0.9340 -1.2729
   8823SM   C1111753   1.195   2.293   2.118 -0.0228 -0.3020 -0.6001
   8823SM  H11A11754   1.165   2.330   2.018  1.3533 -0.5688 -1.1343
   8823SM  H11B11755   1.295   2.248   2.105  0.1516 -0.1674  0.1788
   8823SM     P11756   1.123   2.530   2.207 -0.2641 -0.1101 -0.1339
   8823SM   O1311757   1.206   2.633   2.141  0.9313 -0.8442 -0.1968
   8823SM   O1411758   0.987   2.499   2.146 -0.0747  0.3933  0.1676
   8823SM   O1111759   1.104   2.568   2.362 -0.3830  0.3530 -0.1078
   8823SM   O1211760   1.206   2.393   2.216 -0.3291 -0.2881 -0.1524
   8823SM   C1S11761   1.214   2.548   2.450 -0.0063  0.1968  0.6563
   8823SM   H1S11762   1.277   2.640   2.456  1.2302 -0.6517  1.1004
   8823SM   H1T11763   1.287   2.470   2.421 -0.4889  0.5014 -1.5778
   8823SM    NF11764   1.300   2.476   2.665  1.1286 -0.3265 -0.0023
   8823SM   HNF11765   1.312   2.378   2.650  0.2256 -0.1123 -2.5331
   8823SM   C2S11766   1.181   2.526   2.601 -0.4587  0.5810  0.2734
   8823SM   H2S11767   1.155   2.627   2.640 -1.9999 -0.6921  2.7668
   8823SM   C3S11768   1.060   2.435   2.634 -0.6142 -0.4574  0.8065
   8823SM   H3S11769   1.092   2.330   2.616  0.4934 -0.3592  2.0859
   8823SM    O311770   0.949   2.451   2.542  0.0764  0.1259 -0.4075
   8823SM   HO311771   0.968   2.529   2.489 -0.1745  0.3073 -0.2376
   8823SM   C4S11772   1.012   2.447   2.778  0.6063  0.3947  0.0555
   8823SM   H4S11773   0.946   2.534   2.785  0.9201  0.6531 -0.1506
   8823SM   C5S11774   1.021   2.361   2.882  0.2733 -0.4215 -0.0729
   8823SM   H5S11775   1.084   2.271   2.883  0.3853 -0.3395  0.3271
   8823SM   C6S11776   0.952   2.392   3.016  0.0303  0.2594 -0.1441
   8823SM   H6S11777   0.899   2.311   3.071  0.4156  0.0582 -0.0641
   8823SM   H6T11778   0.880   2.474   2.995  0.4013  0.7138  0.3460
   8823SM   C7S11779   1.054   2.444   3.112  0.2943  0.3528 -0.3286
   8823SM   H7S11780   1.111   2.532   3.075  1.0924  0.4911  1.1734
   8823SM   H7T11781   1.138   2.372   3.124 -0.6613 -1.0150 -1.4328
   8823SM   C8S11782   1.001   2.479   3.252 -0.8111  0.3718  0.2522
   8823SM   H8S11783   0.962   2.390   3.305  0.3405 -0.4062 -0.1721
   8823SM   H8T11784   0.910   2.542   3.248  0.8287  2.8648 -1.1998
   8823SM   C9S11785   1.120   2.527   3.335 -0.3224 -0.5735 -0.5932
   8823SM   H9S11786   1.187   2.602   3.288 -0.9273 -0.0034 -0.5619
   8823SM   H9T11787   1.184   2.438   3.350  0.0019 -0.8667 -3.1276
   8823SM  C10S11788   1.090   2.585   3.472 -0.3658  0.3685  0.8367
   8823SM  H10S11789   1.018   2.668   3.457 -1.6470 -0.5990  1.4464
   8823SM  H10T11790   1.184   2.634   3.506  0.7168 -2.3308  2.0325
   8823SM  C11S11791   1.021   2.497   3.583 -0.0037 -0.0557  0.2989
   8823SM  H11S11792   1.096   2.435   3.636 -0.8725 -0.5827  0.9415
   8823SM  H11T11793   0.945   2.431   3.534 -1.0834  0.5274  1.1389
   8823SM  C12S11794   0.953   2.591   3.684 -0.8363 -0.0201 -0.3164
   8823SM  H12S11795   0.894   2.666   3.627  2.9638  1.4539 -2.7404
   8823SM  H12T11796   1.020   2.655   3.744 -2.3327  0.4287  0.9352
   8823SM  C13S11797   0.872   2.512   3.785  0.0192  0.2117  0.2587
   8823SM  H13S11798   0.914   2.410   3.793 -2.1362 -0.9708 -2.0036
   8823SM  H13T11799   0.769   2.493   3.749  0.2979 -0.6270 -0.1126
   8823SM  C14S11800   0.872   2.578   3.927  0.6032  0.2901  0.9046
   8823SM  H14S11801   0.978   2.587   3.960  1.5067 -1.0522 -1.3630
   8823SM  H14T11802   0.816   2.509   3.993  0.3026 -0.3952 -0.0496
   8823SM  C15S11803   0.815   2.723   3.928  0.1500  0.5754  0.3188
   8823SM  H15S11804   0.730   2.720   3.855  0.3994 -0.7261  0.0587
   8823SM  H15T11805   0.888   2.798   3.889  1.6267 -0.9283  0.0911
   8823SM  C16S11806   0.765   2.782   4.061 -0.1889  0.3589 -0.1019
   8823SM  H16S11807   0.707   2.710   4.123  1.3828  0.2976  1.3956
   8823SM  H16T11808   0.704   2.870   4.031  0.4246  0.6622 -0.4932
   8823SM  C17S11809   0.880   2.825   4.156 -0.0850 -0.0768 -0.2378
   8823SM  H17S11810   0.944   2.901   4.108 -1.6873  2.3001  1.1465
   8823SM  H17T11811   0.946   2.740   4.183  0.3388  0.5673  0.8243
   8823SM  C18S11812   0.838   2.892   4.290  0.8403  0.0493 -0.9220
   8823SM  H18S11813   0.920   2.886   4.366  0.2338 -1.6189 -0.3480
   8823SM  H18T11814   0.764   2.825   4.338  1.8429  0.5774  1.5585
   8823SM  H18U11815   0.793   2.993   4.279 -1.1210 -0.5730  0.6503
   8823SM   C1F11816   1.396   2.545   2.713  0.4743 -0.6634 -0.2797
   8823SM    OF11817   1.392   2.670   2.734  0.0854  0.6822  0.7403
   8823SM   C2F11818   1.528   2.475   2.727 -0.2497 -0.2974  0.0824
   8823SM   H2F11819   1.613   2.546   2.718 -2.4553  2.2601 -2.5817
   8823SM   H2G11820   1.540   2.401   2.645  0.6323  0.5667 -0.5910
   8823SM   C3F11821   1.545   2.398   2.855  0.6261  0.6181 -0.0788
   8823SM   H3F11822   1.642   2.346   2.840 -0.3717 -1.2307 -0.3026
   8823SM   H3G11823   1.462   2.327   2.870  0.3880  0.8572 -0.2540
   8823SM   C4F11824   1.531   2.492   2.981 -0.3380  0.2895  0.5180
   8823SM   H4F11825   1.434   2.546   2.971 -0.6063 -0.3936 -0.8565
   8823SM   H4G11826   1.608   2.572   2.994 -0.2988  0.2417  0.5763
   8823SM   C5F11827   1.527   2.416   3.113  0.3013 -0.0204  0.3590
   8823SM   H5F11828   1.618   2.354   3.123  0.8131  0.7241  0.3898
   8823SM   H5G11829   1.431   2.360   3.116 -0.8979  1.9698  1.0816
   8823SM   C6F11830   1.517   2.508   3.239 -0.1990  0.6774 -0.1700
   8823SM   H6F11831   1.418   2.557   3.232  0.8381  2.6168 -3.1558
   8823SM   H6G11832   1.600   2.581   3.243  1.7411 -1.3578 -1.0234
   8823SM   C7F11833   1.504   2.435   3.374 -0.1298 -0.9438 -0.5098
   8823SM   H7F11834   1.600   2.381   3.392  0.1249 -0.6947 -1.1159
   8823SM   H7G11835   1.426   2.356   3.377 -0.8496 -0.2641 -1.0706
   8823SM   C8F11836   1.466   2.540   3.491 -0.6643  1.5925  0.4291
   8823SM   H8F11837   1.391   2.612   3.452 -0.2441  1.4864 -0.6045
   8823SM   H8G11838   1.556   2.600   3.513  0.7043 -1.2683  3.7004
   8823SM   C9F11839   1.424   2.465   3.616  0.0892 -0.6663 -0.2414
   8823SM   H9F11840   1.504   2.392   3.641  0.0552 -1.3284 -1.9016
   8823SM   H9G11841   1.330   2.408   3.604 -1.7425  1.0885  3.9257
   8823SM  C10F11842   1.400   2.561   3.735  0.2209  0.2859 -0.1992
   8823SM  H10F11843   1.355   2.506   3.821  2.6534 -0.5025  0.6554
   8823SM  H10G11844   1.319   2.627   3.698 -0.4948 -0.1900  0.4738
   8823SM  C11F11845   1.528   2.624   3.789  0.1030  0.6745 -0.0727
   8823SM  H11F11846   1.496   2.708   3.854 -0.5199  0.3674  0.0225
   8823SM  H11G11847   1.594   2.670   3.712  0.7216  0.1783  0.1548
   8823SM  C12F11848   1.610   2.537   3.889 -0.7877  0.6463 -0.4878
   8823SM  H12F11849   1.703   2.593   3.912  0.6048 -1.0130 -1.8456
   8823SM  H12G11850   1.644   2.445   3.837 -1.3198  0.9002 -1.3130
   8823SM  C13F11851   1.541   2.485   4.019 -0.2072 -0.0568  0.3113
   8823SM  H13F11852   1.451   2.420   4.008  1.2581 -1.9402 -1.2699
   8823SM  H13G11853   1.519   2.579   4.075 -0.1113  0.6762 -0.8548
   8823SM  C14F11854   1.645   2.427   4.113 -0.2801  0.4964  0.1915
   8823SM  H14F11855   1.735   2.491   4.107  0.8689 -1.1085 -0.1565
   8823SM  H14G11856   1.682   2.328   4.080 -3.0626 -0.8903  0.8918
   8823SM  C15F11857   1.598   2.414   4.252 -0.5144  0.2071 -0.4899
   8823SM  H15F11858   1.515   2.340   4.257 -2.0167  1.9011  1.1586
   8823SM  H15G11859   1.563   2.512   4.291 -0.6506  0.3249 -0.9057
   8823SM  C16F11860   1.715   2.377   4.341 -0.0805 -0.0225  0.3244
   8823SM  H16F11861   1.808   2.438   4.346  1.1334 -1.3944 -2.8421
   8823SM  H16G11862   1.745   2.279   4.298 -0.0334  0.0748  0.1327
   8823SM  C17F11863   1.678   2.363   4.486  0.1210  0.1311  0.2614
   8823SM  H17F11864   1.594   2.435   4.498 -0.1987 -0.1599 -0.2028
   8823SM  H17G11865   1.758   2.399   4.555  1.5997 -1.3900 -0.5878
   8823SM  C18F11866   1.623   2.226   4.524  0.0212  0.1847 -0.3040
   8823SM  H18F11867   1.579   2.175   4.435  1.3495 -1.2310 -0.1974
   8823SM  H18G11868   1.542   2.228   4.599  0.0933  1.5678 -0.2361
   8823SM  C19F11869   1.734   2.132   4.561 -0.2443 -0.3413 -0.1629
   8823SM  H19F11870   1.828   2.147   4.504  1.2693 -1.1260  1.9889
   8823SM  H19G11871   1.699   2.029   4.542 -0.1794 -0.3106 -0.4569
   8823SM  C20F11872   1.784   2.145   4.709 -0.0453  0.2507  0.1419
   8823SM  H20F11873   1.702   2.152   4.784  0.1793 -0.4491  0.4581
   8823SM  H20G11874   1.837   2.240   4.731 -0.5010  0.0493  2.4122
   8823SM  C21F11875   1.878   2.026   4.750 -0.1326 -0.2709  0.0270
   8823SM  H21F11876   1.931   2.058   4.842 -0.5502  0.4529  0.0193
   8823SM  H21G11877   1.959   2.009   4.676  1.5672  1.8897  1.2703
   8823SM  C22F11878   1.813   1.883   4.765 -0.4910  0.0331  0.2064
   8823SM  H22F11879   1.773   1.859   4.664 -1.9309 -1.3245  1.0608
   8823SM  H22G11880   1.743   1.904   4.849  0.4672 -1.7597  1.4968
   8823SM  C23F11881   1.912   1.784   4.815 -0.2329 -0.0986  0.2979
   8823SM  H23F11882   1.949   1.823   4.912 -1.2638  1.2244  0.1817
   8823SM  H23G11883   2.003   1.788   4.751 -0.5599  0.7721 -0.1209
   8823SM  H23H11884   1.873   1.680   4.823 -1.1858  0.1062 -1.2334
   8923SM     N11885   5.621   2.714   2.023 -0.1559 -0.0118 -0.4864
   8923SM   C1511886   5.638   2.578   1.956  0.0929  0.0722  0.2768
   8923SM  H15A11887   5.609   2.601   1.854 -1.0682  1.8787  0.9532
   8923SM  H15B11888   5.572   2.500   1.990 -0.8851  0.9876  0.5425
   8923SM  H15C11889   5.741   2.548   1.968  0.4835  1.3764  0.4285
   8923SM   C1411890   5.711   2.814   1.961  0.5650 -0.0026 -0.1160
   8923SM  H14A11891   5.711   2.803   1.854 -0.2202 -1.7279  0.0123
   8923SM  H14B11892   5.805   2.787   2.006  0.5724 -1.1524 -0.7855
   8923SM  H14C11893   5.688   2.916   1.985 -0.2737 -0.1129 -0.4150
   8923SM   C1311894   5.485   2.765   2.000 -0.4734 -0.0044 -0.4977
   8923SM  H13A11895   5.474   2.762   1.892 -1.9602  0.6523 -0.3853
   8923SM  H13B11896   5.475   2.868   2.030 -0.0905  0.4715 -1.9263
   8923SM  H13C11897   5.404   2.706   2.040 -0.1124  0.6429  1.2480
   8923SM   C1211898   5.640   2.703   2.175  0.2397 -0.4176 -0.8544
   8923SM  H12A11899   5.587   2.623   2.224  2.7042 -0.6638  1.6649
   8923SM  H12B11900   5.592   2.789   2.220  0.4922  0.3549 -2.0140
   8923SM   C1111901   5.789   2.701   2.216 -0.0980  0.0341 -0.1730
   8923SM  H11A11902   5.787   2.689   2.327 -0.7898  0.0309 -0.1857
   8923SM  H11B11903   5.832   2.800   2.191  0.7392  0.2268  1.8012
   8923SM     P11904   6.009   2.586   2.136  0.2514  0.5956 -0.2935
   8923SM   O1311905   6.051   2.490   2.029 -0.2052 -0.0820  0.5843
   8923SM   O1411906   6.061   2.725   2.127 -0.2000 -0.5595 -0.8574
   8923SM   O1111907   6.053   2.537   2.282  0.1144 -0.4104 -0.1399
   8923SM   O1211908   5.856   2.588   2.155 -0.6744 -0.2065 -0.0259
   8923SM   C1S11909   6.091   2.407   2.326  0.3887 -0.0484 -0.1718
   8923SM   H1S11910   6.201   2.399   2.311  0.6645 -0.1337  1.6509
   8923SM   H1T11911   6.047   2.324   2.267  0.3456  1.0723 -1.7951
   8923SM    NF11912   6.144   2.284   2.530  0.1124  0.1255  0.5371
   8923SM   HNF11913   6.094   2.200   2.512  2.8536 -1.1757 -1.8637
   8923SM   C2S11914   6.064   2.395   2.480 -0.3842  0.3390 -0.1537
   8923SM   H2S11915   6.116   2.486   2.519  4.0829 -1.4461 -1.3379
   8923SM   C3S11916   5.916   2.379   2.516  0.1121  0.0386 -0.1913
   8923SM   H3S11917   5.883   2.276   2.493 -1.2903  0.5087 -0.3538
   8923SM    O311918   5.823   2.469   2.446 -0.1611  0.5409 -0.3215
   8923SM   HO311919   5.877   2.525   2.391 -0.1608 -0.0770 -0.9625
   8923SM   C4S11920   5.903   2.385   2.665  0.5805 -0.4734 -1.1476
   8923SM   H4S11921   5.913   2.289   2.718  1.0432 -0.1582 -0.6590
   8923SM   C5S11922   5.871   2.490   2.745 -0.2561  0.2718 -0.8007
   8923SM   H5S11923   5.868   2.591   2.701 -2.1341 -0.4193 -2.4107
   8923SM   C6S11924   5.874   2.478   2.900 -0.3775 -0.4136 -0.7353
   8923SM   H6S11925   5.779   2.519   2.941  1.0217  1.3790  0.9136
   8923SM   H6T11926   5.952   2.545   2.942 -2.0850 -0.4038  2.8354
   8923SM   C7S11927   5.894   2.339   2.967  0.5037 -0.3770  0.0071
   8923SM   H7S11928   5.979   2.287   2.918 -0.5843 -0.5690 -1.7740
   8923SM   H7T11929   5.814   2.263   2.954 -0.1626  0.4572 -0.9182
   8923SM   C8S11930   5.896   2.349   3.116 -0.2626 -0.2800  0.0714
   8923SM   H8S11931   5.995   2.385   3.152 -0.1004 -1.1843  0.5721
   8923SM   H8T11932   5.887   2.244   3.152 -0.6306 -0.2695  0.0147
   8923SM   C9S11933   5.786   2.425   3.184 -0.2842 -0.8348 -0.2007
   8923SM   H9S11934   5.689   2.372   3.174 -0.4595 -0.8483  1.2795
   8923SM   H9T11935   5.765   2.524   3.138  0.9861  0.2301  1.3922
   8923SM  C10S11936   5.816   2.443   3.337 -0.2431 -0.1654 -0.6456
   8923SM  H10S11937   5.911   2.498   3.351 -1.1790  1.0891  1.2118
   8923SM  H10T11938   5.838   2.340   3.372  0.2649  0.5243  1.1208
   8923SM  C11S11939   5.699   2.501   3.418 -0.5217 -0.1695  0.0820
   8923SM  H11S11940   5.612   2.430   3.415  1.9416 -3.3938 -1.3587
   8923SM  H11T11941   5.667   2.596   3.371 -1.1183 -0.9330 -1.1154
   8923SM  C12S11942   5.723   2.533   3.557  0.0495  0.1922  0.1562
   8923SM  H12S11943   5.809   2.603   3.568  2.3329 -2.3270 -0.4161
   8923SM  H12T11944   5.741   2.448   3.627 -1.9426  0.0000  0.4979
   8923SM  C13S11945   5.605   2.607   3.619  0.6774 -0.4477  0.3689
   8923SM  H13S11946   5.513   2.546   3.629 -1.0688  1.9871  0.1196
   8923SM  H13T11947   5.588   2.703   3.565 -2.6346 -0.3333  1.4243
   8923SM  C14S11948   5.632   2.656   3.760  0.3428  0.0686 -0.0851
   8923SM  H14S11949   5.731   2.707   3.761 -1.1485  3.1887  0.7015
   8923SM  H14T11950   5.639   2.568   3.828 -2.3232 -1.5448 -1.7106
   8923SM  C15S11951   5.523   2.750   3.808  0.6087 -0.3396 -0.4403
   8923SM  H15S11952   5.520   2.831   3.731  1.8752  1.3696  1.2131
   8923SM  H15T11953   5.553   2.806   3.899 -0.5342 -1.5638  0.7177
   8923SM  C16S11954   5.389   2.690   3.841 -1.1503  0.4600  0.1517
   8923SM  H16S11955   5.404   2.623   3.928  0.7293  1.2652  0.4856
   8923SM  H16T11956   5.362   2.641   3.745  0.7204  3.1023 -1.8677
   8923SM  C17S11957   5.286   2.790   3.890  0.0235 -0.5170  0.0674
   8923SM  H17S11958   5.185   2.764   3.850  0.5682 -1.3439 -0.8128
   8923SM  H17T11959   5.288   2.897   3.860 -3.2044  0.0557  1.3956
   8923SM  C18S11960   5.259   2.790   4.042 -0.1240  0.6968 -0.2117
   8923SM  H18S11961   5.218   2.693   4.079 -2.1261  1.4758 -0.2782
   8923SM  H18T11962   5.200   2.875   4.082  0.6046 -0.2726  3.1967
   8923SM  H18U11963   5.359   2.797   4.089 -0.1822 -0.0896  0.0506
   8923SM   C1F11964   6.275   2.288   2.560  0.4606  0.0299  0.1726
   8923SM    OF11965   6.340   2.389   2.545 -0.2719  0.0683 -0.2975
   8923SM   C2F11966   6.315   2.166   2.634  0.1339 -0.4276  0.3565
   8923SM   H2F11967   6.305   2.069   2.580  0.6677  0.5838 -1.6646
   8923SM   H2G11968   6.255   2.158   2.728  0.3491 -0.6744  0.4743
   8923SM   C3F11969   6.466   2.185   2.680  0.2768 -0.5635  0.1936
   8923SM   H3F11970   6.467   2.278   2.741  1.4317  1.1773 -2.3367
   8923SM   H3G11971   6.533   2.201   2.593 -1.1371 -0.4943 -0.9224
   8923SM   C4F11972   6.533   2.069   2.758  0.2461  1.4420  0.7447
   8923SM   H4F11973   6.644   2.068   2.754  0.2959 -0.0591  1.6087
   8923SM   H4G11974   6.519   1.973   2.704 -0.7617  1.1966  1.4150
   8923SM   C5F11975   6.512   2.068   2.911 -0.3693  0.6318 -0.0675
   8923SM   H5F11976   6.417   2.123   2.930 -1.4149 -0.7120 -1.1701
   8923SM   H5G11977   6.580   2.141   2.960  3.3249 -0.0602 -3.5901
   8923SM   C6F11978   6.524   1.936   2.977  0.8674 -0.4940  0.7387
   8923SM   H6F11979   6.596   1.874   2.920  1.5556  0.8838  0.0822
   8923SM   H6G11980   6.429   1.880   2.959  0.4808  0.0856  0.9242
   8923SM   C7F11981   6.550   1.941   3.127 -0.2238 -0.4805  0.6759
   8923SM   H7F11982   6.644   2.000   3.140  1.0024 -1.2346 -3.2361
   8923SM   H7G11983   6.578   1.840   3.164  1.3265  0.1061  1.1697
   8923SM   C8F11984   6.429   1.986   3.204  0.5037  0.0538  0.4281
   8923SM   H8F11985   6.373   1.895   3.232  1.4538 -0.7320 -0.1267
   8923SM   H8G11986   6.367   2.046   3.134 -1.5748 -2.7454 -0.2734
   8923SM   C9F11987   6.453   2.069   3.332 -0.2224  0.0298 -0.4119
   8923SM   H9F11988   6.366   2.136   3.351  2.5172  2.8452  3.7007
   8923SM   H9G11989   6.529   2.144   3.301 -3.1766  3.0828 -0.9327
   8923SM  C10F11990   6.496   1.972   3.445  1.0398  0.0268 -0.7330
   8923SM  H10F11991   6.594   1.925   3.421  0.0570 -2.4256 -0.2970
   8923SM  H10G11992   6.422   1.888   3.454  1.0453  0.1709  0.8736
   8923SM  C11F11993   6.491   2.046   3.582  0.6719  0.1063  0.5654
   8923SM  H11F11994   6.407   2.118   3.596  0.6449  0.5233 -1.5267
   8923SM  H11G11995   6.583   2.108   3.589 -0.6961  2.4007 -0.6608
   8923SM  C12F11996   6.486   1.936   3.694 -0.1181  0.4935  0.2784
   8923SM  H12F11997   6.584   1.885   3.699  0.0221  0.5688 -1.1848
   8923SM  H12G11998   6.407   1.862   3.669  2.3220 -2.1771  0.0022
   8923SM  C13F11999   6.455   1.992   3.835  0.2891 -0.1439 -0.2441
   8923SM  H13F12000   6.357   2.043   3.845  0.3415 -0.1857  0.4927
   8923SM  H13G12001   6.535   2.065   3.863 -0.1039 -0.3268  1.4340
   8923SM  C14F12002   6.464   1.887   3.939 -0.4831 -0.5669  0.2907
   8923SM  H14F12003   6.437   1.933   4.036  0.5333 -0.2298  0.4217
   8923SM  H14G12004   6.563   1.837   3.945 -2.3271 -4.4684  1.6501
   8923SM  C15F12005   6.375   1.762   3.912  0.2635  0.0102 -0.0057
   8923SM  H15F12006   6.435   1.688   3.855  2.0010  0.2888  1.3571
   8923SM  H15G12007   6.276   1.790   3.870 -0.2849  0.7354  1.6890
   8923SM  C16F12008   6.338   1.682   4.042  0.0466  0.2289  0.1870
   8923SM  H16F12009   6.282   1.747   4.112 -0.5255  1.4774 -1.3706
   8923SM  H16G12010   6.430   1.644   4.090 -1.0862 -2.1472  0.6207
   8923SM  C17F12011   6.266   1.550   4.009  0.0634  0.5100  0.1016
   8923SM  H17F12012   6.288   1.508   3.908  0.3710 -2.1447  1.1993
   8923SM  H17G12013   6.159   1.574   3.990  0.7060  1.4432 -2.9261
   8923SM  C18F12014   6.302   1.437   4.103 -0.3946 -0.0514 -0.0804
   8923SM  H18F12015   6.409   1.428   4.131 -0.9263  0.5939  2.4616
   8923SM  H18G12016   6.279   1.340   4.055 -0.3184 -0.6875  1.1287
   8923SM  C19F12017   6.229   1.456   4.240  0.5782 -0.3630  0.6812
   8923SM  H19F12018   6.219   1.561   4.275 -0.0780  0.3117 -1.3519
   8923SM  H19G12019   6.284   1.395   4.315 -0.6787 -1.2239  0.9126
   8923SM  C20F12020   6.077   1.404   4.239 -0.3607  0.5999 -0.1414
   8923SM  H20F12021   6.065   1.308   4.185  1.2469  0.9768 -1.2002
   8923SM  H20G12022   6.015   1.480   4.187  1.2046  2.0039 -0.0252
   8923SM  C21F12023   6.030   1.380   4.383  0.7099  0.3208 -1.1198
   8923SM  H21F12024   5.971   1.463   4.427 -0.4927 -1.1808  0.2043
   8923SM  H21G12025   6.116   1.384   4.453 -2.5030  1.1065  3.1979
   8923SM  C22F12026   5.954   1.254   4.407  0.2826 -0.0946  0.0454
   8923SM  H22F12027   5.855   1.257   4.356 -0.0788 -0.1543  0.7244
   8923SM  H22G12028   5.919   1.245   4.512  0.2259 -0.1926  0.0188
   8923SM  C23F12029   6.023   1.126   4.368  1.0529 -0.9087 -0.5716
   8923SM  H23F12030   5.963   1.033   4.384  1.2865 -1.2171 -1.4144
   8923SM  H23G12031   6.115   1.109   4.429  0.5940 -2.3454 -0.2358
   8923SM  H23H12032   6.062   1.125   4.264  2.4216 -1.4267 -0.0896
   9023SM     N12033   5.741   2.008   1.683 -0.5316 -0.3733 -0.1171
   9023SM   C1512034   5.736   2.119   1.581 -0.0097 -0.0750  0.5944
   9023SM  H15A12035   5.821   2.124   1.515 -1.1084  1.0959 -0.8011
   9023SM  H15B12036   5.736   2.215   1.630  0.2261 -0.4451  1.3346
   9023SM  H15C12037   5.641   2.113   1.530 -0.0430 -0.7084  0.7242
   9023SM   C1412038   5.709   1.884   1.611 -0.2246 -0.2099 -0.1606
   9023SM  H14A12039   5.704   1.806   1.685  2.4814 -1.0611 -0.7515
   9023SM  H14B12040   5.783   1.851   1.540  0.5735 -0.9060  0.9678
   9023SM  H14C12041   5.616   1.900   1.559 -0.0866  2.0399  0.1568
   9023SM   C1312042   5.880   2.012   1.733  0.3864  0.2135  0.0743
   9023SM  H13A12043   5.916   2.110   1.759  1.4670 -0.9135  3.3893
   9023SM  H13B12044   5.946   1.960   1.666  0.1293 -0.4529  0.3270
   9023SM  H13C12045   5.874   1.951   1.823 -0.9787 -1.4764 -1.0872
   9023SM   C1212046   5.652   2.042   1.795 -0.9496  0.3000 -0.8138
   9023SM  H12A12047   5.547   2.046   1.770 -0.8085  0.2894 -1.4324
   9023SM  H12B12048   5.679   2.127   1.854  2.2273 -1.7593  0.9971
   9023SM   C1112049   5.668   1.933   1.909  0.0762 -0.3440  0.1535
   9023SM  H11A12050   5.668   1.828   1.871 -2.1422 -0.5065  0.4668
   9023SM  H11B12051   5.576   1.928   1.970 -0.8829 -0.2180 -1.2392
   9023SM     P12052   5.788   2.082   2.094  0.2297 -0.0667 -0.2245
   9023SM   O1312053   5.922   2.087   2.164  0.3074  0.0576 -0.2540
   9023SM   O1412054   5.760   2.197   2.003  0.1933  0.3106  0.0027
   9023SM   O1112055   5.671   2.078   2.204 -0.1039 -0.0912  0.4434
   9023SM   O1212056   5.777   1.951   2.003  0.3792  0.5545 -0.0012
   9023SM   C1S12057   5.674   1.974   2.303 -0.1666  0.2260  0.5791
   9023SM   H1S12058   5.760   1.904   2.307 -0.3685  0.0073  1.1049
   9023SM   H1T12059   5.597   1.895   2.286 -0.0727 -0.1210  1.7213
   9023SM    NF12060   5.669   1.920   2.538  0.5291 -0.3042  0.4839
   9023SM   HNF12061   5.586   1.876   2.571  0.7177 -1.0213  0.0203
   9023SM   C2S12062   5.656   2.029   2.446 -0.6411  0.3129 -0.0042
   9023SM   H2S12063   5.738   2.104   2.453 -0.2782 -0.0169 -0.6015
   9023SM   C3S12064   5.524   2.109   2.458  0.1600 -1.0025 -0.0035
   9023SM   H3S12065   5.440   2.045   2.424  0.1555 -0.9809 -0.0333
   9023SM    O312066   5.513   2.228   2.371  0.0736 -0.3094 -0.1618
   9023SM   HO312067   5.584   2.223   2.306 -0.7055  1.9543 -1.2739
   9023SM   C4S12068   5.498   2.154   2.595  0.0345  0.0670  0.0810
   9023SM   H4S12069   5.423   2.086   2.639 -1.0003 -0.6401 -2.5725
   9023SM   C5S12070   5.552   2.256   2.662  0.4668 -0.4442  0.1107
   9023SM   H5S12071   5.628   2.318   2.612 -0.5767 -0.1254 -1.1514
   9023SM   C6S12072   5.517   2.298   2.804  0.0158 -0.0569  0.3225
   9023SM   H6S12073   5.544   2.405   2.812  1.0958 -0.3651  1.0676
   9023SM   H6T12074   5.589   2.256   2.877 -1.9245 -2.3476  1.0302
   9023SM   C7S12075   5.376   2.272   2.855 -0.2175  0.6835  0.1477
   9023SM   H7S12076   5.352   2.163   2.854 -0.8964  0.7978  1.5744
   9023SM   H7T12077   5.297   2.317   2.790 -0.4718 -0.0161 -0.0398
   9023SM   C8S12078   5.370   2.309   3.006  0.1258 -0.2969 -0.3633
   9023SM   H8S12079   5.449   2.257   3.065 -0.6308 -1.1456 -0.0621
   9023SM   H8T12080   5.266   2.283   3.036  0.1752  0.8334  0.8980
   9023SM   C9S12081   5.395   2.465   3.029  0.4825 -0.0198 -1.0699
   9023SM   H9S12082   5.327   2.520   2.962 -1.4932  0.8683  1.5146
   9023SM   H9T12083   5.497   2.485   2.990  0.4547 -0.1333 -1.2033
   9023SM  C10S12084   5.366   2.501   3.176  0.2729  0.5355  0.1228
   9023SM  H10S12085   5.462   2.479   3.227  0.6229 -2.6868 -1.6410
   9023SM  H10T12086   5.283   2.435   3.210 -0.0496  0.9778  0.2120
   9023SM  C11S12087   5.329   2.652   3.200 -0.0784 -0.2066  0.8926
   9023SM  H11S12088   5.223   2.671   3.171 -0.2016 -3.6448 -1.5800
   9023SM  H11T12089   5.394   2.720   3.141  1.9067 -3.0604 -0.4183
   9023SM  C12S12090   5.344   2.700   3.346  0.0984 -0.0244 -0.2991
   9023SM  H12S12091   5.455   2.707   3.353  0.2816  0.1500 -2.5857
   9023SM  H12T12092   5.310   2.626   3.421  0.7769 -0.2710 -0.2270
   9023SM  C13S12093   5.289   2.843   3.359 -0.5740  0.8602 -0.2400
   9023SM  H13S12094   5.226   2.853   3.268 -0.0149 -1.7359 -0.9960
   9023SM  H13T12095   5.364   2.923   3.339  0.0380  0.1830 -0.7281
   9023SM  C14S12096   5.235   2.859   3.497  0.1234 -0.5542 -0.2507
   9023SM  H14S12097   5.318   2.822   3.561 -0.0500 -1.1244 -0.3568
   9023SM  H14T12098   5.156   2.782   3.504 -1.5520  0.7172 -3.1875
   9023SM  C15S12099   5.170   2.995   3.518 -0.1185  0.5956  0.1051
   9023SM  H15S12100   5.113   3.029   3.429 -3.5960 -1.1664  1.4802
   9023SM  H15T12101   5.257   3.061   3.539 -1.2721  2.0829  0.3398
   9023SM  C16S12102   5.066   2.988   3.635 -0.6978  0.3820  0.1508
   9023SM  H16S12103   5.118   2.947   3.724  0.6371 -0.5618 -1.0117
   9023SM  H16T12104   4.987   2.925   3.590 -0.1213 -2.1754  2.4360
   9023SM  C17S12105   5.015   3.125   3.646 -0.1321  0.4131  0.5164
   9023SM  H17S12106   4.955   3.145   3.555 -0.0933  0.1897  0.4403
   9023SM  H17T12107   5.098   3.195   3.669  1.0861 -1.3376  1.7403
   9023SM  C18S12108   4.921   3.139   3.764  0.3340  0.2439  0.0921
   9023SM  H18S12109   4.831   3.074   3.758  0.5527 -0.1617  0.8952
   9023SM  H18T12110   4.889   3.245   3.758  0.2889  0.2610  0.5694
   9023SM  H18U12111   4.973   3.115   3.860  1.9681  1.2610 -0.5082
   9023SM   C1F12112   5.791   1.881   2.569  0.3554  0.3037 -0.0205
   9023SM    OF12113   5.895   1.926   2.523  0.2807  0.0638  0.5674
   9023SM   C2F12114   5.793   1.767   2.668 -0.3934  0.2921 -0.0752
   9023SM   H2F12115   5.865   1.689   2.633 -0.0988 -0.5492  2.2252
   9023SM   H2G12116   5.693   1.729   2.699  0.4529 -3.0829 -1.0811
   9023SM   C3F12117   5.855   1.819   2.799  0.4790  0.6032  0.0023
   9023SM   H3F12118   5.957   1.862   2.782  1.0330 -0.1646  1.2212
   9023SM   H3G12119   5.865   1.727   2.860  1.7048 -0.5190 -1.7699
   9023SM   C4F12120   5.765   1.920   2.871  1.0948  0.2927 -0.6128
   9023SM   H4F12121   5.664   1.880   2.850  1.5065 -1.4682  0.5639
   9023SM   H4G12122   5.791   2.020   2.830 -0.8656  1.3132  0.4688
   9023SM   C5F12123   5.786   1.932   3.020 -0.3612  0.1788  1.5601
   9023SM   H5F12124   5.880   1.982   3.052 -0.8515  1.4852  1.0385
   9023SM   H5G12125   5.788   1.828   3.058  0.2661 -0.3911  0.0273
   9023SM   C6F12126   5.674   2.008   3.102 -0.2036  0.0004  0.4349
   9023SM   H6F12127   5.571   1.977   3.072  0.0256  1.1549 -1.8050
   9023SM   H6G12128   5.687   2.115   3.076  0.3295 -0.3275 -0.7172
   9023SM   C7F12129   5.695   1.988   3.251 -0.2056 -0.1902 -0.5455
   9023SM   H7F12130   5.803   2.004   3.269  0.6139 -3.9864 -1.4330
   9023SM   H7G12131   5.683   1.880   3.272  2.3907 -0.5363 -0.5614
   9023SM   C8F12132   5.616   2.071   3.357 -0.1912  0.4774 -0.0773
   9023SM   H8F12133   5.509   2.046   3.342  0.2012 -0.9795 -0.6079
   9023SM   H8G12134   5.626   2.180   3.335  1.9070  0.6146  1.2520
   9023SM   C9F12135   5.672   2.054   3.505 -0.1982 -0.4141  0.4166
   9023SM   H9F12136   5.781   2.073   3.502 -0.0211 -1.3964  0.3387
   9023SM   H9G12137   5.675   1.947   3.531  2.2305 -0.5157 -0.1216
   9023SM  C10F12138   5.593   2.131   3.605 -0.3741  0.0856  0.2993
   9023SM  H10F12139   5.489   2.093   3.606 -0.3638  0.0602  0.4130
   9023SM  H10G12140   5.575   2.236   3.573  1.4232  0.7953  1.4593
   9023SM  C11F12141   5.657   2.122   3.747  0.2075 -0.2654 -0.1363
   9023SM  H11F12142   5.766   2.131   3.732  0.2723 -0.3161  0.2920
   9023SM  H11G12143   5.637   2.022   3.790  0.1345  0.2459  1.0413
   9023SM  C12F12144   5.600   2.233   3.833 -0.5133 -0.3934 -0.1728
   9023SM  H12F12145   5.495   2.215   3.863  0.2665 -0.0537  3.0669
   9023SM  H12G12146   5.591   2.337   3.795 -0.0406 -0.3053 -0.0480
   9023SM  C13F12147   5.665   2.237   3.965 -0.0654 -0.5755  0.7312
   9023SM  H13F12148   5.671   2.133   4.005  1.2786 -1.9400 -2.6213
   9023SM  H13G12149   5.592   2.294   4.027  0.4283  0.7699  0.1077
   9023SM  C14F12150   5.797   2.308   3.946  0.5586  0.2226  0.0609
   9023SM  H14F12151   5.783   2.389   3.871  0.6051  0.4021  0.2466
   9023SM  H14G12152   5.878   2.241   3.910  1.8852  0.9439  1.6175
   9023SM  C15F12153   5.830   2.367   4.080  0.1059  0.0856  0.6632
   9023SM  H15F12154   5.858   2.291   4.156  0.2651  0.5435  1.0731
   9023SM  H15G12155   5.741   2.419   4.122  1.0059  1.3912  1.0211
   9023SM  C16F12156   5.946   2.473   4.072 -0.6288 -0.2730 -0.1134
   9023SM  H16F12157   5.916   2.562   4.013 -1.7007 -2.0582 -2.4403
   9023SM  H16G12158   6.040   2.433   4.029  0.6004  1.7343  0.5779
   9023SM  C17F12159   5.992   2.524   4.213  0.1919 -0.8738  0.2625
   9023SM  H17F12160   6.036   2.441   4.273 -0.5271 -0.6569  1.1281
   9023SM  H17G12161   5.905   2.572   4.263 -0.3813 -0.6487 -0.9152
   9023SM  C18F12162   6.096   2.634   4.199 -0.1031  0.0255 -0.3722
   9023SM  H18F12163   6.159   2.610   4.111  2.5733 -1.2341  1.7258
   9023SM  H18G12164   6.161   2.625   4.289  1.1420  0.4887 -1.2010
   9023SM  C19F12165   6.053   2.780   4.194  0.2179 -0.3165  0.0656
   9023SM  H19F12166   6.041   2.816   4.298 -0.9634  0.1075 -0.1923
   9023SM  H19G12167   5.956   2.793   4.140  1.2520 -2.7024 -2.5899
   9023SM  C20F12168   6.161   2.874   4.121  0.7859  0.5374  0.0177
   9023SM  H20F12169   6.259   2.863   4.171  1.4978  1.7927 -1.0427
   9023SM  H20G12170   6.113   2.974   4.130 -0.5937  0.0371 -1.3776
   9023SM  C21F12171   6.194   2.849   3.966 -0.0641 -0.3533  0.0178
   9023SM  H21F12172   6.097   2.842   3.913 -0.1257  0.8542 -0.0672
   9023SM  H21G12173   6.250   2.754   3.953  1.3561  0.2650  1.2738
   9023SM  C22F12174   6.267   2.963   3.897  1.2238  0.4056 -0.4386
   9023SM  H22F12175   6.237   3.058   3.945  0.1234 -0.8050  1.4259
   9023SM  H22G12176   6.228   2.978   3.794 -2.4066  1.3170  0.9179
   9023SM  C23F12177   6.415   2.940   3.884 -0.9231  0.1929 -0.0855
   9023SM  H23F12178   6.449   3.038   3.845 -0.3601 -0.7970 -2.2542
   9023SM  H23G12179   6.447   2.864   3.810  3.2351 -0.9509  2.5666
   9023SM  H23H12180   6.460   2.914   3.982 -0.8033 -0.5770 -0.3423
   9123SM     N12181   0.096   5.075   2.021  0.1986  0.2316 -0.3195
   9123SM   C1512182  -0.007   5.001   2.101  0.0377 -0.0467 -0.0541
   9123SM  H15A12183  -0.102   5.051   2.087 -0.9838 -0.9587  3.0132
   9123SM  H15B12184   0.011   4.998   2.207  0.2334  2.0934  0.0201
   9123SM  H15C12185  -0.011   4.898   2.070 -0.0064 -0.3698  0.9943
   9123SM   C1412186   0.230   5.025   2.064 -0.3042 -1.2389 -0.1596
   9123SM  H14A12187   0.225   4.918   2.080 -0.7974 -1.4046 -1.3045
   9123SM  H14B12188   0.261   5.057   2.162 -0.9434  0.5851 -0.5089
   9123SM  H14C12189   0.304   5.052   1.990 -1.0781 -1.5948 -1.0984
   9123SM   C1312190   0.067   5.044   1.870  0.5796 -0.2477 -0.5290
   9123SM  H13A12191  -0.033   5.077   1.847 -0.9889 -3.5979  0.8767
   9123SM  H13B12192   0.068   4.937   1.859 -1.1662 -0.6578  2.2157
   9123SM  H13C12193   0.137   5.093   1.803 -0.4089  1.1743 -0.5709
   9123SM   C1212194   0.084   5.220   2.041 -0.2992 -0.5733 -0.5864
   9123SM  H12A12195   0.180   5.269   2.032  0.1861 -1.1495  1.1574
   9123SM  H12B12196   0.063   5.245   2.144 -2.4185  3.8607 -1.8279
   9123SM   C1112197  -0.029   5.300   1.966 -0.6310  0.0989  0.5424
   9123SM  H11A12198  -0.031   5.287   1.855  0.0878 -0.0060  0.5409
   9123SM  H11B12199  -0.002   5.403   1.996  2.3994 -1.2126  2.8490
   9123SM     P12200  -0.248   5.368   2.094 -0.1122  0.5699 -0.6265
   9123SM   O1312201  -0.177   5.416   2.219  0.1340  0.1322  0.0618
   9123SM   O1412202  -0.298   5.468   1.995  0.1839  0.6686 -0.1706
   9123SM   O1112203  -0.375   5.279   2.138 -0.0020  0.5378 -0.0864
   9123SM   O1212204  -0.157   5.263   2.017 -0.4822  0.5049 -0.6945
   9123SM   C1S12205  -0.364   5.157   2.214 -0.1007 -0.1152  0.6506
   9123SM   H1S12206  -0.272   5.102   2.184 -2.1988 -1.3504 -4.8674
   9123SM   H1T12207  -0.453   5.096   2.190  0.2059 -0.2750 -0.1155
   9123SM    NF12208  -0.339   5.051   2.437  0.0959 -0.4039  0.2608
   9123SM   HNF12209  -0.410   4.982   2.450  1.3037 -1.6218  0.6085
   9123SM   C2S12210  -0.372   5.174   2.370  0.5390  0.4516 -0.0041
   9123SM   H2S12211  -0.309   5.258   2.407  0.6579  0.9226 -1.2378
   9123SM   C3S12212  -0.518   5.220   2.402  0.1256  0.5839 -0.2530
   9123SM   H3S12213  -0.587   5.138   2.374  0.6033  0.2380 -0.4454
   9123SM    O312214  -0.568   5.329   2.330 -0.1937 -0.0773 -0.6259
   9123SM   HO312215  -0.496   5.343   2.268  0.6969  1.7367  0.7114
   9123SM   C4S12216  -0.534   5.232   2.545  0.7973 -0.1709 -0.4918
   9123SM   H4S12217  -0.469   5.306   2.595  0.1335  0.7082 -0.8902
   9123SM   C5S12218  -0.625   5.164   2.625  0.0162  0.8544 -0.1359
   9123SM   H5S12219  -0.675   5.083   2.570 -0.0764  1.0636 -0.3629
   9123SM   C6S12220  -0.645   5.161   2.774 -0.4827  0.1030  0.0171
   9123SM   H6S12221  -0.637   5.055   2.806  2.7423  0.3749  0.4165
   9123SM   H6T12222  -0.744   5.202   2.803 -0.4443  0.9767 -1.0026
   9123SM   C7S12223  -0.541   5.252   2.851 -0.5531  0.8399 -0.3491
   9123SM   H7S12224  -0.552   5.356   2.815 -3.2843  0.1761 -1.6926
   9123SM   H7T12225  -0.436   5.217   2.840 -1.2182 -1.3592 -0.2639
   9123SM   C8S12226  -0.575   5.256   2.996  0.3953  0.1596 -0.6855
   9123SM   H8S12227  -0.525   5.168   3.042  0.6409 -0.8133 -2.7247
   9123SM   H8T12228  -0.686   5.257   3.010  0.5065 -0.5577  0.4576
   9123SM   C9S12229  -0.508   5.378   3.064 -0.0893  0.8697 -0.2596
   9123SM   H9S12230  -0.403   5.370   3.029 -0.1956  1.8055 -0.8121
   9123SM   H9T12231  -0.501   5.363   3.174  0.0837 -2.3697 -0.6071
   9123SM  C10S12232  -0.579   5.504   3.028 -0.3707  0.1567  0.9842
   9123SM  H10S12233  -0.687   5.507   3.055  0.2431 -0.5691  3.7819
   9123SM  H10T12234  -0.572   5.526   2.919  1.2032 -2.1904  0.5363
   9123SM  C11S12235  -0.525   5.625   3.108  0.0126 -0.2686 -0.2356
   9123SM  H11S12236  -0.421   5.622   3.069  0.6699 -1.2758  1.4509
   9123SM  H11T12237  -0.518   5.603   3.217  0.8782  2.7239  0.3789
   9123SM  C12S12238  -0.591   5.763   3.089  0.1273  0.0488  0.3977
   9123SM  H12S12239  -0.696   5.739   3.113  0.4065  0.9846  2.8128
   9123SM  H12T12240  -0.581   5.795   2.983 -0.0293  0.3640  0.4752
   9123SM  C13S12241  -0.552   5.871   3.192 -0.1161 -0.4970 -0.2322
   9123SM  H13S12242  -0.443   5.884   3.201 -0.4344  2.5112  0.4854
   9123SM  H13T12243  -0.590   5.830   3.287 -0.0799 -1.5059 -0.6465
   9123SM  C14S12244  -0.606   6.012   3.157 -0.0821  0.7591  0.0019
   9123SM  H14S12245  -0.716   5.992   3.157  0.0207 -0.1583 -2.1605
   9123SM  H14T12246  -0.578   6.040   3.053 -0.0533  1.2552  0.1406
   9123SM  C15S12247  -0.544   6.112   3.255  0.0422  0.1377  0.1500
   9123SM  H15S12248  -0.581   6.208   3.214 -1.6557 -1.2297 -1.7428
   9123SM  H15T12249  -0.437   6.098   3.230 -0.1999 -1.0496 -0.2864
   9123SM  C16S12250  -0.597   6.095   3.400 -0.2537  0.0040  0.5190
   9123SM  H16S12251  -0.527   6.034   3.459  1.3058  1.4310  0.2245
   9123SM  H16T12252  -0.687   6.031   3.395  1.7334 -3.1773  2.5224
   9123SM  C17S12253  -0.629   6.227   3.468 -0.0440  0.8165  0.1545
   9123SM  H17S12254  -0.704   6.276   3.402 -0.7319  0.4955  0.6830
   9123SM  H17T12255  -0.539   6.291   3.484 -0.3733  1.1686  0.6427
   9123SM  C18S12256  -0.683   6.189   3.600 -0.8489  0.3311  0.1000
   9123SM  H18S12257  -0.602   6.137   3.655 -0.1085 -2.7844 -3.4784
   9123SM  H18T12258  -0.758   6.110   3.577 -0.9155  0.4019  0.0737
   9123SM  H18U12259  -0.736   6.273   3.649  0.7556  2.0056 -0.9127
   9123SM   C1F12260  -0.214   5.007   2.439  0.3137 -0.2389  0.3123
   9123SM    OF12261  -0.128   5.066   2.373  0.3234  0.2319 -0.2790
   9123SM   C2F12262  -0.185   4.905   2.552 -0.0324  0.4811  0.0612
   9123SM   H2F12263  -0.169   4.807   2.503 -2.3957  0.0878 -0.0577
   9123SM   H2G12264  -0.280   4.897   2.609 -0.3829 -0.2858 -0.6115
   9123SM   C3F12265  -0.059   4.950   2.629  0.6018  0.2573  0.2236
   9123SM   H3F12266   0.036   4.931   2.574  0.5306 -0.5493  0.3552
   9123SM   H3G12267  -0.053   4.892   2.724  0.0119 -2.6522 -1.3830
   9123SM   C4F12268  -0.049   5.104   2.662  0.5980 -0.2827  0.1983
   9123SM   H4F12269  -0.133   5.138   2.726  0.4092 -0.4049  0.0140
   9123SM   H4G12270  -0.061   5.178   2.580  0.7860 -0.8957 -0.3845
   9123SM   C5F12271   0.086   5.133   2.738  0.5865 -0.4541  0.7752
   9123SM   H5F12272   0.110   5.040   2.794  0.8598 -2.1940 -2.0056
   9123SM   H5G12273   0.067   5.216   2.809 -0.2881  1.3420 -1.4241
   9123SM   C6F12274   0.207   5.166   2.644 -0.3893  0.0611  0.6024
   9123SM   H6F12275   0.182   5.255   2.583 -2.0419 -0.6462  0.2136
   9123SM   H6G12276   0.219   5.076   2.580 -4.0965 -0.4246  0.3715
   9123SM   C7F12277   0.329   5.202   2.727  0.4468  0.3868  0.3208
   9123SM   H7F12278   0.364   5.110   2.779  1.7583 -0.1248 -1.3831
   9123SM   H7G12279   0.316   5.297   2.784 -0.5178  1.1114 -1.0666
   9123SM   C8F12280   0.444   5.234   2.635 -0.1560  0.5193 -0.4328
   9123SM   H8F12281   0.420   5.298   2.548  1.6002 -0.3490 -1.6109
   9123SM   H8G12282   0.491   5.144   2.591  1.3851  1.6496 -1.1893
   9123SM   C9F12283   0.563   5.306   2.713  0.4205  0.7285  0.0308
   9123SM   H9F12284   0.528   5.404   2.754 -0.7261  1.3598 -2.2765
   9123SM   H9G12285   0.633   5.304   2.626  0.3161  0.3859 -0.0437
   9123SM  C10F12286   0.630   5.206   2.812  0.7032  0.3363  0.0593
   9123SM  H10F12287   0.736   5.235   2.797  0.6206  0.0268 -1.2730
   9123SM  H10G12288   0.627   5.099   2.785  2.3950  0.1719  0.3822
   9123SM  C11F12289   0.592   5.220   2.960  0.0277 -0.3184 -0.2797
   9123SM  H11F12290   0.485   5.190   2.967  0.1753 -1.1219 -1.2106
   9123SM  H11G12291   0.615   5.324   2.989 -0.5380 -0.0201 -0.8759
   9123SM  C12F12292   0.669   5.118   3.049 -0.3005 -0.3882  0.7649
   9123SM  H12F12293   0.779   5.123   3.034 -0.7780  1.8248 -3.7627
   9123SM  H12G12294   0.647   5.013   3.020  1.5144 -0.8578  0.9376
   9123SM  C13F12295   0.626   5.139   3.192 -0.1099  0.1315 -0.0536
   9123SM  H13F12296   0.515   5.134   3.200 -0.0624  1.3883  3.5022
   9123SM  H13G12297   0.655   5.237   3.237 -2.0936  0.5706  0.3550
   9123SM  C14F12298   0.685   5.032   3.274  0.4457  0.4301 -0.1585
   9123SM  H14F12299   0.792   5.014   3.254  0.0916  0.7900 -2.6294
   9123SM  H14G12300   0.640   4.935   3.244  2.1382 -0.8057  1.1382
   9123SM  C15F12301   0.673   5.050   3.432  0.3900  0.1454 -0.2087
   9123SM  H15F12302   0.567   5.050   3.462  0.4506 -1.0953  0.0808
   9123SM  H15G12303   0.725   5.146   3.453 -0.9310  1.3742 -2.2341
   9123SM  C16F12304   0.736   4.946   3.517 -0.3734 -0.3012 -0.1967
   9123SM  H16F12305   0.843   4.930   3.489 -0.3447 -0.0891 -0.2096
   9123SM  H16G12306   0.699   4.842   3.503 -0.4338 -0.3097  0.0229
   9123SM  C17F12307   0.731   4.982   3.663 -0.5503  0.0715 -0.3750
   9123SM  H17F12308   0.798   5.070   3.676 -0.8323  0.3185 -0.5773
   9123SM  H17G12309   0.786   4.901   3.715  0.4643  1.1250  0.2390
   9123SM  C18F12310   0.591   4.998   3.725 -0.6664  0.1427 -0.0684
   9123SM  H18F12311   0.527   4.913   3.693 -0.9757  2.0141 -5.2891
   9123SM  H18G12312   0.555   5.099   3.695  1.8768  1.2890  0.4868
   9123SM  C19F12313   0.602   4.996   3.881  0.4600  0.1047  0.3633
   9123SM  H19F12314   0.653   5.090   3.913  1.7130 -0.4176 -0.0126
   9123SM  H19G12315   0.666   4.913   3.918 -0.0071  0.3433  1.7442
   9123SM  C20F12316   0.466   4.987   3.955 -0.0983 -0.6341  0.0513
   9123SM  H20F12317   0.383   5.007   3.884 -1.9348 -0.1615  2.2199
   9123SM  H20G12318   0.446   5.062   4.034 -0.9989 -2.0049  1.1818
   9123SM  C21F12319   0.441   4.848   4.020  0.2161 -0.0106 -0.3820
   9123SM  H21F12320   0.526   4.824   4.087  0.8541  0.8743 -0.8599
   9123SM  H21G12321   0.443   4.776   3.936 -1.4790 -1.5895  0.8501
   9123SM  C22F12322   0.305   4.847   4.092 -0.0417 -0.4176 -0.0013
   9123SM  H22F12323   0.293   4.943   4.148 -0.2904 -1.5724  2.0497
   9123SM  H22G12324   0.301   4.760   4.161  1.1346  1.5257  2.7062
   9123SM  C23F12325   0.189   4.830   3.988 -0.4845 -0.1738 -0.1359
   9123SM  H23F12326   0.203   4.757   3.905 -1.4910  0.5865 -1.0012
   9123SM  H23G12327   0.194   4.928   3.937  2.3546  0.6335  1.4910
   9123SM  H23H12328   0.091   4.808   4.037 -2.2181 -0.6734 -3.5361
   9223SM     N12329   5.918   0.946   1.645 -0.4318 -0.2240  0.0826
   9223SM   C1512330   5.795   0.935   1.558 -0.0609  0.3279 -0.1969
   9223SM  H15A12331   5.724   1.005   1.600  0.6757 -0.3019  2.2945
   9223SM  H15B12332   5.756   0.835   1.571  1.1455 -0.1302 -0.0521
   9223SM  H15C12333   5.815   0.959   1.455  1.7173  2.2892  0.5440
   9223SM   C1412334   6.006   0.830   1.613 -0.0967 -0.6790 -0.1513
   9223SM  H14A12335   6.019   0.825   1.506  0.2222 -0.9902 -0.1012
   9223SM  H14B12336   5.951   0.740   1.636 -3.3377  1.3206  0.5778
   9223SM  H14C12337   6.102   0.845   1.660 -0.6193 -0.4257  0.8725
   9223SM   C1312338   5.995   1.072   1.616 -0.1031  0.5360  0.2191
   9223SM  H13A12339   6.010   1.069   1.509  0.9429  1.0842  0.3426
   9223SM  H13B12340   6.090   1.080   1.665  0.3790 -0.4765 -0.5142
   9223SM  H13C12341   5.940   1.159   1.651  0.6040  0.5100  1.4212
   9223SM   C1212342   5.873   0.928   1.794 -0.4559  0.4289  0.6344
   9223SM  H12A12343   5.957   0.894   1.853 -0.3600 -1.5384 -0.5505
   9223SM  H12B12344   5.811   0.840   1.794  1.2952 -0.8886 -0.8469
   9223SM   C1112345   5.821   1.047   1.875  0.1067 -0.2325 -0.0715
   9223SM  H11A12346   5.896   1.129   1.873 -0.5913  0.4129 -0.6152
   9223SM  H11B12347   5.819   1.031   1.985 -0.3287 -0.9295 -0.1769
   9223SM     P12348   5.567   1.017   1.865 -0.5238  0.9242  0.8890
   9223SM   O1312349   5.453   1.080   1.793 -0.8884  0.1320  0.1968
   9223SM   O1412350   5.581   0.874   1.835  0.1900  0.1542 -0.0759
   9223SM   O1112351   5.561   1.032   2.019 -0.0298  0.0861 -0.0361
   9223SM   O1212352   5.697   1.095   1.819  0.3491 -0.4825 -0.3272
   9223SM   C1S12353   5.475   1.129   2.081  1.2788 -0.3516 -0.5732
   9223SM   H1S12354   5.370   1.105   2.056  1.5442  0.1692 -2.3373
   9223SM   H1T12355   5.498   1.233   2.051 -1.1850  0.5706  0.5078
   9223SM    NF12356   5.361   1.188   2.304  0.0280  0.2603 -0.6126
   9223SM   HNF12357   5.384   1.278   2.340  3.2254 -0.9760  0.8193
   9223SM   C2S12358   5.464   1.104   2.235 -0.0291  0.5408 -0.0252
   9223SM   H2S12359   5.439   0.996   2.243  1.5187  0.0936 -0.9253
   9223SM   C3S12360   5.613   1.118   2.298 -0.2808 -0.3718  0.2832
   9223SM   H3S12361   5.633   1.226   2.286 -0.0266 -0.3575  0.8301
   9223SM    O312362   5.709   1.044   2.230 -0.0804  0.5045  0.3467
   9223SM   HO312363   5.670   1.000   2.154  1.8439 -0.5689 -0.0706
   9223SM   C4S12364   5.620   1.090   2.446 -0.3663 -0.2906 -0.7808
   9223SM   H4S12365   5.589   1.176   2.507 -1.1620 -0.5943 -0.7434
   9223SM   C5S12366   5.673   0.978   2.515 -0.4473  0.7433 -0.3839
   9223SM   H5S12367   5.724   0.900   2.456 -1.0595  0.2623 -0.2829
   9223SM   C6S12368   5.690   0.983   2.666  0.0178 -0.4783 -0.0246
   9223SM   H6S12369   5.800   0.975   2.677  0.2204 -0.8256 -2.0526
   9223SM   H6T12370   5.638   0.890   2.698 -2.4125  0.7138 -0.2597
   9223SM   C7S12371   5.639   1.103   2.750 -0.0702  0.2645  0.0368
   9223SM   H7S12372   5.530   1.086   2.740 -0.0503 -0.4012  0.8528
   9223SM   H7T12373   5.659   1.205   2.713  1.1530 -0.3508 -1.0583
   9223SM   C8S12374   5.672   1.086   2.903 -0.1083  0.0527  0.4153
   9223SM   H8S12375   5.782   1.104   2.908 -0.3414  1.4309  0.9382
   9223SM   H8T12376   5.661   0.978   2.927  1.3162 -0.5671 -1.4194
   9223SM   C9S12377   5.593   1.177   2.998  0.3990 -0.6055  0.2890
   9223SM   H9S12378   5.488   1.140   2.995  1.5567 -4.2689 -0.5075
   9223SM   H9T12379   5.600   1.279   2.954 -1.0931 -0.6379 -0.0658
   9223SM  C10S12380   5.640   1.185   3.140 -0.0041  0.1042 -0.1255
   9223SM  H10S12381   5.732   1.246   3.148 -0.7786  1.2563  0.2147
   9223SM  H10T12382   5.661   1.080   3.168 -1.1334  0.5342  2.6639
   9223SM  C11S12383   5.543   1.255   3.233  0.1837  0.6719  0.4701
   9223SM  H11S12384   5.448   1.198   3.234  1.0077 -0.8380  2.9047
   9223SM  H11T12385   5.536   1.355   3.185  4.1468  1.2117  0.6789
   9223SM  C12S12386   5.594   1.288   3.376 -0.4208  1.1193 -0.0383
   9223SM  H12S12387   5.697   1.330   3.364  1.2963 -3.0563 -2.3146
   9223SM  H12T12388   5.600   1.194   3.435  1.7552  0.7683 -0.7075
   9223SM  C13S12389   5.501   1.381   3.458  0.3054 -0.7952  0.0615
   9223SM  H13S12390   5.532   1.364   3.564  0.5524 -0.4202  0.0488
   9223SM  H13T12391   5.394   1.351   3.455  0.2545 -0.8348  1.4356
   9223SM  C14S12392   5.519   1.531   3.415 -0.3373  0.3991 -0.6807
   9223SM  H14S12393   5.508   1.535   3.305  0.0860 -0.1745 -0.7542
   9223SM  H14T12394   5.627   1.553   3.433 -0.2604  0.2803 -0.9938
   9223SM  C15S12395   5.448   1.640   3.505 -0.1062 -0.3928 -0.6735
   9223SM  H15S12396   5.342   1.631   3.472  0.2953  1.7183 -2.8104
   9223SM  H15T12397   5.472   1.746   3.485 -3.1401  1.1787  2.7340
   9223SM  C16S12398   5.467   1.620   3.657 -0.3274  0.4620  0.6013
   9223SM  H16S12399   5.572   1.596   3.682 -0.3155 -1.2335 -0.7844
   9223SM  H16T12400   5.405   1.537   3.697 -0.7483  1.1332  1.3611
   9223SM  C17S12401   5.424   1.744   3.732  0.4805 -0.5380 -0.5311
   9223SM  H17S12402   5.463   1.834   3.679  1.0145 -0.6093 -0.2729
   9223SM  H17T12403   5.465   1.736   3.835 -1.2505 -1.0691  0.1419
   9223SM  C18S12404   5.274   1.762   3.751  0.3401 -0.4226 -0.0319
   9223SM  H18S12405   5.251   1.837   3.829  1.8443  0.2416 -0.2004
   9223SM  H18T12406   5.229   1.663   3.772  0.0937 -0.7101 -1.7320
   9223SM  H18U12407   5.228   1.787   3.653 -0.5011 -2.0434 -0.0965
   9223SM   C1F12408   5.231   1.155   2.306 -0.3578  0.3470  0.2725
   9223SM    OF12409   5.184   1.075   2.226 -0.4025 -0.1507  0.7925
   9223SM   C2F12410   5.147   1.215   2.416  0.0875  0.5423 -0.3976
   9223SM   H2F12411   5.074   1.140   2.454  1.0049 -0.5403 -0.7257
   9223SM   H2G12412   5.077   1.292   2.377 -0.9358  0.3188  0.9068
   9223SM   C3F12413   5.224   1.282   2.533 -0.0852 -0.4073  0.4923
   9223SM   H3F12414   5.272   1.377   2.502  1.6681 -0.8053  1.8115
   9223SM   H3G12415   5.303   1.216   2.575  0.9500  0.6172  0.1956
   9223SM   C4F12416   5.128   1.307   2.654  0.5753  0.4956 -0.1561
   9223SM   H4F12417   5.068   1.214   2.663 -0.1623  0.7849 -1.7961
   9223SM   H4G12418   5.049   1.382   2.633 -0.6871 -0.6844  0.2616
   9223SM   C5F12419   5.192   1.351   2.785 -0.5117 -0.4004 -0.1013
   9223SM   H5F12420   5.241   1.451   2.783  0.4357 -0.8713 -1.0375
   9223SM   H5G12421   5.278   1.284   2.802  0.3446  0.3159 -1.4169
   9223SM   C6F12422   5.085   1.350   2.895 -0.0272  0.2527 -0.4949
   9223SM   H6F12423   5.039   1.253   2.924  0.4227 -0.1655 -1.1347
   9223SM   H6G12424   5.001   1.417   2.868 -1.2485 -1.0182  0.0047
   9223SM   C7F12425   5.147   1.400   3.035  0.2796  0.4443  0.7044
   9223SM   H7F12426   5.189   1.501   3.016  0.8697 -0.1863 -1.7590
   9223SM   H7G12427   5.235   1.345   3.073  0.1699 -0.1447  0.1276
   9223SM   C8F12428   5.044   1.422   3.152  0.1766  0.0401  0.9216
   9223SM   H8F12429   5.012   1.319   3.180  2.4880 -1.2437 -0.7894
   9223SM   H8G12430   4.960   1.477   3.105  1.2297  0.7218 -0.2336
   9223SM   C9F12431   5.102   1.508   3.257 -0.8437  0.4325 -0.3233
   9223SM   H9F12432   5.130   1.597   3.198  1.5460 -0.9242 -1.3994
   9223SM   H9G12433   5.196   1.463   3.298  0.5623  2.8620 -0.7256
   9223SM  C10F12434   5.002   1.546   3.360 -0.6049  0.3688 -0.3925
   9223SM  H10F12435   4.904   1.571   3.314 -1.8953 -1.0454  1.4241
   9223SM  H10G12436   5.036   1.633   3.419  1.6145  0.3642 -1.5577
   9223SM  C11F12437   4.987   1.433   3.466  0.7879 -0.3950 -0.1000
   9223SM  H11F12438   4.975   1.334   3.417 -0.0335 -0.5295  0.3563
   9223SM  H11G12439   4.890   1.439   3.519  0.2995  2.7533 -1.0956
   9223SM  C12F12440   5.100   1.426   3.566  0.2734 -0.1424  0.0559
   9223SM  H12F12441   5.102   1.522   3.620 -0.6780  0.4683 -0.9560
   9223SM  H12G12442   5.192   1.438   3.504 -0.7692 -1.9927 -2.0292
   9223SM  C13F12443   5.101   1.291   3.642  0.0038  0.2762  0.3894
   9223SM  H13F12444   5.197   1.282   3.697 -0.4811  3.9491  2.1266
   9223SM  H13G12445   5.090   1.209   3.567 -1.4908 -2.9703  3.8654
   9223SM  C14F12446   4.979   1.275   3.741  0.2479  0.0399  0.4163
   9223SM  H14F12447   4.885   1.253   3.687  1.3489 -2.0581 -0.7908
   9223SM  H14G12448   4.973   1.373   3.793  1.8221 -0.7663  2.2368
   9223SM  C15F12449   5.001   1.161   3.839  0.3866  0.4768  0.3311
   9223SM  H15F12450   4.930   1.173   3.923 -0.1761  0.3894 -0.1202
   9223SM  H15G12451   5.101   1.176   3.884  1.5344 -0.2260 -1.8477
   9223SM  C16F12452   4.984   1.013   3.783 -0.0787  0.3304  0.4619
   9223SM  H16F12453   5.029   1.001   3.682 -1.7647  1.7552 -0.5026
   9223SM  H16G12454   4.875   1.003   3.763  0.1138 -0.5316 -0.2000
   9223SM  C17F12455   5.039   0.909   3.882  0.3279  0.5294  0.5331
   9223SM  H17F12456   5.014   0.931   3.988 -1.0153  0.7376  0.1955
   9223SM  H17G12457   5.149   0.901   3.877  0.1758 -2.0722 -0.3738
   9223SM  C18F12458   4.971   0.769   3.852 -0.4638 -0.7260  0.4455
   9223SM  H18F12459   4.948   0.747   3.745  3.2297 -1.6187 -0.3071
   9223SM  H18G12460   4.874   0.760   3.904 -0.1221 -0.9155  1.0593
   9223SM  C19F12461   5.060   0.653   3.908  0.2090 -0.0522 -0.4135
   9223SM  H19F12462   5.071   0.668   4.017 -2.2433 -0.4142 -0.0728
   9223SM  H19G12463   5.162   0.672   3.868 -0.0643 -0.1375 -1.1810
   9223SM  C20F12464   5.006   0.511   3.891  0.5985  0.0382  0.3063
   9223SM  H20F12465   4.976   0.497   3.785  0.5167  1.8225  0.0734
   9223SM  H20G12466   4.916   0.511   3.956 -0.8757  0.5243 -1.6471
   9223SM  C21F12467   5.104   0.405   3.930  0.3575 -0.6731 -0.6484
   9223SM  H21F12468   5.154   0.432   4.026  0.0658 -0.8040 -0.4565
   9223SM  H21G12469   5.187   0.409   3.857  0.1216 -0.3525 -0.9009
   9223SM  C22F12470   5.043   0.262   3.951  0.4089 -0.2711 -0.3535
   9223SM  H22F12471   4.946   0.272   4.005  2.0358  1.0446  2.5645
   9223SM  H22G12472   5.116   0.210   4.016  1.7377  2.1302  0.1986
   9223SM  C23F12473   5.026   0.184   3.824 -0.1858 -0.1252  0.5381
   9223SM  H23F12474   5.121   0.190   3.767  0.9843  0.3735  2.4424
   9223SM  H23G12475   4.938   0.213   3.763  0.9979 -0.6478 -1.5110
   9223SM  H23H12476   5.000   0.080   3.852 -1.0315 -0.1625 -0.3152
   9323SM     N12477   6.403   6.030   1.926  0.3017  0.2789 -0.4836
   9323SM   C1512478   6.343   5.958   1.806 -0.9068  0.2937  0.1914
   9323SM  H15A12479   6.237   5.980   1.800 -0.8346  1.3627  2.1054
   9323SM  H15B12480   6.355   5.852   1.825 -0.4908  0.3413  0.2079
   9323SM  H15C12481   6.398   5.987   1.718 -1.3743  2.5657  0.5654
   9323SM   C1412482   6.394   6.178   1.928 -0.8513  0.5512 -0.3421
   9323SM  H14A12483   6.299   6.223   1.904 -1.5433 -0.7575 -0.1754
   9323SM  H14B12484   6.455   6.227   1.854 -0.6618  1.1694  0.2062
   9323SM  H14C12485   6.429   6.213   2.024 -2.3547 -0.0318  0.4560
   9323SM   C1312486   6.337   5.970   2.043  0.5363 -0.1042 -0.2895
   9323SM  H13A12487   6.351   5.863   2.047  2.8567  0.1956  2.3032
   9323SM  H13B12488   6.233   5.998   2.052  0.7745  0.3663  1.4145
   9323SM  H13C12489   6.391   6.004   2.130  2.3344  1.0519 -1.7856
   9323SM   C1212490   6.551   5.992   1.942 -0.3183  0.0400 -0.6113
   9323SM  H12A12491   6.583   6.019   2.041  0.7605 -0.5570 -0.7806
   9323SM  H12B12492   6.610   6.047   1.871 -1.6807 -0.8868 -2.5918
   9323SM   C1112493   6.602   5.846   1.913 -0.5329 -0.4086  0.6350
   9323SM  H11A12494   6.711   5.838   1.933 -0.4524 -0.9104  0.0186
   9323SM  H11B12495   6.591   5.840   1.803 -1.0684  0.0060  0.6641
   9323SM     P12496   6.527   5.598   1.933 -0.1171 -0.2585  0.0939
   9323SM   O1312497   6.385   5.548   1.919 -1.2586 -0.3305 -0.1793
   9323SM   O1412498   6.620   5.588   1.822  0.2875  0.3217  0.2930
   9323SM   O1112499   6.592   5.527   2.058  0.3363 -0.0358  0.1381
   9323SM   O1212500   6.513   5.748   1.975 -0.1339 -0.2174 -0.0699
   9323SM   C1S12501   6.722   5.536   2.104 -0.2530  0.4769  0.1108
   9323SM   H1S12502   6.750   5.642   2.118 -2.0509  0.9769  0.1310
   9323SM   H1T12503   6.794   5.488   2.034 -1.6615  0.0588 -1.1239
   9323SM    NF12504   6.856   5.506   2.312 -0.5192 -0.0572  0.2448
   9323SM   HNF12505   6.932   5.442   2.308 -0.8693 -0.5122  0.7415
   9323SM   C2S12506   6.739   5.467   2.244 -0.3802  0.4986 -0.7365
   9323SM   H2S12507   6.653   5.506   2.303 -0.2568  1.5498 -1.2347
   9323SM   C3S12508   6.731   5.309   2.232  0.1545  0.0892  0.9681
   9323SM   H3S12509   6.835   5.282   2.206 -0.6509  0.7554 -3.8337
   9323SM    O312510   6.654   5.252   2.124 -0.5422 -0.5772 -0.1993
   9323SM   HO312511   6.604   5.324   2.085  1.3478  0.5738 -0.6553
   9323SM   C4S12512   6.689   5.246   2.369  0.1845 -0.4930  0.6692
   9323SM   H4S12513   6.587   5.280   2.393 -0.1139  0.4019 -1.6351
   9323SM   C5S12514   6.746   5.144   2.430  0.1680  0.6213 -0.7622
   9323SM   H5S12515   6.843   5.106   2.396 -0.0316 -1.0501  0.3999
   9323SM   C6S12516   6.696   5.085   2.553 -0.2998  0.7220  0.3144
   9323SM   H6S12517   6.759   5.001   2.590 -2.2864 -1.8089 -1.6424
   9323SM   H6T12518   6.601   5.038   2.520 -0.7053  0.4168  1.8553
   9323SM   C7S12519   6.666   5.180   2.661 -0.1049 -1.1495 -0.6891
   9323SM   H7S12520   6.589   5.256   2.636  0.2403 -0.5329  0.0651
   9323SM   H7T12521   6.750   5.250   2.679 -2.2377  1.7524 -1.2662
   9323SM   C8S12522   6.625   5.116   2.798 -0.7581 -0.2990  0.4114
   9323SM   H8S12523   6.707   5.045   2.822 -0.9796 -0.3013  1.2050
   9323SM   H8T12524   6.529   5.060   2.798  0.8284 -3.3156  2.8397
   9323SM   C9S12525   6.641   5.202   2.926 -0.9491 -0.3370  0.1810
   9323SM   H9S12526   6.589   5.300   2.918  0.2293  0.3681  0.8720
   9323SM   H9T12527   6.750   5.220   2.936 -0.0590 -3.0417 -2.9213
   9323SM  C10S12528   6.589   5.121   3.047 -0.7900  0.3545 -0.2404
   9323SM  H10S12529   6.631   5.019   3.034  0.1198  0.7235 -0.2024
   9323SM  H10T12530   6.481   5.095   3.044 -0.6431 -0.8179  2.1180
   9323SM  C11S12531   6.643   5.177   3.181  0.6004 -0.2723 -0.2783
   9323SM  H11S12532   6.753   5.192   3.188  0.4549  2.2119 -2.1498
   9323SM  H11T12533   6.614   5.105   3.261  0.8862 -0.4258 -0.3103
   9323SM  C12S12534   6.585   5.314   3.231 -0.4185 -0.2185 -0.5931
   9323SM  H12S12535   6.474   5.321   3.222 -0.8109 -3.3840  0.4974
   9323SM  H12T12536   6.639   5.389   3.170  1.0136 -1.7610 -1.2983
   9323SM  C13S12537   6.606   5.332   3.381  0.3686 -0.0281 -0.1593
   9323SM  H13S12538   6.572   5.240   3.433 -0.0292  1.1365  1.7571
   9323SM  H13T12539   6.524   5.398   3.418 -0.2672 -0.5662 -0.5827
   9323SM  C14S12540   6.750   5.364   3.410  0.6994  0.3249 -0.0041
   9323SM  H14S12541   6.794   5.447   3.350 -2.5794  0.8101 -2.0062
   9323SM  H14T12542   6.804   5.272   3.380  1.2602  0.8391 -0.6134
   9323SM  C15S12543   6.801   5.395   3.558 -0.0751 -0.0243 -0.7577
   9323SM  H15S12544   6.912   5.401   3.555 -0.0659  1.0388  0.7270
   9323SM  H15T12545   6.756   5.493   3.585  0.9747  0.6876 -1.4804
   9323SM  C16S12546   6.770   5.288   3.656  0.4884  0.0773 -0.1894
   9323SM  H16S12547   6.810   5.191   3.618 -5.6433 -2.0203 -2.4036
   9323SM  H16T12548   6.661   5.287   3.673  0.6356  1.9794  1.2261
   9323SM  C17S12549   6.836   5.315   3.795  0.0478  0.4570 -0.0770
   9323SM  H17S12550   6.777   5.394   3.846 -0.5362  1.2788 -1.9500
   9323SM  H17T12551   6.944   5.342   3.792  0.4231 -0.8915  0.3690
   9323SM  C18S12552   6.831   5.192   3.886 -0.2697  1.1315 -0.3693
   9323SM  H18S12553   6.762   5.110   3.856 -0.0168 -0.2752  2.5372
   9323SM  H18T12554   6.807   5.228   3.988 -2.5024  0.0982 -0.4671
   9323SM  H18U12555   6.933   5.148   3.883 -1.2413 -1.3450  0.1511
   9323SM   C1F12556   6.869   5.637   2.354 -0.4170 -0.1993  0.7780
   9323SM    OF12557   6.785   5.726   2.347  0.1721  0.1559  0.2227
   9323SM   C2F12558   7.010   5.675   2.395 -0.0254  0.2482 -0.1894
   9323SM   H2F12559   7.025   5.785   2.397 -0.0061  0.2396  0.2073
   9323SM   H2G12560   7.070   5.632   2.311 -0.9774  2.2636 -1.9883
   9323SM   C3F12561   7.039   5.621   2.532 -0.2698  0.3395 -0.2936
   9323SM   H3F12562   7.045   5.511   2.516  0.7374  0.7845 -3.6946
   9323SM   H3G12563   6.953   5.654   2.594 -2.5248 -0.0592 -2.9829
   9323SM   C4F12564   7.174   5.677   2.593 -0.3905  0.9818  0.5922
   9323SM   H4F12565   7.252   5.677   2.515 -0.3093 -0.5148  0.6416
   9323SM   H4G12566   7.210   5.609   2.673  0.8524 -0.0579 -0.8022
   9323SM   C5F12567   7.168   5.814   2.655  0.2981 -0.7152  0.3846
   9323SM   H5F12568   7.074   5.831   2.713  0.3692  0.5182  0.1552
   9323SM   H5G12569   7.164   5.884   2.569 -0.9157  0.8283  1.6245
   9323SM   C6F12570   7.289   5.859   2.734  0.2057 -0.2826 -0.4227
   9323SM   H6F12571   7.376   5.841   2.667  2.7608  1.2563  2.2702
   9323SM   H6G12572   7.303   5.781   2.812  2.1556  0.1870 -0.2717
   9323SM   C7F12573   7.270   5.994   2.794 -0.1730  0.5010  0.4241
   9323SM   H7F12574   7.177   5.992   2.855 -2.9020 -1.8502 -3.3458
   9323SM   H7G12575   7.263   6.081   2.725  1.6852  1.4848  1.4002
   9323SM   C8F12576   7.390   6.027   2.877 -0.1564  0.2367  0.1667
   9323SM   H8F12577   7.480   6.034   2.813  1.1141 -0.4547  1.7894
   9323SM   H8G12578   7.403   5.951   2.957  1.3283 -3.4698 -3.2723
   9323SM   C9F12579   7.373   6.166   2.937 -0.1446  0.1620  0.2218
   9323SM   H9F12580   7.293   6.161   3.014 -0.7091 -0.4360 -0.3845
   9323SM   H9G12581   7.347   6.241   2.859  0.1604  0.1638  0.1189
   9323SM  C10F12582   7.500   6.191   3.011  0.0680 -0.9731 -1.3419
   9323SM  H10F12583   7.591   6.203   2.949  1.0224  1.3369  0.3658
   9323SM  H10G12584   7.509   6.110   3.086  3.0430 -0.1115 -0.6365
   9323SM  C11F12585   7.492   6.328   3.086  0.2424  0.1448  0.2279
   9323SM  H11F12586   7.466   6.412   3.019  0.2375 -0.2941 -0.3216
   9323SM  H11G12587   7.596   6.332   3.126  0.6044  0.7849 -0.7584
   9323SM  C12F12588   7.398   6.330   3.215 -0.1404 -0.1449  0.2402
   9323SM  H12F12589   7.415   6.232   3.264 -1.0049  0.6044  2.0912
   9323SM  H12G12590   7.289   6.331   3.192 -0.0817 -1.0426 -0.1064
   9323SM  C13F12591   7.424   6.441   3.309  0.9544 -0.7052  0.2136
   9323SM  H13F12592   7.533   6.462   3.321  0.5901  2.1930 -0.5828
   9323SM  H13G12593   7.392   6.408   3.410  2.1493  0.8141  1.1460
   9323SM  C14F12594   7.350   6.566   3.267  0.8005 -0.5400 -1.1184
   9323SM  H14F12595   7.240   6.546   3.268  0.3845  1.5353 -0.8747
   9323SM  H14G12596   7.387   6.597   3.167  0.8325 -0.1151 -0.9755
   9323SM  C15F12597   7.373   6.675   3.369  0.5869 -0.6141  0.6327
   9323SM  H15F12598   7.480   6.675   3.398  0.7328  1.9462  0.2433
   9323SM  H15G12599   7.313   6.632   3.453  0.1511 -2.2300 -0.4360
   9323SM  C16F12600   7.324   6.816   3.329  0.1430  0.4438  0.2336
   9323SM  H16F12601   7.382   6.851   3.241 -2.2302  0.7673 -1.2769
   9323SM  H16G12602   7.331   6.888   3.412 -3.3208  1.4947 -0.2517
   9323SM  C17F12603   7.179   6.820   3.278 -0.1730 -0.3176 -0.1093
   9323SM  H17F12604   7.165   6.757   3.188  0.0748  2.4344 -2.2066
   9323SM  H17G12605   7.165   6.927   3.250  2.6547  0.0193 -0.5143
   9323SM  C18F12606   7.060   6.785   3.382  0.6801  0.1894  0.1466
   9323SM  H18F12607   7.086   6.688   3.430 -1.4133 -0.7367 -0.4587
   9323SM  H18G12608   6.961   6.778   3.331 -0.4284 -0.1823  2.2249
   9323SM  C19F12609   7.023   6.887   3.492 -0.5288 -0.1594 -0.5276
   9323SM  H19F12610   6.983   6.981   3.448  0.9610  0.4584 -0.6082
   9323SM  H19G12611   7.115   6.921   3.544 -0.6737 -0.2944 -0.1739
   9323SM  C20F12612   6.924   6.836   3.601 -0.6229 -0.1172  0.3316
   9323SM  H20F12613   6.981   6.755   3.650 -0.6264 -0.5640 -0.3958
   9323SM  H20G12614   6.832   6.799   3.552 -0.5049  1.0026 -0.8041
   9323SM  C21F12615   6.891   6.941   3.709 -0.5531  0.9246 -0.2067
   9323SM  H21F12616   6.982   7.002   3.724 -0.2382  0.8726 -1.7387
   9323SM  H21G12617   6.859   6.893   3.804 -1.8056  0.1592 -0.9832
   9323SM  C22F12618   6.783   7.046   3.669 -0.6089  0.1861  0.7135
   9323SM  H22F12619   6.697   6.990   3.628  1.3541 -1.8443 -0.8347
   9323SM  H22G12620   6.817   7.105   3.581  0.4748  0.5431  1.3409
   9323SM  C23F12621   6.749   7.143   3.778  0.0219  0.4424  0.4382
   9323SM  H23F12622   6.727   7.089   3.873 -1.0527  2.5745  1.4615
   9323SM  H23G12623   6.652   7.193   3.755 -0.0709  1.0771  2.0540
   9323SM  H23H12624   6.828   7.219   3.797  0.5706  0.3460 -1.2836
   9423SM     N12625   5.550   6.224   2.118  0.3725 -0.0405  0.4686
   9423SM   C1512626   5.462   6.114   2.053  0.0744 -0.0506 -0.2182
   9423SM  H15A12627   5.523   6.049   1.993  1.8645  3.1700 -2.2079
   9423SM  H15B12628   5.382   6.170   2.007  0.7052  0.7740 -0.3359
   9423SM  H15C12629   5.413   6.045   2.120  0.5149 -1.6718 -1.5178
   9423SM   C1412630   5.599   6.292   1.995  0.3132  0.0884 -0.1667
   9423SM  H14A12631   5.517   6.302   1.926 -1.1268 -1.5993  1.2260
   9423SM  H14B12632   5.671   6.231   1.943  0.8312  2.1234 -2.0168
   9423SM  H14C12633   5.640   6.392   2.006  1.2668 -0.1849 -1.0863
   9423SM   C1312634   5.466   6.328   2.188 -0.4882 -0.4580  0.1389
   9423SM  H13A12635   5.538   6.395   2.233 -0.7668  1.1057 -1.6498
   9423SM  H13B12636   5.417   6.280   2.272  1.3205 -0.2417  1.3848
   9423SM  H13C12637   5.403   6.378   2.117  1.1197 -1.5483 -2.1717
   9423SM   C1212638   5.665   6.163   2.197  0.0793  0.0640 -0.2005
   9423SM  H12A12639   5.719   6.094   2.134  1.1945  1.0618 -0.3850
   9423SM  H12B12640   5.632   6.112   2.286 -2.0207  0.1855 -0.8654
   9423SM   C1112641   5.775   6.265   2.239  0.2423 -0.1300  0.6940
   9423SM  H11A12642   5.815   6.306   2.144 -0.4708 -0.1641  0.3718
   9423SM  H11B12643   5.865   6.224   2.288  0.3386  0.3214  0.9027
   9423SM     P12644   5.671   6.325   2.474 -0.0248 -0.0855  0.0435
   9423SM   O1312645   5.550   6.390   2.527  0.0529 -0.3077 -0.4651
   9423SM   O1412646   5.675   6.179   2.488 -0.4101  0.1357 -0.3591
   9423SM   O1112647   5.793   6.375   2.559  0.2142 -0.0092 -0.1165
   9423SM   O1212648   5.709   6.366   2.319 -0.6549  0.0808  0.6790
   9423SM   C1S12649   5.863   6.503   2.536  0.3194 -0.1098 -0.8351
   9423SM   H1S12650   5.802   6.592   2.561  3.9300  1.9381  1.6263
   9423SM   H1T12651   5.901   6.508   2.432  4.4179 -0.3300  0.4402
   9423SM    NF12652   6.040   6.654   2.618  0.7790  0.1749  0.4355
   9423SM   HNF12653   6.127   6.659   2.570 -0.0367 -0.4901 -1.2070
   9423SM   C2S12654   5.988   6.517   2.618 -0.4752  0.0996  0.0699
   9423SM   H2S12655   5.970   6.481   2.722 -0.0626  0.8032  0.3912
   9423SM   C3S12656   6.093   6.407   2.563 -0.5557 -0.7156  0.6682
   9423SM   H3S12657   6.118   6.427   2.456 -0.2317 -2.4587  0.3936
   9423SM    O312658   6.039   6.277   2.556 -0.1511 -0.3198 -0.5589
   9423SM   HO312659   5.944   6.291   2.562  0.0166  0.1537  2.7604
   9423SM   C4S12660   6.217   6.410   2.646  0.4772  0.5295 -0.0080
   9423SM   H4S12661   6.278   6.500   2.634  1.0524  0.1161 -0.2350
   9423SM   C5S12662   6.273   6.315   2.729  0.5612 -0.1119  0.5922
   9423SM   H5S12663   6.232   6.213   2.729 -2.0091  0.7912 -1.7553
   9423SM   C6S12664   6.410   6.328   2.788 -0.6588  0.0065 -0.0673
   9423SM   H6S12665   6.487   6.273   2.731  0.4273  2.0368 -0.6580
   9423SM   H6T12666   6.407   6.285   2.891  2.3428  1.5259  0.7433
   9423SM   C7S12667   6.457   6.480   2.821 -0.5604  0.7245 -0.2492
   9423SM   H7S12668   6.437   6.542   2.732 -0.3868 -0.9120 -1.4764
   9423SM   H7T12669   6.567   6.472   2.834 -0.4296  2.4155 -0.1356
   9423SM   C8S12670   6.383   6.549   2.938  0.4433  0.4150 -0.2957
   9423SM   H8S12671   6.405   6.499   3.035  0.1221  3.4989  1.5362
   9423SM   H8T12672   6.275   6.540   2.914  0.7010 -0.3139 -1.2401
   9423SM   C9S12673   6.428   6.694   2.946  0.2176  0.2139 -0.6610
   9423SM   H9S12674   6.402   6.745   2.850  0.3316  1.6212  0.0290
   9423SM   H9T12675   6.536   6.716   2.955  0.6009 -1.1803 -1.6720
   9423SM  C10S12676   6.362   6.765   3.066 -0.3382  0.2190 -0.3079
   9423SM  H10S12677   6.362   6.873   3.038  0.4602  0.0974 -0.8199
   9423SM  H10T12678   6.427   6.754   3.155 -2.0801  1.2966  1.1823
   9423SM  C11S12679   6.217   6.726   3.095 -0.4447 -0.0044 -0.3976
   9423SM  H11S12680   6.215   6.621   3.133 -3.6053 -0.2697 -1.0314
   9423SM  H11T12681   6.153   6.735   3.005  1.9570  1.0165 -2.1083
   9423SM  C12S12682   6.149   6.801   3.209 -0.2165  0.0365  0.1660
   9423SM  H12S12683   6.154   6.911   3.198  0.8374 -0.1878 -2.3089
   9423SM  H12T12684   6.200   6.771   3.303 -0.5471  0.6519  0.5416
   9423SM  C13S12685   6.005   6.751   3.229 -0.2348  0.9168 -0.7046
   9423SM  H13S12686   6.009   6.645   3.262  2.3859  0.3920 -2.3671
   9423SM  H13T12687   5.946   6.748   3.135  0.3921  2.7467 -1.2068
   9423SM  C14S12688   5.923   6.818   3.340 -0.1955 -0.5885  0.0360
   9423SM  H14S12689   5.817   6.796   3.315 -0.8522  0.3580  1.8119
   9423SM  H14T12690   5.954   6.924   3.328  0.1849 -0.6851  0.1510
   9423SM  C15S12691   5.953   6.767   3.485 -0.0799  0.9598  0.1105
   9423SM  H15S12692   6.059   6.792   3.505  0.2720 -0.3505 -0.0788
   9423SM  H15T12693   5.952   6.657   3.495  1.9759  0.7206 -1.6227
   9423SM  C16S12694   5.849   6.815   3.587 -0.6564  0.2247 -0.1301
   9423SM  H16S12695   5.749   6.796   3.541 -2.0767 -1.9862  3.4228
   9423SM  H16T12696   5.874   6.921   3.609 -1.7218  0.9263 -2.0164
   9423SM  C17S12697   5.849   6.751   3.725  0.4387 -0.0537  0.2631
   9423SM  H17S12698   5.823   6.644   3.712  0.8520  0.0375 -1.4624
   9423SM  H17T12699   5.773   6.788   3.798  2.0769  1.0021  1.5315
   9423SM  C18S12700   5.985   6.756   3.798  0.1231 -0.1058  0.5880
   9423SM  H18S12701   5.982   6.733   3.907 -0.5235 -0.7976  0.4317
   9423SM  H18T12702   6.041   6.851   3.787  1.2526 -0.9118 -0.9580
   9423SM  H18U12703   6.044   6.667   3.766 -0.7473 -1.4660  2.5668
   9423SM   C1F12704   5.991   6.757   2.694 -0.0709 -0.2230 -0.0671
   9423SM    OF12705   5.885   6.757   2.753  0.3414 -0.3734 -0.3933
   9423SM   C2F12706   6.095   6.863   2.707  0.2824  0.8195  0.4695
   9423SM   H2F12707   6.116   6.902   2.605 -2.6182 -2.5438 -1.6021
   9423SM   H2G12708   6.190   6.810   2.732 -0.0649 -0.6833 -1.1802
   9423SM   C3F12709   6.071   6.977   2.804  0.5090 -0.0793 -0.2343
   9423SM   H3F12710   6.054   6.931   2.903 -0.0265  0.6806  0.0357
   9423SM   H3G12711   5.973   7.021   2.776  0.2194  0.1358  1.0933
   9423SM   C4F12712   6.187   7.077   2.812 -0.1263 -0.0767 -0.2874
   9423SM   H4F12713   6.210   7.102   2.706 -0.9848 -0.7380 -0.6373
   9423SM   H4G12714   6.276   7.029   2.857  0.9060  3.2636  1.6001
   9423SM   C5F12715   6.170   7.206   2.898  0.2873  0.6351  0.3321
   9423SM   H5F12716   6.269   7.234   2.938  1.2182  0.5877 -1.7971
   9423SM   H5G12717   6.122   7.180   2.994  2.0507 -1.2781  0.7609
   9423SM   C6F12718   6.103   7.313   2.815 -0.0761 -0.8532 -0.5205
   9423SM   H6F12719   6.008   7.275   2.772  0.6993 -4.0942  0.3745
   9423SM   H6G12720   6.166   7.354   2.734 -1.1506  0.7861 -0.5767
   9423SM   C7F12721   6.078   7.438   2.905 -0.6969 -0.1668  0.5868
   9423SM   H7F12722   6.165   7.506   2.894  0.5607 -1.8623 -0.3920
   9423SM   H7G12723   6.062   7.414   3.012 -0.6133 -1.3898  0.3400
   9423SM   C8F12724   5.954   7.507   2.859  0.1117  0.7074 -0.6887
   9423SM   H8F12725   5.871   7.434   2.874  0.9145  0.1247  1.1221
   9423SM   H8G12726   5.947   7.543   2.754  0.3091  1.0546 -0.5826
   9423SM   C9F12727   5.912   7.619   2.959 -0.3045 -0.5454  0.1100
   9423SM   H9F12728   6.007   7.675   2.971 -0.2380 -0.0837 -2.0812
   9423SM   H9G12729   5.894   7.584   3.063  0.5759 -0.3052  0.3491
   9423SM  C10F12730   5.797   7.706   2.917 -0.6281 -0.1393  0.0447
   9423SM  H10F12731   5.697   7.656   2.916 -0.4053 -0.6021 -0.6293
   9423SM  H10G12732   5.802   7.730   2.808  1.3385  1.8812  0.5294
   9423SM  C11F12733   5.795   7.835   3.002 -0.3047 -0.0641 -0.7789
   9423SM  H11F12734   5.747   7.912   2.938  2.8216  0.5793 -2.5352
   9423SM  H11G12735   5.898   7.869   3.022 -0.5503 -0.0098  0.5245
   9423SM  C12F12736   5.715   7.815   3.127  0.7851  0.2304  0.3798
   9423SM  H12F12737   5.750   7.720   3.174 -1.9002 -1.4989 -0.8691
   9423SM  H12G12738   5.608   7.801   3.102  1.1412  0.5744 -1.4610
   9423SM  C13F12739   5.725   7.927   3.227  0.0297 -0.1019 -1.0802
   9423SM  H13F12740   5.717   8.031   3.187 -0.1953  0.2819 -0.0867
   9423SM  H13G12741   5.827   7.925   3.272 -0.8563 -1.6231  1.0271
   9423SM  C14F12742   5.632   7.925   3.356  0.2604 -0.1702 -0.3584
   9423SM  H14F12743   5.665   7.841   3.421  2.8718  1.4589  0.5762
   9423SM  H14G12744   5.528   7.903   3.322 -0.8037  1.7941  1.4142
   9423SM  C15F12745   5.627   8.063   3.426 -1.1229 -0.1119 -0.4455
   9423SM  H15F12746   5.588   8.131   3.347  0.0137  1.1764  0.0616
   9423SM  H15G12747   5.732   8.089   3.452 -1.0005  0.4759 -1.4913
   9423SM  C16F12748   5.523   8.071   3.536  0.7718  0.3915 -0.4205
   9423SM  H16F12749   5.545   7.982   3.599  0.5106  0.3270 -0.4173
   9423SM  H16G12750   5.428   8.040   3.487  0.4697  0.6865 -0.0144
   9423SM  C17F12751   5.504   8.201   3.600 -0.1441  0.8382 -0.4618
   9423SM  H17F12752   5.414   8.211   3.664 -0.0763  1.6688 -0.4873
   9423SM  H17G12753   5.493   8.275   3.518 -2.5823  0.5043 -0.5055
   9423SM  C18F12754   5.616   8.228   3.709 -0.3292  0.0134  0.3982
   9423SM  H18F12755   5.713   8.211   3.658 -0.5136  1.5760 -0.5623
   9423SM  H18G12756   5.605   8.160   3.795 -0.2825  1.9337  2.0005
   9423SM  C19F12757   5.611   8.368   3.768 -0.3521  0.3339 -0.0354
   9423SM  H19F12758   5.506   8.388   3.797 -0.5271 -0.1203 -0.3423
   9423SM  H19G12759   5.631   8.432   3.680  0.6866  0.1756  0.0753
   9423SM  C20F12760   5.702   8.380   3.885  0.5674  0.3571  0.3464
   9423SM  H20F12761   5.707   8.287   3.946  1.6166  1.4966  2.0762
   9423SM  H20G12762   5.671   8.457   3.959  0.7576  1.3698 -0.5965
   9423SM  C21F12763   5.849   8.421   3.855  0.4311 -0.1939 -0.5297
   9423SM  H21F12764   5.864   8.528   3.827  1.5660  0.2522  1.6283
   9423SM  H21G12765   5.882   8.341   3.786 -1.0461 -1.1684 -0.1578
   9423SM  C22F12766   5.926   8.412   3.990 -0.3445  0.0709  0.7390
   9423SM  H22F12767   5.935   8.305   4.016  1.7413 -0.1910 -0.8438
   9423SM  H22G12768   5.871   8.468   4.069 -0.3426 -0.6258  1.2389
   9423SM  C23F12769   6.063   8.475   3.999 -0.2620 -0.4191 -0.1366
   9423SM  H23F12770   6.108   8.448   4.097  0.4657 -0.0860 -0.3753
   9423SM  H23G12771   6.052   8.584   3.978 -0.6168  0.0130  1.9754
   9423SM  H23H12772   6.128   8.433   3.920  0.2485 -0.4159  0.2718
   9523SM     N12773   1.760   1.013   2.844 -0.5825  0.1460  0.2749
   9523SM   C1512774   1.847   0.895   2.879  0.0332  0.1721 -0.0096
   9523SM  H15A12775   1.810   0.845   2.968  1.2243  1.4239  1.2359
   9523SM  H15B12776   1.950   0.918   2.897  0.5757 -0.2374 -2.2565
   9523SM  H15C12777   1.848   0.834   2.790  2.0747 -0.1176  0.1803
   9523SM   C1412778   1.834   1.100   2.747 -0.4539 -0.4027 -0.0411
   9523SM  H14A12779   1.934   1.119   2.783 -0.8286  0.7954  0.4325
   9523SM  H14B12780   1.784   1.195   2.733  1.3746  0.5690 -0.3295
   9523SM  H14C12781   1.849   1.056   2.650 -2.0634 -0.8822 -0.1060
   9523SM   C1312782   1.640   0.958   2.776 -0.5761 -0.8786  0.5604
   9523SM  H13A12783   1.594   0.896   2.852  0.5506 -0.9182  1.2355
   9523SM  H13B12784   1.672   0.902   2.690  0.8644  1.3469 -0.4586
   9523SM  H13C12785   1.577   1.036   2.736  0.2205 -0.3811  0.2504
   9523SM   C1212786   1.718   1.095   2.966  0.3353  0.3429 -0.2428
   9523SM  H12A12787   1.803   1.111   3.031  0.2517  1.5607 -0.4076
   9523SM  H12B12788   1.647   1.029   3.013  0.8714 -0.6689 -0.8161
   9523SM   C1112789   1.641   1.234   2.943  0.3001 -0.4942 -0.5147
   9523SM  H11A12790   1.593   1.271   3.036  3.5433 -0.1449  1.1755
   9523SM  H11B12791   1.566   1.219   2.863  1.1872  2.6495 -2.0885
   9523SM     P12792   1.839   1.393   2.988 -0.2115  0.1675 -0.0195
   9523SM   O1312793   1.961   1.329   2.930  0.1521  0.2832 -0.6285
   9523SM   O1412794   1.821   1.537   2.993  0.3638 -0.2160  0.5058
   9523SM   O1112795   1.808   1.336   3.131 -0.8447 -0.3026  0.1680
   9523SM   O1212796   1.731   1.333   2.894  0.2391 -0.4341 -0.1454
   9523SM   C1S12797   1.913   1.279   3.212 -0.0194  0.1776 -1.4317
   9523SM   H1S12798   2.002   1.346   3.214 -0.8840  1.3277 -0.5225
   9523SM   H1T12799   1.946   1.179   3.177 -0.6677 -0.7909  0.5824
   9523SM    NF12800   1.986   1.233   3.448  0.6496  0.1722 -1.1142
   9523SM   HNF12801   1.974   1.143   3.491  2.0717  0.5172  0.1005
   9523SM   C2S12802   1.872   1.270   3.366  0.5986 -0.2796 -0.3569
   9523SM   H2S12803   1.844   1.375   3.389  3.1181  0.3062  0.3846
   9523SM   C3S12804   1.747   1.173   3.380 -0.5258  1.2442  0.6147
   9523SM   H3S12805   1.791   1.074   3.352 -1.8173  0.7381  0.2982
   9523SM    O312806   1.640   1.190   3.291  0.0354  0.5911 -0.0481
   9523SM   HO312807   1.677   1.255   3.231  1.6956  0.5249  0.8456
   9523SM   C4S12808   1.711   1.175   3.521  0.4598  1.1562  0.3025
   9523SM   H4S12809   1.748   1.096   3.588 -0.7267 -0.4992 -0.9153
   9523SM   C5S12810   1.618   1.256   3.579 -0.3680  0.1152 -0.1738
   9523SM   H5S12811   1.576   1.335   3.516 -0.0427 -1.8384 -3.0488
   9523SM   C6S12812   1.568   1.246   3.721 -0.4833  0.0471  0.4643
   9523SM   H6S12813   1.634   1.312   3.783  0.1217  1.8900 -1.9976
   9523SM   H6T12814   1.564   1.140   3.754  1.2124 -0.1974 -0.0302
   9523SM   C7S12815   1.428   1.309   3.730 -0.2281 -0.3863  0.1364
   9523SM   H7S12816   1.361   1.243   3.670  3.2337 -2.6032 -1.6608
   9523SM   H7T12817   1.425   1.416   3.700 -0.6574 -0.3866  0.1765
   9523SM   C8S12818   1.368   1.305   3.869  0.7721 -0.8468 -0.0076
   9523SM   H8S12819   1.345   1.202   3.904 -1.0376 -0.6237 -0.4291
   9523SM   H8T12820   1.268   1.354   3.866  1.8761  1.5845 -3.1494
   9523SM   C9S12821   1.449   1.397   3.972  0.2532  0.0892 -0.6377
   9523SM   H9S12822   1.488   1.491   3.928 -1.0917  1.3069  0.6599
   9523SM   H9T12823   1.540   1.337   3.993  1.2104  1.1616 -1.5767
   9523SM  C10S12824   1.379   1.445   4.095 -0.0777 -0.2782 -0.5285
   9523SM  H10S12825   1.294   1.509   4.064  1.3338  1.8325 -0.2270
   9523SM  H10T12826   1.445   1.519   4.144 -0.0201 -0.1078 -0.8615
   9523SM  C11S12827   1.352   1.335   4.197  0.0582  1.3048  0.3878
   9523SM  H11S12828   1.450   1.290   4.222 -0.1713  0.8343  0.4567
   9523SM  H11T12829   1.281   1.260   4.155  0.8427  1.1233 -0.6314
   9523SM  C12S12830   1.275   1.376   4.323  0.0293  0.8047  0.0660
   9523SM  H12S12831   1.177   1.387   4.273  0.6082  0.0012 -1.2821
   9523SM  H12T12832   1.320   1.467   4.368  2.3123 -0.5521  0.7059
   9523SM  C13S12833   1.262   1.263   4.427  0.0306  0.2704  0.3462
   9523SM  H13S12834   1.357   1.248   4.482 -0.1081  0.0482  0.5240
   9523SM  H13T12835   1.236   1.170   4.373 -0.2619 -0.9425  2.4480
   9523SM  C14S12836   1.149   1.300   4.524 -0.0850  0.2301 -0.3973
   9523SM  H14S12837   1.062   1.323   4.459  0.1254  0.4095 -0.6185
   9523SM  H14T12838   1.183   1.395   4.572  0.6869  0.0927 -0.6687
   9523SM  C15S12839   1.101   1.197   4.620 -0.1583  0.1385 -0.8198
   9523SM  H15S12840   1.097   1.102   4.562 -0.9801 -1.5489  1.8662
   9523SM  H15T12841   0.998   1.213   4.658 -1.3619 -5.0378 -1.0896
   9523SM  C16S12842   1.208   1.179   4.736 -0.0094  0.2423 -0.1528
   9523SM  H16S12843   1.211   1.276   4.791  0.5104 -0.5624  1.2988
   9523SM  H16T12844   1.309   1.159   4.692 -0.4044  2.9163 -2.5922
   9523SM  C17S12845   1.185   1.058   4.827  1.5747 -0.5040 -0.1008
   9523SM  H17S12846   1.147   0.976   4.762  0.0457  0.4201 -0.4349
   9523SM  H17T12847   1.099   1.085   4.892  1.2185 -0.9568 -0.3682
   9523SM  C18S12848   1.300   1.016   4.917  0.5349 -0.7080 -0.2592
   9523SM  H18S12849   1.332   1.115   4.956  0.3175  0.0547 -1.9690
   9523SM  H18T12850   1.391   0.987   4.859  0.8894 -0.4210  0.1425
   9523SM  H18U12851   1.272   0.942   4.995  0.1247 -0.9210 -0.6093
   9523SM   C1F12852   2.097   1.299   3.455 -0.0522  0.3884  0.1401
   9523SM    OF12853   2.096   1.421   3.433  0.5580  0.2512  0.2590
   9523SM   C2F12854   2.225   1.231   3.505 -0.2580  0.2740  0.6625
   9523SM   H2F12855   2.251   1.161   3.422  2.3954  2.8464 -0.8446
   9523SM   H2G12856   2.195   1.186   3.602  0.8646  0.6136  1.1716
   9523SM   C3F12857   2.342   1.326   3.535  0.3988  0.3552  0.2238
   9523SM   H3F12858   2.302   1.392   3.615 -1.5648 -0.3422 -0.1375
   9523SM   H3G12859   2.358   1.393   3.448 -0.4371 -0.6765 -0.7490
   9523SM   C4F12860   2.481   1.282   3.583 -0.4198  0.1715 -0.0619
   9523SM   H4F12861   2.541   1.369   3.616 -0.2290 -0.2546  0.7555
   9523SM   H4G12862   2.535   1.250   3.491  0.2038  1.1124 -0.0384
   9523SM   C5F12863   2.490   1.179   3.699 -0.1328 -0.5468  0.0882
   9523SM   H5F12864   2.600   1.164   3.708 -0.2095 -0.0609  2.8064
   9523SM   H5G12865   2.460   1.079   3.661 -0.3000 -0.3932 -0.1811
   9523SM   C6F12866   2.415   1.223   3.830  0.4109  0.1739 -0.2387
   9523SM   H6F12867   2.305   1.215   3.815  0.5215  0.9916 -1.6200
   9523SM   H6G12868   2.442   1.329   3.847 -0.5241  0.9181 -2.9766
   9523SM   C7F12869   2.462   1.131   3.945  0.4047 -0.2674 -0.0583
   9523SM   H7F12870   2.570   1.104   3.937  0.3095 -0.6340 -0.1614
   9523SM   H7G12871   2.405   1.037   3.929 -1.1997  0.3651  1.6919
   9523SM   C8F12872   2.423   1.179   4.082 -0.4566 -0.4522  0.1818
   9523SM   H8F12873   2.487   1.266   4.109 -1.4220 -0.2672  2.0199
   9523SM   H8G12874   2.441   1.104   4.161  0.3278  0.5330  0.9646
   9523SM   C9F12875   2.277   1.226   4.091 -0.8717  0.3984  0.3854
   9523SM   H9F12876   2.222   1.145   4.038 -1.0051 -0.3800  1.6688
   9523SM   H9G12877   2.260   1.319   4.032 -2.7038  0.6003  1.1751
   9523SM  C10F12878   2.228   1.224   4.236 -0.7738 -0.1743  0.5273
   9523SM  H10F12879   2.287   1.291   4.302  0.1225 -0.9761  0.5646
   9523SM  H10G12880   2.243   1.120   4.270 -0.5822  0.1010  1.3136
   9523SM  C11F12881   2.083   1.262   4.270 -0.3145 -0.1594  0.0784
   9523SM  H11F12882   2.039   1.213   4.359 -0.3881  0.3369  0.3160
   9523SM  H11G12883   2.017   1.226   4.187  1.1670  0.2440 -1.3234
   9523SM  C12F12884   2.057   1.414   4.283 -0.1206 -0.1214 -0.3410
   9523SM  H12F12885   2.101   1.467   4.196  1.0532 -2.0299 -0.9537
   9523SM  H12G12886   2.111   1.443   4.376 -2.5121 -1.8201  1.7301
   9523SM  C13F12887   1.907   1.456   4.300 -0.1790  0.7644 -0.2112
   9523SM  H13F12888   1.857   1.395   4.378 -3.9457  2.3418 -1.1307
   9523SM  H13G12889   1.855   1.439   4.203  0.0627  0.6211 -0.3150
   9523SM  C14F12890   1.887   1.612   4.335 -0.6815 -0.0902 -0.2492
   9523SM  H14F12891   1.944   1.662   4.254 -1.0215 -0.4204 -0.7005
   9523SM  H14G12892   1.943   1.642   4.426 -1.6133  1.0221 -0.0129
   9523SM  C15F12893   1.738   1.652   4.354  0.0708 -0.4416  0.4618
   9523SM  H15F12894   1.685   1.613   4.265 -1.2382  0.4557  0.8142
   9523SM  H15G12895   1.724   1.763   4.354  2.2984 -0.1029 -1.0154
   9523SM  C16F12896   1.667   1.589   4.472  0.6116 -0.4384  0.0861
   9523SM  H16F12897   1.727   1.579   4.565  1.2229  0.5449 -0.1999
   9523SM  H16G12898   1.659   1.481   4.448 -0.6153 -0.5167  0.7675
   9523SM  C17F12899   1.525   1.632   4.511 -0.5099  0.4827  0.7985
   9523SM  H17F12900   1.475   1.546   4.560 -0.3215  0.3082  0.6810
   9523SM  H17G12901   1.459   1.657   4.425 -1.2486  0.4650  1.3436
   9523SM  C18F12902   1.510   1.757   4.600 -0.6843  0.5423 -0.4414
   9523SM  H18F12903   1.560   1.843   4.551  1.8265 -0.6605 -0.1314
   9523SM  H18G12904   1.561   1.734   4.696 -0.5514 -2.0717 -1.0491
   9523SM  C19F12905   1.357   1.787   4.610  0.2240  0.1783 -1.0122
   9523SM  H19F12906   1.314   1.697   4.659  0.2057  0.3014 -0.8031
   9523SM  H19G12907   1.319   1.793   4.505  1.5507  0.1211 -1.5204
   9523SM  C20F12908   1.329   1.917   4.683  1.5374  0.4733 -0.3563
   9523SM  H20F12909   1.395   1.998   4.645  0.3923  1.7785  0.3530
   9523SM  H20G12910   1.344   1.884   4.788  0.2519 -2.6113 -1.0185
   9523SM  C21F12911   1.175   1.964   4.659 -0.5281  0.5162 -0.0661
   9523SM  H21F12912   1.117   1.884   4.711  0.9226 -0.7197 -0.2633
   9523SM  H21G12913   1.156   1.968   4.549 -0.2171  1.5720 -0.0927
   9523SM  C22F12914   1.150   2.103   4.717 -0.0732 -0.2098 -0.0819
   9523SM  H22F12915   1.195   2.183   4.653  0.5827 -1.1419 -0.8138
   9523SM  H22G12916   1.208   2.113   4.811 -0.0623 -0.9748 -0.0079
   9523SM  C23F12917   1.006   2.134   4.755  0.6941 -0.1011 -0.0451
   9523SM  H23F12918   0.965   2.073   4.839  2.4673 -0.4761  0.5913
   9523SM  H23G12919   0.943   2.108   4.667  0.0356  0.1188  0.3562
   9523SM  H23H12920   0.990   2.241   4.779 -1.2524 -0.0653 -1.2579
   9623SM     N12921   3.292   1.038   2.683  0.6747  0.0850 -0.1318
   9623SM   C1512922   3.393   1.090   2.781 -0.5761 -0.1680  0.5827
   9623SM  H15A12923   3.418   1.195   2.769  0.1790 -0.4605 -0.4711
   9623SM  H15B12924   3.484   1.033   2.789  1.5430  2.8926  0.3481
   9623SM  H15C12925   3.359   1.072   2.882  2.2860 -1.9065  1.3440
   9623SM   C1412926   3.251   0.906   2.730 -1.1211 -0.0616  0.0117
   9623SM  H14A12927   3.181   0.859   2.662 -1.7406 -1.8667  1.7929
   9623SM  H14B12928   3.194   0.915   2.822 -0.0611  0.5177  0.6308
   9623SM  H14C12929   3.338   0.846   2.753 -0.1959  1.2979  0.1273
   9623SM   C1312930   3.174   1.126   2.700 -0.3853  0.0677 -0.5505
   9623SM  H13A12931   3.207   1.228   2.685 -0.6724  0.2234 -0.1421
   9623SM  H13B12932   3.144   1.124   2.803  0.5003 -1.7265 -0.2978
   9623SM  H13C12933   3.092   1.086   2.641 -0.8549  0.3104 -0.0766
   9623SM   C1212934   3.338   1.030   2.541  0.6047 -0.5552 -1.2962
   9623SM  H12A12935   3.347   1.132   2.507  0.1724 -0.2165 -0.4287
   9623SM  H12B12936   3.248   0.993   2.495 -1.6655  1.6672  1.0197
   9623SM   C1112937   3.465   0.952   2.511  0.4911  0.1453 -0.2351
   9623SM  H11A12938   3.549   0.982   2.578  1.0100  2.2483 -1.7540
   9623SM  H11B12939   3.504   0.984   2.413 -0.8995 -1.6278 -1.4331
   9623SM     P12940   3.540   0.698   2.480  0.1602 -0.0083 -0.2015
   9623SM   O1312941   3.463   0.573   2.489  0.2199 -0.1932 -0.0529
   9623SM   O1412942   3.600   0.719   2.350 -0.2098 -0.2129  0.1076
   9623SM   O1112943   3.643   0.703   2.601 -0.0548 -0.1269 -0.1650
   9623SM   O1212944   3.433   0.813   2.516 -0.2413  0.4435  0.1188
   9623SM   C1S12945   3.591   0.665   2.733 -0.5231  0.1341 -0.3618
   9623SM   H1S12946   3.580   0.556   2.716 -2.5476  0.5607 -2.2029
   9623SM   H1T12947   3.501   0.717   2.772  0.1502  1.4393 -0.4767
   9623SM    NF12948   3.711   0.578   2.935 -0.2862  0.5643 -0.1250
   9623SM   HNF12949   3.697   0.604   3.030  1.7114 -0.2200  0.4444
   9623SM   C2S12950   3.708   0.682   2.833 -0.2996 -0.3859 -0.0461
   9623SM   H2S12951   3.797   0.664   2.768 -0.8539  1.6524 -1.4667
   9623SM   C3S12952   3.708   0.830   2.875  0.1794  0.0107 -0.5808
   9623SM   H3S12953   3.628   0.841   2.952  1.1423  0.3525  0.3915
   9623SM    O312954   3.666   0.923   2.771  0.0501  0.0786 -0.2760
   9623SM   HO312955   3.633   0.866   2.701  0.9317 -0.4530 -0.2727
   9623SM   C4S12956   3.836   0.877   2.950 -0.2077  0.5500  0.3343
   9623SM   H4S12957   3.818   0.896   3.057 -1.2235 -0.8735  0.4608
   9623SM   C5S12958   3.959   0.906   2.900  0.4783 -0.2237 -0.1706
   9623SM   H5S12959   3.977   0.879   2.795 -0.8690 -0.2368 -0.4171
   9623SM   C6S12960   4.078   0.966   2.966 -0.5662 -0.9877  0.0080
   9623SM   H6S12961   4.086   1.064   2.914  0.7009 -1.3382 -0.4951
   9623SM   H6T12962   4.175   0.925   2.931  1.4206  2.3208  1.1511
   9623SM   C7S12963   4.089   0.980   3.117 -0.1727  0.3322 -0.2131
   9623SM   H7S12964   4.071   0.877   3.156  0.0578  0.4986  0.3386
   9623SM   H7T12965   4.011   1.044   3.163  0.2954  1.9141 -1.5016
   9623SM   C8S12966   4.224   1.031   3.172 -0.3455 -0.3556 -0.3368
   9623SM   H8S12967   4.236   1.139   3.149  2.0795 -0.7287 -1.2115
   9623SM   H8T12968   4.307   0.985   3.114 -0.9455 -0.4310 -1.1558
   9623SM   C9S12969   4.250   0.987   3.321 -0.7013 -0.6257 -0.1547
   9623SM   H9S12970   4.355   1.008   3.350 -1.1691  2.4750 -0.2685
   9623SM   H9T12971   4.236   0.877   3.325  0.6728 -0.7749  1.3102
   9623SM  C10S12972   4.152   1.039   3.426 -0.9123  0.1891  0.7314
   9623SM  H10S12973   4.200   1.005   3.520  1.4781 -0.5566 -0.6646
   9623SM  H10T12974   4.056   0.990   3.398 -0.6898  0.5729 -0.7797
   9623SM  C11S12975   4.132   1.191   3.433  0.1404  0.2202  0.1322
   9623SM  H11S12976   4.053   1.222   3.361  0.6219  0.8723 -0.1162
   9623SM  H11T12977   4.227   1.244   3.412 -0.5018  2.3848  2.2568
   9623SM  C12S12978   4.093   1.242   3.570  0.4385  0.0058 -0.3002
   9623SM  H12S12979   4.172   1.200   3.637 -0.2727  1.3810  1.5109
   9623SM  H12T12980   4.004   1.198   3.620  0.6282  0.1482  0.1780
   9623SM  C13S12981   4.104   1.395   3.575 -0.1843  0.0982 -0.3257
   9623SM  H13S12982   4.026   1.441   3.511  0.3761  0.0165 -1.0845
   9623SM  H13T12983   4.205   1.428   3.540 -0.1237  0.0893 -0.1574
   9623SM  C14S12984   4.072   1.447   3.721 -0.1840 -0.1480 -0.0470
   9623SM  H14S12985   3.984   1.389   3.757  0.6294 -3.6870 -3.0309
   9623SM  H14T12986   4.038   1.552   3.706  0.6340  0.0486 -0.6250
   9623SM  C15S12987   4.195   1.459   3.812  0.3931  0.0120 -0.1263
   9623SM  H15S12988   4.281   1.515   3.771  3.1705 -1.9001  2.6863
   9623SM  H15T12989   4.235   1.356   3.823 -0.9004 -0.3100  1.9519
   9623SM  C16S12990   4.173   1.520   3.954 -0.0318 -0.0406 -0.4824
   9623SM  H16S12991   4.070   1.487   3.982  0.1880  0.3737  0.8829
   9623SM  H16T12992   4.171   1.630   3.945 -0.3473  0.0475  0.5268
   9623SM  C17S12993   4.278   1.488   4.066  0.0950 -0.2472 -0.4055
   9623SM  H17S12994   4.372   1.526   4.019 -0.2945 -0.2062 -1.1697
   9623SM  H17T12995   4.287   1.380   4.091  0.7722  0.0442  0.6820
   9623SM  C18S12996   4.233   1.562   4.190  0.0848  0.0191 -0.2058
   9623SM  H18S12997   4.123   1.547   4.189  0.3277 -2.3440  1.6070
   9623SM  H18T12998   4.251   1.672   4.186 -0.3253  0.0762 -0.6211
   9623SM  H18U12999   4.271   1.521   4.286  2.1902  0.2454 -0.8941
   9623SM   C1F13000   3.706   0.445   2.909 -0.1143 -0.5977 -0.0802
   9623SM    OF13001   3.742   0.407   2.801 -0.0129 -0.5818 -0.0059
   9623SM   C2F13002   3.672   0.352   3.024 -0.1808  0.2654 -0.0043
   9623SM   H2F13003   3.563   0.334   3.033  0.0094 -0.8630  0.2094
   9623SM   H2G13004   3.708   0.400   3.117 -0.6428  0.1905  0.2163
   9623SM   C3F13005   3.739   0.210   3.005  0.3026  0.0886  0.4830
   9623SM   H3F13006   3.849   0.215   2.988  0.0713  1.5964 -0.8663
   9623SM   H3G13007   3.692   0.153   2.922  0.0933 -0.4849  0.9923
   9623SM   C4F13008   3.701   0.107   3.114 -0.1711  0.4433 -0.2261
   9623SM   H4F13009   3.727   0.007   3.074  0.6333 -0.0436  1.4310
   9623SM   H4G13010   3.590   0.107   3.116 -0.1893 -1.4055  0.8275
   9623SM   C5F13011   3.766   0.149   3.246  0.1352 -0.6058  0.1922
   9623SM   H5F13012   3.763   0.260   3.254  3.2721 -0.3744 -0.5150
   9623SM   H5G13013   3.874   0.127   3.232 -0.1295 -1.5172 -0.4883
   9623SM   C6F13014   3.714   0.075   3.366  0.2895  0.0852 -0.0175
   9623SM   H6F13015   3.718  -0.035   3.358  2.1413 -0.0035  1.4752
   9623SM   H6G13016   3.604   0.093   3.368  0.1943 -0.3530 -0.8742
   9623SM   C7F13017   3.774   0.123   3.494  0.2666 -0.0766  0.4649
   9623SM   H7F13018   3.713   0.080   3.577  0.8222 -3.0295 -0.5571
   9623SM   H7G13019   3.765   0.233   3.512 -2.3473 -0.2641  0.7192
   9623SM   C8F13020   3.921   0.084   3.508 -0.4311  0.0018 -0.4128
   9623SM   H8F13021   3.987   0.151   3.450  0.8813 -1.5090 -0.7394
   9623SM   H8G13022   3.937  -0.017   3.464 -2.0861 -1.5135  2.2021
   9623SM   C9F13023   3.978   0.087   3.652  0.1216  0.7775 -0.3384
   9623SM   H9F13024   4.084   0.055   3.644  1.2020  3.8498  0.5215
   9623SM   H9G13025   3.914   0.019   3.713 -3.2556  1.9503 -2.3011
   9623SM  C10F13026   3.975   0.219   3.728  0.4715 -0.7236  0.4646
   9623SM  H10F13027   3.879   0.218   3.784 -0.8940 -1.6651 -1.7334
   9623SM  H10G13028   3.977   0.305   3.659 -1.4511  2.2102  3.7499
   9623SM  C11F13029   4.091   0.226   3.822  0.2471 -0.0133  0.4701
   9623SM  H11F13030   4.075   0.318   3.881  1.9947  0.3200  0.4690
   9623SM  H11G13031   4.194   0.233   3.779  1.5310  0.8509  3.4397
   9623SM  C12F13032   4.098   0.124   3.935 -0.2035 -0.6873  0.6276
   9623SM  H12F13033   4.181   0.054   3.911  1.2653  1.0231  0.5202
   9623SM  H12G13034   3.995   0.084   3.948 -1.3222  1.7290 -0.2200
   9623SM  C13F13035   4.153   0.176   4.071  0.5013  0.0683 -1.3312
   9623SM  H13F13036   4.089   0.261   4.101 -0.0190 -0.2158 -1.6312
   9623SM  H13G13037   4.258   0.209   4.053  0.9336 -1.0541 -0.9514
   9623SM  C14F13038   4.169   0.068   4.188  0.1014 -0.4730  0.1119
   9623SM  H14F13039   4.262   0.011   4.173  0.3399  0.1762 -1.0398
   9623SM  H14G13040   4.079   0.003   4.190 -0.7986  0.7336  1.9604
   9623SM  C15F13041   4.170   0.124   4.331 -0.1916  0.2235  0.2233
   9623SM  H15F13042   4.173   0.044   4.408  1.5077 -0.1568 -0.1911
   9623SM  H15G13043   4.066   0.161   4.347 -0.4405 -0.4321  0.1611
   9623SM  C16F13044   4.274   0.235   4.357  0.3587  0.5552  0.4694
   9623SM  H16F13045   4.254   0.312   4.280 -1.5505 -1.2448 -0.9576
   9623SM  H16G13046   4.378   0.196   4.348 -0.3604 -1.3275 -0.0476
   9623SM  C17F13047   4.255   0.299   4.488 -0.1714 -0.4818 -0.6200
   9623SM  H17F13048   4.291   0.231   4.568 -4.0566 -1.0743  0.8714
   9623SM  H17G13049   4.148   0.323   4.508 -0.1192 -0.5660 -0.2253
   9623SM  C18F13050   4.325   0.435   4.502  0.0599  0.1291 -0.8420
   9623SM  H18F13051   4.427   0.415   4.462 -0.9958 -0.2636 -3.5139
   9623SM  H18G13052   4.335   0.467   4.608  0.9837 -0.3388 -0.7738
   9623SM  C19F13053   4.265   0.542   4.419  0.3448  0.6183  0.0068
   9623SM  H19F13054   4.156   0.535   4.438  0.4182 -4.3110 -0.0639
   9623SM  H19G13055   4.285   0.515   4.313 -2.2239  1.2376 -0.7016
   9623SM  C20F13056   4.322   0.685   4.431  0.3080 -0.7880  0.2570
   9623SM  H20F13057   4.429   0.694   4.401 -0.0143  1.1682 -0.4967
   9623SM  H20G13058   4.312   0.714   4.537  0.5475  0.1350  0.0418
   9623SM  C21F13059   4.248   0.788   4.335  0.3654 -0.0208  0.1564
   9623SM  H21F13060   4.249   0.755   4.228 -0.8282  1.6913 -0.4291
   9623SM  H21G13061   4.311   0.880   4.333  2.3091 -1.2940 -0.7196
   9623SM  C22F13062   4.098   0.813   4.370 -0.2290 -0.9142 -1.0735
   9623SM  H22F13063   4.099   0.867   4.468 -1.6208  0.3508 -1.7102
   9623SM  H22G13064   4.061   0.713   4.402  0.6003 -0.9094 -0.0185
   9623SM  C23F13065   4.008   0.878   4.268  0.1702 -0.4047  0.1100
   9623SM  H23F13066   4.064   0.920   4.182  0.4743  0.3530  0.6715
   9623SM  H23G13067   3.947   0.959   4.313  0.6337 -0.4346  0.8027
   9623SM  H23H13068   3.938   0.807   4.219 -1.0863  1.5552 -1.0447
   9723SM     N13069   5.185   7.244   2.336 -0.1403 -0.0019 -0.1588
   9723SM   C1513070   5.043   7.208   2.324  1.3399 -0.1005  0.2846
   9723SM  H15A13071   5.033   7.106   2.358  0.2744  0.6245  2.3543
   9723SM  H15B13072   5.005   7.229   2.226 -0.3415 -2.1183  0.4572
   9723SM  H15C13073   4.983   7.265   2.394  1.2309 -1.1201  1.0442
   9723SM   C1413074   5.240   7.205   2.467 -0.0401 -0.0114 -0.2107
   9723SM  H14A13075   5.337   7.252   2.468  0.9293 -1.9034 -0.2004
   9723SM  H14B13076   5.253   7.099   2.480  1.5721  0.3526  1.5620
   9723SM  H14C13077   5.182   7.247   2.547 -0.5302 -0.3764 -0.3696
   9723SM   C1313078   5.259   7.187   2.222  0.5938  0.8934  0.3770
   9723SM  H13A13079   5.365   7.205   2.233  0.3672  1.6583  1.4220
   9723SM  H13B13080   5.226   7.242   2.135  1.1384  0.9266  0.1857
   9723SM  H13C13081   5.229   7.085   2.204 -1.5074  1.5201  0.0412
   9723SM   C1213082   5.204   7.397   2.328  0.2867  0.0776 -0.4493
   9723SM  H12A13083   5.189   7.431   2.227 -0.7531 -0.8545 -0.6318
   9723SM  H12B13084   5.306   7.421   2.352 -0.0533 -0.6832  2.1045
   9723SM   C1113085   5.112   7.486   2.423  0.2362  0.3032  0.1476
   9723SM  H11A13086   5.170   7.581   2.420  0.2335  0.3000 -0.0065
   9723SM  H11B13087   5.117   7.457   2.530  0.2121  0.1551  0.1079
   9723SM     P13088   4.925   7.623   2.309 -0.3088 -0.0392  0.4560
   9723SM   O1313089   4.998   7.648   2.189  0.5328  0.3988 -0.0376
   9723SM   O1413090   4.779   7.622   2.300  0.2004 -0.5587  0.1781
   9723SM   O1113091   4.971   7.729   2.421  0.1284 -0.5374 -0.4119
   9723SM   O1213092   4.978   7.496   2.376 -0.6527  0.1890  0.1070
   9723SM   C1S13093   4.905   7.742   2.549  0.4984 -0.1002 -0.9538
   9723SM   H1S13094   4.846   7.652   2.577  0.0568  0.2605 -0.7216
   9723SM   H1T13095   4.836   7.826   2.529  1.8225  0.7015 -2.4100
   9723SM    NF13096   4.966   7.724   2.796  0.2070 -0.3829  0.6322
   9723SM   HNF13097   4.946   7.785   2.872 -1.5690 -0.9320  0.6601
   9723SM   C2S13098   5.009   7.774   2.664 -0.1986 -0.1382 -0.5398
   9723SM   H2S13099   5.098   7.713   2.638 -0.0059 -0.5579  0.9899
   9723SM   C3S13100   5.039   7.926   2.658  1.0529  0.2899 -0.0016
   9723SM   H3S13101   4.941   7.977   2.672  2.4320  3.1853 -0.1797
   9723SM    O313102   5.064   7.965   2.527 -0.4119 -0.3490 -0.0650
   9723SM   HO313103   5.049   7.887   2.472 -1.0579  0.1603 -0.6360
   9723SM   C4S13104   5.130   7.973   2.769 -0.5074  0.8997 -0.0141
   9723SM   H4S13105   5.074   7.999   2.860  1.5485  0.6603  1.3889
   9723SM   C5S13106   5.261   7.991   2.775  0.4063 -0.4891 -0.1743
   9723SM   H5S13107   5.330   7.977   2.690  2.3493 -0.1566  1.2787
   9723SM   C6S13108   5.341   8.037   2.888 -0.0749 -0.6531  0.3816
   9723SM   H6S13109   5.395   8.130   2.861 -1.9294 -0.4604 -3.2363
   9723SM   H6T13110   5.429   7.971   2.907  1.0123  1.1828  2.1504
   9723SM   C7S13111   5.258   8.052   3.015 -0.0073  0.0818 -0.2033
   9723SM   H7S13112   5.210   7.953   3.029 -1.7006  0.6802 -1.3960
   9723SM   H7T13113   5.181   8.132   3.010  0.6201  0.6941 -0.2204
   9723SM   C8S13114   5.342   8.078   3.134  0.2715 -0.8025 -0.2665
   9723SM   H8S13115   5.401   8.170   3.111 -0.1810 -0.3123  0.4864
   9723SM   H8T13116   5.412   7.995   3.159  0.3709  0.1676  3.1570
   9723SM   C9S13117   5.259   8.110   3.259 -0.0638 -0.1059 -0.3460
   9723SM   H9S13118   5.217   8.213   3.250 -0.3464 -0.2726 -1.0134
   9723SM   H9T13119   5.329   8.133   3.342  1.3510  0.4178 -1.6381
   9723SM  C10S13120   5.158   8.002   3.298  0.2240  0.5787  0.6643
   9723SM  H10S13121   5.206   7.903   3.280  1.8649  1.8467 -2.9560
   9723SM  H10T13122   5.084   7.997   3.215 -0.3312 -0.5733  1.2099
   9723SM  C11S13123   5.092   8.002   3.437 -0.0076 -0.0425  0.5825
   9723SM  H11S13124   5.038   8.098   3.451 -1.6029 -0.2483 -2.9120
   9723SM  H11T13125   5.170   7.993   3.514  1.7545  0.5272 -1.0657
   9723SM  C12S13126   4.993   7.879   3.460  0.2708  0.5127 -0.0143
   9723SM  H12S13127   4.956   7.869   3.564  0.9611 -0.1058  0.1806
   9723SM  H12T13128   5.048   7.783   3.452 -0.7134  0.0060 -0.9062
   9723SM  C13S13129   4.880   7.880   3.358 -0.1021  0.3324  0.2287
   9723SM  H13S13130   4.916   7.847   3.259 -0.5752  2.6672 -0.7933
   9723SM  H13T13131   4.844   7.984   3.345  1.1228  0.5766 -1.4508
   9723SM  C14S13132   4.752   7.811   3.413 -0.1759  0.3907  0.7552
   9723SM  H14S13133   4.741   7.849   3.516  2.8420 -1.3658  1.8699
   9723SM  H14T13134   4.766   7.701   3.416  1.0039  0.5452  1.9292
   9723SM  C15S13135   4.627   7.838   3.328  0.3410 -0.3633  0.4537
   9723SM  H15S13136   4.629   7.788   3.229  0.9505  0.0221  0.2600
   9723SM  H15T13137   4.633   7.948   3.309  1.2007 -0.2108  1.4547
   9723SM  C16S13138   4.500   7.811   3.401  0.0018  0.1119 -0.3052
   9723SM  H16S13139   4.415   7.845   3.338 -0.3447 -1.2617 -0.6041
   9723SM  H16T13140   4.508   7.880   3.487 -1.4522  0.5577 -0.4921
   9723SM  C17S13141   4.468   7.666   3.438 -0.5481  0.0746 -1.0704
   9723SM  H17S13142   4.553   7.650   3.508 -1.0073  1.1710 -0.2306
   9723SM  H17T13143   4.470   7.600   3.349 -0.7648 -0.5068 -0.6564
   9723SM  C18S13144   4.334   7.652   3.518  0.6999  0.6320 -0.1365
   9723SM  H18S13145   4.243   7.663   3.455  0.3833  1.1015  0.3913
   9723SM  H18T13146   4.325   7.739   3.587 -0.7613 -1.1717  2.0701
   9723SM  H18U13147   4.318   7.553   3.566 -0.2319 -0.9152 -3.3699
   9723SM   C1F13148   4.959   7.594   2.827  0.0846 -0.5222  0.5340
   9723SM    OF13149   4.963   7.506   2.743 -0.5872 -0.4064  0.0481
   9723SM   C2F13150   4.914   7.567   2.969  0.0486 -0.8027  0.4215
   9723SM   H2F13151   4.876   7.653   3.029 -4.2431 -1.0391 -1.5654
   9723SM   H2G13152   5.000   7.524   3.024  1.6615  0.6315 -0.8827
   9723SM   C3F13153   4.806   7.466   2.953 -0.3078 -0.0813  0.2182
   9723SM   H3F13154   4.830   7.376   2.893  1.0500  0.6239 -0.3322
   9723SM   H3G13155   4.719   7.514   2.902 -0.7339 -0.4499  0.5915
   9723SM   C4F13156   4.750   7.426   3.090 -0.7606  0.0698 -0.3137
   9723SM   H4F13157   4.651   7.380   3.073 -0.0100 -1.6556 -0.2495
   9723SM   H4G13158   4.743   7.525   3.141 -0.3124  0.1464 -0.3920
   9723SM   C5F13159   4.834   7.326   3.172 -0.3382  0.0679  0.4228
   9723SM   H5F13160   4.940   7.361   3.175 -1.0282  2.1878  1.4987
   9723SM   H5G13161   4.830   7.224   3.127  0.8968  1.0159 -2.0242
   9723SM   C6F13162   4.793   7.333   3.320  0.0636  0.1535  0.6603
   9723SM   H6F13163   4.830   7.431   3.357  0.7051 -0.1810  0.9252
   9723SM   H6G13164   4.844   7.247   3.369  2.1238 -0.0807 -1.7204
   9723SM   C7F13165   4.645   7.329   3.340  0.2272  0.0038 -0.3223
   9723SM   H7F13166   4.608   7.249   3.273 -2.9181 -0.4206  1.7584
   9723SM   H7G13167   4.588   7.420   3.314  3.0485  1.5157 -1.7607
   9723SM   C8F13168   4.611   7.307   3.492  0.7715 -0.1797  1.4272
   9723SM   H8F13169   4.645   7.393   3.553 -0.3524  1.8237 -0.6304
   9723SM   H8G13170   4.672   7.218   3.518  0.6292 -1.1119 -1.1696
   9723SM   C9F13171   4.467   7.272   3.533  0.6477 -0.0160 -0.4114
   9723SM   H9F13172   4.408   7.222   3.453  0.6734 -0.3077 -0.2496
   9723SM   H9G13173   4.417   7.369   3.551 -0.2739 -0.7553  1.2361
   9723SM  C10F13174   4.445   7.202   3.672 -0.1916  0.1131  0.2399
   9723SM  H10F13175   4.486   7.099   3.663 -1.9228 -0.5522 -0.3803
   9723SM  H10G13176   4.336   7.184   3.681 -0.1601  0.6447  2.1691
   9723SM  C11F13177   4.488   7.284   3.784 -0.1192 -0.7863 -0.2449
   9723SM  H11F13178   4.439   7.383   3.793 -2.8084 -1.7988 -2.2211
   9723SM  H11G13179   4.596   7.301   3.769 -0.3471  1.4653  0.3704
   9723SM  C12F13180   4.453   7.214   3.920  0.1076  0.9971  0.2069
   9723SM  H12F13181   4.488   7.108   3.915  1.8261  1.4462  1.6103
   9723SM  H12G13182   4.344   7.203   3.941 -0.0246  0.0921 -0.8668
   9723SM  C13F13183   4.525   7.278   4.041 -0.1115  0.1189  0.1787
   9723SM  H13F13184   4.500   7.386   4.043 -3.0588 -0.5035  0.4956
   9723SM  H13G13185   4.634   7.265   4.020 -0.1236  1.1595 -0.6617
   9723SM  C14F13186   4.496   7.212   4.175  0.7194 -0.4687 -0.2087
   9723SM  H14F13187   4.502   7.102   4.165  0.9194 -0.3855 -1.1400
   9723SM  H14G13188   4.390   7.226   4.204  1.3046  0.8552  1.4244
   9723SM  C15F13189   4.579   7.269   4.293  0.5976 -1.0953 -0.8663
   9723SM  H15F13190   4.681   7.298   4.260  0.7946 -0.4555  0.2636
   9723SM  H15G13191   4.586   7.193   4.374 -1.2732 -0.0111  0.3924
   9723SM  C16F13192   4.519   7.402   4.347 -0.2301 -0.1894 -0.2441
   9723SM  H16F13193   4.421   7.399   4.399  0.5737  0.8375  1.3901
   9723SM  H16G13194   4.504   7.462   4.254 -0.0658  0.4981  0.1646
   9723SM  C17F13195   4.621   7.487   4.431  0.0614  0.1773  0.0324
   9723SM  H17F13196   4.704   7.512   4.362 -1.8796  1.0912 -2.1181
   9723SM  H17G13197   4.644   7.423   4.519  0.8793 -0.3399 -0.5456
   9723SM  C18F13198   4.559   7.623   4.475 -0.6758 -0.1810 -0.3897
   9723SM  H18F13199   4.468   7.601   4.534  0.1402 -0.6530  0.7177
   9723SM  H18G13200   4.527   7.671   4.380 -0.8938  0.9156  0.2171
   9723SM  C19F13201   4.659   7.704   4.560 -0.2132  0.4716 -0.3363
   9723SM  H19F13202   4.753   7.718   4.503 -1.0892 -3.4698 -3.1911
   9723SM  H19G13203   4.683   7.652   4.655  0.6086  0.1431 -0.7114
   9723SM  C20F13204   4.599   7.844   4.591  0.3742 -0.4298 -1.3332
   9723SM  H20F13205   4.504   7.836   4.649  0.1534  2.2092 -1.2014
   9723SM  H20G13206   4.565   7.889   4.496 -1.0956 -0.5582 -0.8978
   9723SM  C21F13207   4.695   7.924   4.682  0.0840  0.0041 -0.1506
   9723SM  H21F13208   4.786   7.959   4.629 -0.8655  2.5261 -0.2508
   9723SM  H21G13209   4.718   7.874   4.778  0.3568  0.7289  0.1693
   9723SM  C22F13210   4.638   8.051   4.740  0.1550 -0.1080  0.2009
   9723SM  H22F13211   4.564   8.025   4.818  1.9160 -1.4112  1.5258
   9723SM  H22G13212   4.595   8.103   4.652  0.2620  0.1121  0.2793
   9723SM  C23F13213   4.741   8.144   4.811  0.1219 -0.2596  0.0186
   9723SM  H23F13214   4.841   8.144   4.762 -0.1889  0.3385 -0.6405
   9723SM  H23G13215   4.749   8.122   4.919 -0.3301  1.2438  0.3900
   9723SM  H23H13216   4.715   8.252   4.811 -1.2319 -0.5712 -0.2408
   9823SM     N13217   0.112   1.055   2.214 -0.9141  0.1026  0.1657
   9823SM   C1513218   0.072   0.974   2.095 -0.6725  0.0656  0.1719
   9823SM  H15A13219   0.068   1.042   2.011  0.1031 -0.2551 -0.1279
   9823SM  H15B13220  -0.029   0.935   2.096 -1.0654  0.9693 -1.1162
   9823SM  H15C13221   0.137   0.889   2.083  0.3041  0.7122  0.7676
   9823SM   C1413222   0.254   1.102   2.188  0.9331  0.1696  0.6511
   9823SM  H14A13223   0.321   1.022   2.165  1.3279  0.4513  0.8016
   9823SM  H14B13224   0.296   1.148   2.277  0.4357 -1.5942  1.8453
   9823SM  H14C13225   0.256   1.170   2.104 -0.1953 -2.7354 -1.8996
   9823SM   C1313226   0.021   1.180   2.230  0.2442  0.1655  0.0600
   9823SM  H13A13227  -0.075   1.138   2.255  1.8465 -2.4895  2.3331
   9823SM  H13B13228   0.009   1.236   2.139  0.0504 -0.0441 -0.0454
   9823SM  H13C13229   0.054   1.249   2.306  1.9636 -0.2786 -0.2470
   9823SM   C1213230   0.111   0.978   2.342  0.0913  0.0460 -0.2193
   9823SM  H12A13231   0.172   1.029   2.415  0.4607 -0.0867 -0.4327
   9823SM  H12B13232   0.162   0.884   2.330 -2.8011 -1.7138  0.2420
   9823SM   C1113233  -0.026   0.946   2.413 -0.1178  0.0177  0.6674
   9823SM  H11A13234  -0.067   1.041   2.455  0.4693  0.6729 -0.2277
   9823SM  H11B13235   0.013   0.899   2.506 -2.3820 -1.6919  0.8641
   9823SM     P13236  -0.270   0.857   2.375 -0.0407 -0.4139  0.0611
   9823SM   O1313237  -0.326   0.991   2.405 -0.2999  0.0799  1.0194
   9823SM   O1413238  -0.331   0.785   2.265 -0.5745  0.4222  0.4608
   9823SM   O1113239  -0.298   0.772   2.503  0.4944  0.1743  0.3451
   9823SM   O1213240  -0.115   0.864   2.342 -0.1037  0.2628 -0.3349
   9823SM   C1S13241  -0.239   0.789   2.627 -0.6011 -0.1383 -0.1150
   9823SM   H1S13242  -0.224   0.897   2.649 -1.7520  0.0627 -0.2661
   9823SM   H1T13243  -0.134   0.752   2.629  0.6717  2.7932 -3.0362
   9823SM    NF13244  -0.272   0.777   2.872  0.5965  0.0776 -0.9085
   9823SM   HNF13245  -0.226   0.709   2.928 -2.1115  1.1087  3.0442
   9823SM   C2S13246  -0.325   0.733   2.746  0.4706 -0.5276 -0.3216
   9823SM   H2S13247  -0.426   0.778   2.743  0.0732 -1.2734  1.1128
   9823SM   C3S13248  -0.343   0.581   2.737  0.1500  0.3227  0.4120
   9823SM   H3S13249  -0.243   0.536   2.753  0.6338  1.5533  1.0398
   9823SM    O313250  -0.384   0.546   2.606  0.0077 -0.3447  0.0583
   9823SM   HO313251  -0.374   0.622   2.548 -0.3514 -2.6691 -3.3134
   9823SM   C4S13252  -0.454   0.536   2.827 -0.2950  0.8735 -0.2593
   9823SM   H4S13253  -0.554   0.575   2.806  0.0610  2.0469  0.1231
   9823SM   C5S13254  -0.440   0.471   2.945  1.1378  0.9631 -0.4509
   9823SM   H5S13255  -0.341   0.448   2.985  0.8901  2.9190  1.4343
   9823SM   C6S13256  -0.568   0.447   3.027 -0.1216  0.1421 -0.2317
   9823SM   H6S13257  -0.616   0.347   3.016 -2.0260  0.0103  5.8544
   9823SM   H6T13258  -0.642   0.527   3.007  0.7647  1.3517  1.1698
   9823SM   C7S13259  -0.549   0.459   3.179 -0.1073 -0.0062  0.6267
   9823SM   H7S13260  -0.641   0.474   3.239  1.8609  1.1183  3.6154
   9823SM   H7T13261  -0.487   0.549   3.199  1.5760 -0.7461 -0.9247
   9823SM   C8S13262  -0.486   0.334   3.245  0.2015 -0.4030 -0.2076
   9823SM   H8S13263  -0.410   0.296   3.174  1.8062  0.2002  1.1237
   9823SM   H8T13264  -0.564   0.255   3.252 -0.5875  0.3065 -0.7822
   9823SM   C9S13265  -0.420   0.365   3.375  0.2395  0.0609  0.1695
   9823SM   H9S13266  -0.481   0.438   3.433  0.6463  0.3811  0.2006
   9823SM   H9T13267  -0.322   0.409   3.346  0.3118  0.2057  0.6223
   9823SM  C10S13268  -0.396   0.253   3.471  0.6271 -0.5474 -0.2200
   9823SM  H10S13269  -0.489   0.195   3.487 -0.5450  1.4594  0.5782
   9823SM  H10T13270  -0.360   0.296   3.567  2.3099  0.1196 -1.1064
   9823SM  C11S13271  -0.270   0.168   3.435  0.6236 -0.9062 -0.8167
   9823SM  H11S13272  -0.187   0.234   3.401 -0.6998  0.5969 -1.2217
   9823SM  H11T13273  -0.291   0.112   3.341  0.7167  0.6068 -1.7648
   9823SM  C12S13274  -0.233   0.072   3.544 -0.5531 -0.1220 -0.7820
   9823SM  H12S13275  -0.322   0.009   3.562 -0.9639  0.6170 -0.1448
   9823SM  H12T13276  -0.192   0.119   3.636  0.0097 -2.1112  0.0394
   9823SM  C13S13277  -0.118  -0.019   3.496 -0.4747  0.6078 -0.2507
   9823SM  H13S13278  -0.038   0.036   3.442 -0.1466 -1.3307 -1.8664
   9823SM  H13T13279  -0.160  -0.101   3.433 -1.3542  1.5482 -0.9156
   9823SM  C14S13280  -0.043  -0.078   3.618  0.1174 -0.3807 -0.2323
   9823SM  H14S13281  -0.012  -0.007   3.697  0.9563 -0.5285 -0.4227
   9823SM  H14T13282   0.046  -0.142   3.602 -0.6462 -1.9739  1.4509
   9823SM  C15S13283  -0.134  -0.180   3.698  0.2997 -0.3502 -0.8146
   9823SM  H15S13284  -0.149  -0.259   3.621 -1.6598 -1.0912  0.2867
   9823SM  H15T13285  -0.228  -0.133   3.733  0.8957  0.1549  0.1401
   9823SM  C16S13286  -0.082  -0.254   3.829  0.9559  0.7398  0.8148
   9823SM  H16S13287  -0.171  -0.310   3.864 -1.6076  3.9518 -0.1532
   9823SM  H16T13288  -0.062  -0.180   3.910 -0.7568  0.1795  1.7807
   9823SM  C17S13289   0.039  -0.351   3.798 -0.2363 -1.0872 -0.7874
   9823SM  H17S13290   0.121  -0.283   3.767 -1.4684  0.7250 -0.2559
   9823SM  H17T13291   0.007  -0.414   3.712 -0.5397 -0.7414 -0.9296
   9823SM  C18S13292   0.096  -0.436   3.902  0.6947  0.4968 -0.8811
   9823SM  H18S13293   0.147  -0.372   3.977 -2.7232  1.2325  1.0653
   9823SM  H18T13294   0.164  -0.514   3.861  0.1786 -0.0397 -0.7386
   9823SM  H18U13295   0.016  -0.491   3.958 -0.3590  0.7852 -2.0612
   9823SM   C1F13296  -0.277   0.901   2.922  0.3129 -0.6779 -0.1095
   9823SM    OF13297  -0.319   0.998   2.858  0.0744  0.2462  0.1463
   9823SM   C2F13298  -0.222   0.913   3.064  0.3924 -0.5544 -0.4762
   9823SM   H2F13299  -0.175   1.013   3.076  0.8016 -0.8031  0.0297
   9823SM   H2G13300  -0.136   0.847   3.086  2.9685  2.4756 -0.6982
   9823SM   C3F13301  -0.329   0.913   3.175 -0.2779  0.9715  0.6586
   9823SM   H3F13302  -0.410   0.838   3.172 -0.6313  1.3497 -2.3146
   9823SM   H3G13303  -0.382   1.010   3.183 -0.2416  0.8440  3.5396
   9823SM   C4F13304  -0.269   0.906   3.311  0.0777 -0.2720 -0.3676
   9823SM   H4F13305  -0.350   0.942   3.378  0.4956  0.1878 -0.1051
   9823SM   H4G13306  -0.181   0.972   3.322 -0.4415  0.4810 -0.6761
   9823SM   C5F13307  -0.231   0.767   3.362  0.1173 -0.0693 -0.1980
   9823SM   H5F13308  -0.178   0.707   3.285 -1.6687 -0.1903 -1.3888
   9823SM   H5G13309  -0.328   0.714   3.374  0.9521 -1.6007  0.0406
   9823SM   C6F13310  -0.155   0.770   3.498  0.0565 -0.3136  0.0290
   9823SM   H6F13311  -0.054   0.812   3.482  1.1744 -2.1776  1.7576
   9823SM   H6G13312  -0.130   0.666   3.527  1.0694 -0.6239 -1.8138
   9823SM   C7F13313  -0.229   0.849   3.610  0.1120 -0.4254 -0.0885
   9823SM   H7F13314  -0.329   0.805   3.629  0.2287  0.3768  3.0063
   9823SM   H7G13315  -0.239   0.949   3.562 -0.0526  0.4537  1.6909
   9823SM   C8F13316  -0.156   0.870   3.749 -0.3420  0.1273  0.2669
   9823SM   H8F13317  -0.199   0.961   3.795 -0.0584  0.4964 -0.1985
   9823SM   H8G13318  -0.054   0.899   3.718 -1.2053  2.8596 -0.2205
   9823SM   C9F13319  -0.148   0.750   3.847 -0.0940  0.2127  0.3913
   9823SM   H9F13320  -0.151   0.656   3.788 -3.8891  0.1147  0.4897
   9823SM   H9G13321  -0.237   0.738   3.914  0.4506 -1.7025  0.8370
   9823SM  C10F13322  -0.015   0.741   3.929 -0.0589 -0.9996 -0.1667
   9823SM  H10F13323   0.073   0.765   3.866  0.3872 -0.0773  0.7957
   9823SM  H10G13324   0.001   0.635   3.958  0.1168 -0.5680  1.3769
   9823SM  C11F13325  -0.016   0.839   4.054 -0.6090  0.3639  0.1724
   9823SM  H11F13326  -0.096   0.810   4.126  0.1659 -0.5306  0.6934
   9823SM  H11G13327  -0.038   0.945   4.031  0.3203  0.2702 -1.2691
   9823SM  C12F13328   0.114   0.832   4.130  0.1404  0.0376  0.2975
   9823SM  H12F13329   0.194   0.878   4.069  0.3363 -0.6969 -0.0064
   9823SM  H12G13330   0.151   0.730   4.151 -0.1491  0.3423  2.5564
   9823SM  C13F13331   0.123   0.927   4.260  0.3080 -0.3000  0.5989
   9823SM  H13F13332   0.197   0.881   4.329 -0.0030 -0.6764  0.6858
   9823SM  H13G13333   0.022   0.936   4.306 -0.4991 -0.7527 -1.0159
   9823SM  C14F13334   0.169   1.065   4.220 -0.2895  0.3699  0.1202
   9823SM  H14F13335   0.094   1.110   4.151 -0.3613 -0.7202 -0.5332
   9823SM  H14G13336   0.270   1.057   4.173  1.0700  1.0553  2.7566
   9823SM  C15F13337   0.180   1.172   4.335 -0.3532  0.7553 -0.5532
   9823SM  H15F13338   0.234   1.120   4.418 -0.7206  0.1869 -0.6657
   9823SM  H15G13339   0.078   1.185   4.379 -0.1226  3.3043 -0.6593
   9823SM  C16F13340   0.237   1.310   4.301  0.5468 -0.1339 -0.2117
   9823SM  H16F13341   0.174   1.358   4.223  2.4314  0.4509 -1.4533
   9823SM  H16G13342   0.333   1.307   4.246  0.3760  0.7308 -0.5893
   9823SM  C17F13343   0.242   1.397   4.429 -0.2799 -0.5223  0.5208
   9823SM  H17F13344   0.308   1.348   4.504  0.7511  1.7819  1.2210
   9823SM  H17G13345   0.137   1.403   4.465  0.3760 -0.3165  2.5026
   9823SM  C18F13346   0.302   1.532   4.387  0.2087 -0.0629 -0.0106
   9823SM  H18F13347   0.224   1.581   4.324  0.5823 -0.2764 -0.6398
   9823SM  H18G13348   0.391   1.520   4.323  0.0750  1.8334 -0.5989
   9823SM  C19F13349   0.331   1.626   4.500 -0.4378 -0.5850 -0.5593
   9823SM  H19F13350   0.395   1.569   4.571 -0.4894 -0.6534 -0.5671
   9823SM  H19G13351   0.236   1.650   4.553 -0.4561 -0.6733 -0.5519
   9823SM  C20F13352   0.401   1.757   4.460  0.4010 -0.3915 -0.3136
   9823SM  H20F13353   0.337   1.819   4.393 -0.7367 -0.7661  0.4040
   9823SM  H20G13354   0.477   1.732   4.383 -0.2977 -1.7100 -0.6014
   9823SM  C21F13355   0.465   1.835   4.571  0.3907  1.1536 -0.0396
   9823SM  H21F13356   0.536   1.761   4.614 -0.4936 -0.1260 -0.7240
   9823SM  H21G13357   0.389   1.859   4.649  0.1884 -2.5578  1.0617
   9823SM  C22F13358   0.535   1.955   4.520  0.0980 -0.2349 -0.0607
   9823SM  H22F13359   0.480   2.002   4.436  1.6940  1.2066 -0.3551
   9823SM  H22G13360   0.631   1.923   4.473  0.5434  0.7794  0.1475
   9823SM  C23F13361   0.559   2.066   4.626 -0.3656  0.4672 -0.3557
   9823SM  H23F13362   0.638   2.132   4.584 -1.5002  3.2088  1.5020
   9823SM  H23G13363   0.587   2.023   4.725 -0.1862  0.5335 -0.3770
   9823SM  H23H13364   0.465   2.121   4.644 -0.6156  0.3435 -1.2446
   9923SM     N13365   1.285   7.425   2.299  0.5067 -0.0798  0.0964
   9923SM   C1513366   1.250   7.572   2.273 -0.7058  0.1233  0.9471
   9923SM  H15A13367   1.298   7.626   2.353 -1.4073  0.9113  0.8569
   9923SM  H15B13368   1.144   7.592   2.283 -1.0421  0.5376 -2.3104
   9923SM  H15C13369   1.283   7.607   2.176 -0.4107  1.4736  1.5084
   9923SM   C1413370   1.170   7.346   2.243  0.2489  0.8654 -0.4199
   9923SM  H14A13371   1.148   7.367   2.139 -1.9398 -0.5442 -0.3067
   9923SM  H14B13372   1.080   7.370   2.297  0.7358  3.3446 -0.6073
   9923SM  H14C13373   1.179   7.239   2.255 -0.2014  1.0063  1.3820
   9923SM   C1313374   1.405   7.384   2.221  0.0190 -0.2402 -0.8016
   9923SM  H13A13375   1.451   7.286   2.234  1.4786  0.6983  2.0632
   9923SM  H13B13376   1.483   7.455   2.243 -0.7273  2.2613 -5.1857
   9923SM  H13C13377   1.385   7.402   2.117  1.8696  1.1335 -0.9697
   9923SM   C1213378   1.292   7.392   2.449 -0.4284 -0.0835 -0.2959
   9923SM  H12A13379   1.304   7.285   2.454 -0.7403 -0.0914  0.4830
   9923SM  H12B13380   1.200   7.423   2.497 -1.0679 -0.4287 -1.2844
   9923SM   C1113381   1.407   7.450   2.529 -0.4058 -0.8864  0.1432
   9923SM  H11A13382   1.505   7.422   2.484 -0.4435  0.6896 -1.0133
   9923SM  H11B13383   1.391   7.420   2.634 -0.7107  0.3201  0.4545
   9923SM     P13384   1.323   7.676   2.633 -0.3336 -0.3005  0.1359
   9923SM   O1313385   1.402   7.803   2.666 -0.6814 -0.2359 -0.0477
   9923SM   O1413386   1.183   7.702   2.588  0.0075  0.5747  0.6180
   9923SM   O1113387   1.309   7.584   2.759 -0.3263 -0.4207  0.3243
   9923SM   O1213388   1.405   7.596   2.523 -0.7416 -0.0946 -0.2255
   9923SM   C1S13389   1.264   7.638   2.880 -0.1121  0.6446 -0.9906
   9923SM   H1S13390   1.156   7.664   2.868 -0.4465  0.1152  0.6988
   9923SM   H1T13391   1.309   7.736   2.904  1.8263  0.1319 -2.3076
   9923SM    NF13392   1.198   7.571   3.110  0.6627  0.1909  0.0059
   9923SM   HNF13393   1.230   7.637   3.177  0.8383 -0.5445  0.6636
   9923SM   C2S13394   1.293   7.541   3.000  0.1919 -0.1478 -0.3212
   9923SM   H2S13395   1.263   7.437   2.976  1.1189 -0.5937  0.3840
   9923SM   C3S13396   1.444   7.545   3.031 -0.7120  0.4763 -0.4157
   9923SM   H3S13397   1.479   7.646   3.063  0.0524 -0.4890  1.9670
   9923SM    O313398   1.514   7.505   2.918 -0.2738 -0.3507 -0.3328
   9923SM   HO313399   1.452   7.516   2.845  2.4457  0.4219 -2.6748
   9923SM   C4S13400   1.489   7.456   3.155  0.7228 -0.1153  0.1350
   9923SM   H4S13401   1.506   7.352   3.122  1.9822  0.6298 -1.7651
   9923SM   C5S13402   1.535   7.502   3.278  0.8103  0.3225 -0.0050
   9923SM   H5S13403   1.536   7.610   3.296  0.4554  0.6077 -1.5423
   9923SM   C6S13404   1.591   7.414   3.384  0.1429 -0.8313  0.4546
   9923SM   H6S13405   1.510   7.396   3.459 -0.3182 -1.6651 -0.2217
   9923SM   H6T13406   1.676   7.471   3.428  1.4984 -1.6539 -0.9965
   9923SM   C7S13407   1.638   7.272   3.343 -0.1259 -0.2855 -0.1816
   9923SM   H7S13408   1.722   7.269   3.271  1.6804 -0.5466  1.8520
   9923SM   H7T13409   1.549   7.224   3.297 -0.3450  0.1544 -0.2226
   9923SM   C8S13410   1.680   7.190   3.471 -0.2336  0.5813  0.2255
   9923SM   H8S13411   1.774   7.237   3.507 -0.5782  1.2481  0.2764
   9923SM   H8T13412   1.722   7.091   3.442  2.4788  0.7814  3.0259
   9923SM   C9S13413   1.569   7.164   3.572 -0.0051  0.1418  0.6003
   9923SM   H9S13414   1.483   7.111   3.526  0.6368 -0.0716 -0.3877
   9923SM   H9T13415   1.527   7.259   3.611 -2.2946 -0.0842 -1.0986
   9923SM  C10S13416   1.609   7.074   3.688 -0.0094  0.5412  0.3890
   9923SM  H10S13417   1.706   7.105   3.731  0.2745 -0.7713  0.7294
   9923SM  H10T13418   1.635   6.979   3.636  1.7859  0.2393  1.7425
   9923SM  C11S13419   1.513   7.048   3.803 -0.0141 -0.0222 -0.1008
   9923SM  H11S13420   1.423   6.995   3.767 -0.2276  0.1075  0.2406
   9923SM  H11T13421   1.477   7.141   3.852  1.3689  0.0125  0.9209
   9923SM  C12S13422   1.579   6.961   3.918  0.2042  0.5032 -0.1370
   9923SM  H12S13423   1.682   6.999   3.935 -0.5726  2.0938  1.3452
   9923SM  H12T13424   1.591   6.855   3.889 -1.0549  0.5766 -0.9994
   9923SM  C13S13425   1.492   6.968   4.045  0.6653 -0.3932 -0.8024
   9923SM  H13S13426   1.479   6.867   4.090  0.3751  0.0915  0.2265
   9923SM  H13T13427   1.389   6.999   4.014  0.1692 -1.2190 -0.0471
   9923SM  C14S13428   1.534   7.073   4.142 -0.3650 -0.1660 -0.7844
   9923SM  H14S13429   1.451   7.088   4.214  1.8215 -3.4843  2.8728
   9923SM  H14T13430   1.565   7.165   4.089 -0.4270 -0.6829 -1.7458
   9923SM  C15S13431   1.657   7.032   4.229  0.2386  0.2079  0.0344
   9923SM  H15S13432   1.749   7.056   4.171 -1.4738  2.6509 -1.8608
   9923SM  H15T13433   1.637   6.924   4.245 -0.1708  0.7278  4.1872
   9923SM  C16S13434   1.652   7.083   4.377  0.3103  0.2385 -0.2613
   9923SM  H16S13435   1.557   7.042   4.416 -0.8303 -0.0716 -3.0643
   9923SM  H16T13436   1.649   7.194   4.372 -0.5248  0.3506  2.0411
   9923SM  C17S13437   1.787   7.045   4.448  0.4365  0.0773 -0.0749
   9923SM  H17S13438   1.865   7.060   4.371  0.4350  0.8422  0.0660
   9923SM  H17T13439   1.797   6.937   4.471 -3.0879 -0.1692  0.8912
   9923SM  C18S13440   1.818   7.130   4.568  0.0430 -0.7218 -0.3470
   9923SM  H18S13441   1.835   7.238   4.553  2.4686 -0.8593  0.9226
   9923SM  H18T13442   1.911   7.099   4.620 -0.0258  2.1776  1.7207
   9923SM  H18U13443   1.728   7.129   4.634 -1.5317  1.5729 -2.3281
   9923SM   C1F13444   1.072   7.531   3.118  0.2722  0.6183 -0.6090
   9923SM    OF13445   1.030   7.467   3.023  0.2478 -0.0992 -0.4515
   9923SM   C2F13446   0.990   7.568   3.245 -0.2898 -1.0735 -0.7702
   9923SM   H2F13447   1.045   7.542   3.338  1.4649 -0.0111 -1.4765
   9923SM   H2G13448   0.904   7.498   3.243 -0.0701 -1.3370 -1.0614
   9923SM   C3F13449   0.939   7.711   3.237  0.6807 -0.4911  0.3658
   9923SM   H3F13450   0.909   7.735   3.133  0.6034 -2.3081 -0.0635
   9923SM   H3G13451   1.021   7.780   3.266  0.3442 -0.8086  2.1939
   9923SM   C4F13452   0.823   7.727   3.348 -0.5654 -0.3510  0.4495
   9923SM   H4F13453   0.746   7.652   3.321  0.4518 -1.8324  1.5347
   9923SM   H4G13454   0.778   7.828   3.336  0.8383  0.1272 -1.4676
   9923SM   C5F13455   0.872   7.705   3.495  0.0349  0.3032  0.2055
   9923SM   H5F13456   0.981   7.689   3.491 -0.0025  0.2991 -0.9231
   9923SM   H5G13457   0.828   7.616   3.545  1.6430  0.4200  1.9556
   9923SM   C6F13458   0.856   7.835   3.581  0.0834  0.2308 -1.0090
   9923SM   H6F13459   0.747   7.856   3.581 -0.0467 -0.2320 -2.9114
   9923SM   H6G13460   0.895   7.921   3.523 -1.3999  1.7828  0.1850
   9923SM   C7F13461   0.919   7.833   3.725  0.3697 -0.1181  0.1457
   9923SM   H7F13462   0.916   7.932   3.775  1.2475 -0.2665  0.5133
   9923SM   H7G13463   1.021   7.791   3.730  1.4775  2.2795 -0.8037
   9923SM   C8F13464   0.843   7.736   3.821 -0.0600  0.9035 -0.1790
   9923SM   H8F13465   0.866   7.635   3.779 -0.8240  1.3312 -1.7379
   9923SM   H8G13466   0.733   7.747   3.807 -0.4245 -1.5967  0.1499
   9923SM   C9F13467   0.884   7.739   3.970  0.1393  0.0631  0.3067
   9923SM   H9F13468   0.906   7.845   3.999 -1.2570  0.2957  0.6010
   9923SM   H9G13469   0.978   7.682   3.984  0.2437  0.1410 -0.0820
   9923SM  C10F13470   0.778   7.673   4.053  0.0249  0.2748 -0.2481
   9923SM  H10F13471   0.744   7.587   3.992  0.9206  0.7062 -1.3859
   9923SM  H10G13472   0.687   7.735   4.073  0.6360  0.8449  0.8473
   9923SM  C11F13473   0.825   7.629   4.195 -0.0653  0.2103  0.2322
   9923SM  H11F13474   0.846   7.722   4.253  0.5494  0.3412 -0.1834
   9923SM  H11G13475   0.923   7.579   4.179 -0.8423 -1.2963  0.0683
   9923SM  C12F13476   0.737   7.533   4.271  0.0587 -0.2007 -0.4292
   9923SM  H12F13477   0.711   7.446   4.206 -1.6210 -0.6162  0.7385
   9923SM  H12G13478   0.639   7.583   4.288 -0.4434 -1.3991  0.3273
   9923SM  C13F13479   0.796   7.477   4.401 -0.2916  0.4174 -0.2906
   9923SM  H13F13480   0.719   7.420   4.457  0.7306  0.4817  1.2318
   9923SM  H13G13481   0.824   7.567   4.459 -0.9190  0.6409 -0.3302
   9923SM  C14F13482   0.907   7.374   4.376  0.6842  0.2568  0.4830
   9923SM  H14F13483   0.988   7.431   4.326 -1.3063  3.0975  0.2620
   9923SM  H14G13484   0.866   7.291   4.315 -1.1149  0.3404  1.5069
   9923SM  C15F13485   0.975   7.317   4.500  0.6638 -0.3321 -0.0692
   9923SM  H15F13486   0.903   7.246   4.546  1.6476 -0.9806  0.4803
   9923SM  H15G13487   1.007   7.402   4.563 -0.4909  0.5296 -0.6121
   9923SM  C16F13488   1.092   7.226   4.452 -0.4718  0.4223 -0.4477
   9923SM  H16F13489   1.156   7.294   4.393 -1.4778  2.4550  0.7105
   9923SM  H16G13490   1.042   7.150   4.388 -0.2670  0.8680 -1.1447
   9923SM  C17F13491   1.158   7.147   4.566  0.0555 -0.3888 -0.0287
   9923SM  H17F13492   1.084   7.080   4.615  0.4918  0.9043  2.5370
   9923SM  H17G13493   1.206   7.210   4.643  2.8316  0.8870 -2.5760
   9923SM  C18F13494   1.264   7.050   4.510 -0.1139 -0.3885 -0.2143
   9923SM  H18F13495   1.311   6.990   4.590 -1.8376 -0.4590  0.8014
   9923SM  H18G13496   1.349   7.092   4.452 -0.1534 -0.7275 -0.5244
   9923SM  C19F13497   1.209   6.940   4.413 -0.1179  0.5062  0.1358
   9923SM  H19F13498   1.172   6.983   4.317  0.4126  2.7464  0.8805
   9923SM  H19G13499   1.119   6.892   4.457 -0.5572 -0.2619 -1.5147
   9923SM  C20F13500   1.318   6.828   4.391  0.1577 -0.1347  0.3934
   9923SM  H20F13501   1.339   6.792   4.494  0.3096 -1.0342  0.0612
   9923SM  H20G13502   1.410   6.873   4.349  0.9726 -2.8724 -1.0725
   9923SM  C21F13503   1.276   6.716   4.290 -0.6131 -0.0632 -0.0596
   9923SM  H21F13504   1.364   6.666   4.245 -0.2282 -0.6620  1.3139
   9923SM  H21G13505   1.220   6.771   4.211  2.1104  0.8047 -1.5212
   9923SM  C22F13506   1.184   6.623   4.366  0.1095 -0.2462  0.1467
   9923SM  H22F13507   1.118   6.561   4.302 -3.9777 -0.4675  4.0534
   9923SM  H22G13508   1.111   6.688   4.420  0.7877 -0.9343  1.9716
   9923SM  C23F13509   1.244   6.538   4.469  0.3022 -0.0940 -0.2416
   9923SM  H23F13510   1.318   6.595   4.530 -0.5537  2.1570 -1.2399
   9923SM  H23G13511   1.303   6.456   4.422  1.2640  0.0772  0.6258
   9923SM  H23H13512   1.164   6.485   4.526 -0.9527  1.1712 -0.7856
  10023SM     N13513   0.852   0.584   2.767  0.8764 -0.3301  0.4462
  10023SM   C1513514   0.912   0.460   2.701 -0.4917 -0.4741  0.2063
  10023SM  H15A13515   1.020   0.453   2.703 -0.3716  0.8702  0.0011
  10023SM  H15B13516   0.888   0.471   2.596  1.4076 -0.7486 -0.2981
  10023SM  H15C13517   0.877   0.370   2.749  1.3554 -1.0848  0.4650
  10023SM   C1413518   0.902   0.716   2.714 -0.1971 -0.1014 -0.2776
  10023SM  H14A13519   1.006   0.726   2.744 -0.0501 -2.5236  0.1661
  10023SM  H14B13520   0.848   0.803   2.749  1.2576  0.7954 -0.1664
  10023SM  H14C13521   0.886   0.725   2.608  1.3641  2.2999 -0.4010
  10023SM   C1313522   0.703   0.585   2.740 -1.1901 -1.1727  0.3274
  10023SM  H13A13523   0.688   0.626   2.642 -0.8597  0.5650  0.9722
  10023SM  H13B13524   0.650   0.658   2.798  1.6434  1.0673  0.3146
  10023SM  H13C13525   0.655   0.491   2.763 -0.0730 -1.5532  1.2192
  10023SM   C1213526   0.863   0.566   2.917  0.5716 -0.2263  0.8839
  10023SM  H12A13527   0.821   0.472   2.950 -1.0110  0.2544  0.3123
  10023SM  H12B13528   0.801   0.639   2.968  2.4576  0.7961  1.8200
  10023SM   C1113529   1.006   0.575   2.981 -0.1523 -0.3135 -0.0585
  10023SM  H11A13530   0.999   0.588   3.092  1.3878  1.8317 -0.1377
  10023SM  H11B13531   1.064   0.663   2.947  0.6055 -0.3470  1.0898
  10023SM     P13532   1.025   0.323   3.025 -0.3233  0.3035 -0.2904
  10023SM   O1313533   0.906   0.347   3.104  0.3137 -0.1596 -0.1693
  10023SM   O1413534   1.018   0.214   2.923  0.3426  0.2709 -0.0646
  10023SM   O1113535   1.139   0.297   3.128 -0.3415 -0.0285 -0.1632
  10023SM   O1213536   1.079   0.457   2.957  0.1189 -0.1649  0.2747
  10023SM   C1S13537   1.184   0.392   3.226 -0.0874  0.4664  0.1273
  10023SM   H1S13538   1.112   0.473   3.249 -1.8249 -1.3772  1.5714
  10023SM   H1T13539   1.280   0.433   3.188  1.1799 -0.9315  1.6754
  10023SM    NF13540   1.245   0.410   3.461  0.7844 -0.1430  0.0970
  10023SM   HNF13541   1.340   0.439   3.473  1.0208 -0.5670 -0.6884
  10023SM   C2S13542   1.219   0.319   3.352  0.0796 -0.4421 -0.0355
  10023SM   H2S13543   1.139   0.247   3.380  2.1522 -1.6982  3.3043
  10023SM   C3S13544   1.337   0.216   3.315 -0.2609 -0.3422  1.0718
  10023SM   H3S13545   1.423   0.278   3.281 -1.3321  1.0939  0.8895
  10023SM    O313546   1.311   0.128   3.211 -0.6017  0.3618  0.2528
  10023SM   HO313547   1.229   0.166   3.178 -0.0667  0.9756 -0.3893
  10023SM   C4S13548   1.384   0.146   3.440 -0.2712 -0.2935  0.7512
  10023SM   H4S13549   1.426   0.211   3.518  1.1471 -2.3701  1.8415
  10023SM   C5S13550   1.359   0.024   3.485 -0.2614  0.0234  0.0023
  10023SM   H5S13551   1.296  -0.045   3.427 -1.2892  0.5329  0.4834
  10023SM   C6S13552   1.396  -0.020   3.630  0.0232 -0.9660  0.2885
  10023SM   H6S13553   1.479   0.037   3.676 -0.3705  0.0305 -0.2098
  10023SM   H6T13554   1.434  -0.124   3.629 -0.5095 -1.2494 -3.7483
  10023SM   C7S13555   1.283  -0.010   3.738 -0.5247 -0.6459  0.1137
  10023SM   H7S13556   1.184  -0.056   3.719 -1.6549  1.0994  1.4532
  10023SM   H7T13557   1.263   0.099   3.745 -1.5410 -0.6756 -1.6869
  10023SM   C8S13558   1.335  -0.046   3.878  0.2944  0.8633 -0.0037
  10023SM   H8S13559   1.251  -0.000   3.936  1.5173  1.4035  1.4041
  10023SM   H8T13560   1.434  -0.000   3.898  1.4453 -2.1103  1.6794
  10023SM   C9S13561   1.331  -0.200   3.893 -0.3202  0.5152  0.2498
  10023SM   H9S13562   1.414  -0.240   3.830 -0.0392  2.2389 -0.5244
  10023SM   H9T13563   1.231  -0.238   3.860 -0.6556 -0.6903  2.4444
  10023SM  C10S13564   1.350  -0.248   4.037 -0.1849  0.4817 -0.1367
  10023SM  H10S13565   1.333  -0.357   4.044  0.6185  0.4048  0.7868
  10023SM  H10T13566   1.276  -0.192   4.097 -1.0721 -1.4475  0.6445
  10023SM  C11S13567   1.487  -0.214   4.095  0.0248  0.1733  0.0061
  10023SM  H11S13568   1.499  -0.107   4.070 -1.7772  0.2210 -0.8550
  10023SM  H11T13569   1.564  -0.260   4.029 -0.9519  0.6829 -1.5490
  10023SM  C12S13570   1.515  -0.264   4.237  0.0759  0.4362  0.0819
  10023SM  H12S13571   1.622  -0.248   4.261  0.4615 -1.1943 -0.4408
  10023SM  H12T13572   1.486  -0.371   4.243  1.2495 -0.0305 -1.7102
  10023SM  C13S13573   1.429  -0.189   4.337  0.1699  0.1078 -1.1247
  10023SM  H13S13574   1.322  -0.204   4.314 -0.2663  0.7275  0.4021
  10023SM  H13T13575   1.432  -0.080   4.319 -0.1716  0.3941  0.4281
  10023SM  C14S13576   1.447  -0.231   4.485  0.6420  0.0597  0.4288
  10023SM  H14S13577   1.405  -0.333   4.496 -0.6663  0.5050 -0.2185
  10023SM  H14T13578   1.371  -0.175   4.543  1.2494  0.7255  0.6076
  10023SM  C15S13579   1.593  -0.216   4.545 -0.4286  0.7026 -0.0768
  10023SM  H15S13580   1.668  -0.256   4.473 -1.2890  1.2062 -1.2764
  10023SM  H15T13581   1.606  -0.288   4.628  1.4224  0.5905 -0.4219
  10023SM  C16S13582   1.619  -0.076   4.603  0.1632 -0.5384  0.5051
  10023SM  H16S13583   1.618  -0.008   4.515 -0.5117 -2.4798 -1.0480
  10023SM  H16T13584   1.721  -0.077   4.647 -0.8861  0.4845  3.1638
  10023SM  C17S13585   1.524  -0.027   4.711 -0.9762  0.1203  0.2284
  10023SM  H17S13586   1.519  -0.109   4.786  0.0694  1.0538  1.3541
  10023SM  H17T13587   1.426  -0.010   4.661 -0.5437 -0.0179 -0.6889
  10023SM  C18S13588   1.567   0.099   4.778  0.5138  0.4318  0.5835
  10023SM  H18S13589   1.498   0.137   4.858  0.4042  1.9433 -0.1839
  10023SM  H18T13590   1.571   0.177   4.699 -1.8838  0.4442  0.3954
  10023SM  H18U13591   1.662   0.097   4.834  0.0589  0.3855  1.3742
  10023SM   C1F13592   1.137   0.464   3.524 -0.1394 -0.4923  0.9671
  10023SM    OF13593   1.019   0.431   3.504 -0.3063  0.1987 -0.4627
  10023SM   C2F13594   1.166   0.572   3.616  0.1279  0.0313  0.2004
  10023SM   H2F13595   1.201   0.665   3.568  0.1169  0.8010  1.6391
  10023SM   H2G13596   1.258   0.549   3.674  1.1678  2.1682 -0.5014
  10023SM   C3F13597   1.059   0.621   3.720 -0.1994  0.6964 -0.3585
  10023SM   H3F13598   0.958   0.612   3.674 -0.6500 -1.2708  0.9177
  10023SM   H3G13599   1.083   0.722   3.758  1.6250  0.0287  0.4114
  10023SM   C4F13600   1.034   0.528   3.843 -0.5085 -0.0706 -0.1711
  10023SM   H4F13601   1.132   0.533   3.897  0.9962  1.0487 -2.7932
  10023SM   H4G13602   1.009   0.424   3.813 -4.5906  0.2395  1.5132
  10023SM   C5F13603   0.924   0.564   3.947  0.2875 -1.3037  0.1537
  10023SM   H5F13604   0.829   0.590   3.894  0.7267  0.7783  0.2891
  10023SM   H5G13605   0.951   0.660   3.996  0.0920  0.0873 -2.3025
  10023SM   C6F13606   0.904   0.440   4.043  0.0187 -0.2370 -0.5522
  10023SM   H6F13607   1.004   0.409   4.081 -0.8087 -0.8206  1.2662
  10023SM   H6G13608   0.865   0.356   3.982 -1.0736  2.0048 -3.1451
  10023SM   C7F13609   0.810   0.471   4.160 -0.5103 -0.2703  0.0838
  10023SM   H7F13610   0.711   0.483   4.112  1.1111  0.6767 -3.2903
  10023SM   H7G13611   0.833   0.557   4.227  1.0815 -1.5820  1.3225
  10023SM   C8F13612   0.792   0.345   4.257 -0.3599 -0.8350  0.2647
  10023SM   H8F13613   0.877   0.360   4.327 -0.1369  1.2627 -0.3687
  10023SM   H8G13614   0.812   0.250   4.203 -3.1599 -0.3238 -1.9096
  10023SM   C9F13615   0.652   0.336   4.316 -0.0198  0.2791 -0.8989
  10023SM   H9F13616   0.581   0.339   4.230  0.7014 -1.6193 -1.6180
  10023SM   H9G13617   0.632   0.434   4.366  1.1145 -0.2980  0.7635
  10023SM  C10F13618   0.616   0.209   4.394  0.3283  0.4751 -0.2124
  10023SM  H10F13619   0.626   0.105   4.357  0.0222  0.7286 -1.0088
  10023SM  H10G13620   0.506   0.217   4.408  0.1717 -0.1310 -1.0321
  10023SM  C11F13621   0.683   0.209   4.531  0.5689 -0.1969 -0.3321
  10023SM  H11F13622   0.662   0.312   4.566  0.4180  0.2648 -1.7266
  10023SM  H11G13623   0.792   0.187   4.540  0.5828  0.1827  0.5988
  10023SM  C12F13624   0.627   0.110   4.633  0.3628  0.3419  0.0026
  10023SM  H12F13625   0.654   0.011   4.592  0.0359  0.2255  0.0629
  10023SM  H12G13626   0.516   0.113   4.632  0.3522  2.6790  0.5438
  10023SM  C13F13627   0.672   0.107   4.781 -0.4966 -0.4335  0.1545
  10023SM  H13F13628   0.619   0.184   4.840  0.2016 -0.5010  0.8819
  10023SM  H13G13629   0.781   0.128   4.790  0.0199 -2.4405 -0.8257
  10023SM  C14F13630   0.656  -0.031   4.856  0.0198 -0.3306 -0.0818
  10023SM  H14F13631   0.547  -0.050   4.845 -0.1368  0.0901  0.7480
  10023SM  H14G13632   0.685  -0.009   4.960  2.6401 -2.3081 -0.2811
  10023SM  C15F13633   0.749  -0.151   4.805 -0.4401  0.4008  0.0538
  10023SM  H15F13634   0.854  -0.117   4.820 -0.3836  0.9396 -1.3527
  10023SM  H15G13635   0.745  -0.165   4.695  0.7148  2.5440 -0.3091
  10023SM  C16F13636   0.747  -0.281   4.888  0.0552 -0.1445  0.1521
  10023SM  H16F13637   0.642  -0.313   4.899  0.2660 -0.6004  0.9184
  10023SM  H16G13638   0.779  -0.274   4.995 -1.6290  2.1279  0.5862
  10023SM  C17F13639   0.841  -0.389   4.832  0.0968 -0.3416  0.9959
  10023SM  H17F13640   0.931  -0.336   4.794 -0.5031  0.6726  0.9328
  10023SM  H17G13641   0.776  -0.428   4.751 -0.2856 -2.2256  2.1612
  10023SM  C18F13642   0.867  -0.501   4.925  0.6539 -0.2471 -0.3778
  10023SM  H18F13643   0.940  -0.469   5.003  2.2806 -0.3128 -1.8002
  10023SM  H18G13644   0.907  -0.590   4.873  2.2975 -1.0068  1.9822
  10023SM  C19F13645   0.738  -0.544   5.004 -0.0869  0.2761  0.3868
  10023SM  H19F13646   0.660  -0.563   4.928  1.5998  1.4099 -1.7424
  10023SM  H19G13647   0.702  -0.468   5.077 -1.3638 -2.2249  2.5608
  10023SM  C20F13648   0.763  -0.661   5.098 -0.4911  0.8149  0.1844
  10023SM  H20F13649   0.860  -0.642   5.148  0.4020  0.8044 -1.4642
  10023SM  H20G13650   0.783  -0.761   5.053 -0.6083  0.1228  1.6097
  10023SM  C21F13651   0.650  -0.698   5.199  0.0773  0.1311 -0.3499
  10023SM  H21F13652   0.609  -0.611   5.255  0.2886 -1.0129  1.7002
  10023SM  H21G13653   0.682  -0.759   5.286  1.8440  0.7925 -0.4942
  10023SM  C22F13654   0.534  -0.782   5.142  0.3264  0.0532 -0.0562
  10023SM  H22F13655   0.557  -0.880   5.096 -1.8585 -0.4839 -0.0934
  10023SM  H22G13656   0.488  -0.725   5.058 -1.3070 -0.2024  0.6426
  10023SM  C23F13657   0.413  -0.790   5.242 -0.5544  0.4062  0.4192
  10023SM  H23F13658   0.385  -0.682   5.249  1.4532  1.0839 -0.8615
  10023SM  H23G13659   0.451  -0.830   5.339  0.9951  1.9036  0.4904
  10023SM  H23H13660   0.334  -0.855   5.201 -1.2359  0.9459  0.8551
  101CHL1    C313661   3.924   3.665   6.590  0.3673  0.2429  0.7067
  101CHL1    H313662   3.837   3.720   6.632  0.8060 -0.6037  2.8409
  101CHL1    O313663   4.016   3.620   6.688 -0.2248 -0.4218  0.1765
  101CHL1   H3'13664   3.968   3.568   6.752 -1.5042  0.6527  0.1282
  101CHL1    C413665   3.864   3.551   6.509 -0.0951  0.2544 -0.0297
  101CHL1   H4A13666   3.940   3.480   6.470 -0.4238  0.2464 -0.6729
  101CHL1   H4B13667   3.805   3.486   6.578 -0.4926  0.1805 -0.4314
  101CHL1    C513668   3.784   3.585   6.385  0.5560  0.4424  0.0430
  101CHL1    C613669   3.659   3.537   6.374  0.2129 -0.5566 -0.5229
  101CHL1    H613670   3.614   3.473   6.451  0.6284 -0.4794 -0.2129
  101CHL1    C713671   3.565   3.556   6.252 -1.0640  0.0616  0.0041
  101CHL1   H7A13672   3.518   3.463   6.212 -0.3381 -0.7640  0.9943
  101CHL1   H7B13673   3.483   3.626   6.274 -0.5221  1.0340 -0.9987
  101CHL1    C813674   3.646   3.638   6.140 -0.0146 -0.2293  0.8893
  101CHL1    H813675   3.703   3.554   6.093 -0.1595  0.4766 -0.5950
  101CHL1   C1413676   3.548   3.698   6.035 -0.0039 -0.8725  0.0774
  101CHL1   H1413677   3.498   3.787   6.078  0.6945 -0.4260 -0.0106
  101CHL1   C1513678   3.441   3.607   5.972 -0.4914  0.0582 -0.0193
  101CHL1  H15A13679   3.477   3.504   5.951  0.3666  0.0972  1.1940
  101CHL1  H15B13680   3.358   3.585   6.042  0.4922 -1.6371  0.6670
  101CHL1   C1613681   3.402   3.676   5.837  0.3569 -0.1312 -0.2018
  101CHL1  H16A13682   3.427   3.617   5.746 -0.7317 -1.0807  0.0774
  101CHL1  H16B13683   3.293   3.696   5.838  0.6284  1.5168 -1.0077
  101CHL1   C1713684   3.488   3.807   5.830  0.3480 -0.6108 -0.6531
  101CHL1   H1713685   3.434   3.881   5.892  1.4152 -1.3992  1.3296
  101CHL1   C1313686   3.616   3.763   5.913 -0.0140 -0.2881 -0.2167
  101CHL1   C1813687   3.699   3.659   5.827  0.3072  0.5336  0.2905
  101CHL1  H18A13688   3.735   3.713   5.737  0.0928  1.8011  0.9401
  101CHL1  H18B13689   3.790   3.636   5.886  0.0717  0.5483  0.6656
  101CHL1  H18C13690   3.650   3.563   5.800 -0.9533  0.9829  0.8762
  101CHL1   C1213691   3.704   3.877   5.971  0.5045 -0.5323  0.1327
  101CHL1  H12A13692   3.743   3.919   5.876 -1.9296  0.5904 -0.4501
  101CHL1  H12B13693   3.638   3.953   6.018 -0.6061 -1.7908  0.6788
  101CHL1   C1113694   3.806   3.826   6.069  0.1532  0.1683  0.4211
  101CHL1  H11A13695   3.887   3.771   6.016  2.5108  2.5434  1.3192
  101CHL1  H11B13696   3.864   3.908   6.117 -0.5559  0.1181  1.3987
  101CHL1    C913697   3.743   3.746   6.189  0.5924 -0.0647 -0.0534
  101CHL1    H913698   3.677   3.814   6.247  0.9015  0.5460 -0.4048
  101CHL1   C1013699   3.843   3.689   6.291  0.5308  0.1847 -0.4029
  101CHL1   C1913700   3.953   3.614   6.216 -0.0550 -0.6506 -0.5500
  101CHL1  H19A13701   4.033   3.596   6.290  1.6060  3.0581 -1.2045
  101CHL1  H19B13702   3.915   3.521   6.167 -0.2676 -0.9164  0.1119
  101CHL1  H19C13703   4.004   3.683   6.145  0.0549 -0.9022 -0.7173
  101CHL1    C113704   3.921   3.804   6.370  0.0479 -0.1318 -0.4004
  101CHL1   H1A13705   3.993   3.854   6.302 -0.0393  1.5781  0.7293
  101CHL1   H1B13706   3.840   3.875   6.396  0.0199 -0.5041  0.5430
  101CHL1    C213707   3.997   3.757   6.488  0.2161  0.0239  0.1430
  101CHL1   H2A13708   4.018   3.839   6.561 -0.1513 -0.1344  0.4354
  101CHL1   H2B13709   4.091   3.710   6.453 -0.2779 -0.3444 -0.7261
  101CHL1   C2013710   3.518   3.868   5.688 -0.1270  0.5085  0.4302
  101CHL1   H2013711   3.611   3.828   5.643  0.4499  2.7732 -0.4939
  101CHL1   C2113712   3.544   4.020   5.698 -1.0775  0.1380  0.1221
  101CHL1  H21A13713   3.541   4.064   5.597 -1.0573 -0.3142 -0.0787
  101CHL1  H21B13714   3.636   4.042   5.758  0.3632 -3.2160 -0.5724
  101CHL1  H21C13715   3.456   4.068   5.744 -1.0728  0.9663 -0.7203
  101CHL1   C2213716   3.411   3.825   5.590  0.0523  0.0618  0.5585
  101CHL1  H22A13717   3.404   3.715   5.578 -0.1095 -0.0840  1.8665
  101CHL1  H22B13718   3.313   3.858   5.632  0.2445 -0.3703  1.3501
  101CHL1   C2313719   3.410   3.881   5.449  0.0635  0.2434  0.2264
  101CHL1  H23A13720   3.407   3.992   5.452  0.7724  0.3293 -1.1942
  101CHL1  H23B13721   3.500   3.836   5.400 -0.1195 -0.4320  0.4978
  101CHL1   C2413722   3.275   3.839   5.382 -0.8345  0.6798 -0.1557
  101CHL1  H24A13723   3.285   3.735   5.344 -0.2365  0.6141  0.1742
  101CHL1  H24B13724   3.189   3.844   5.451 -2.0892 -1.8367 -1.3717
  101CHL1   C2513725   3.252   3.923   5.258  0.0368  0.0244 -0.5731
  101CHL1   H2513726   3.250   4.028   5.294  0.1477 -1.5774  5.0145
  101CHL1   C2613727   3.366   3.905   5.161 -0.7311 -0.1809 -0.0024
  101CHL1  H26A13728   3.463   3.939   5.203  0.3318 -2.4365 -0.4690
  101CHL1  H26B13729   3.376   3.795   5.146  0.1992 -0.5590  2.8057
  101CHL1  H26C13730   3.351   3.947   5.060 -0.0686 -1.8008 -0.8115
  101CHL1   C2713731   3.121   3.880   5.190 -0.1693  0.1442 -0.0446
  101CHL1  H27A13732   3.114   3.769   5.180 -0.2548 -0.0810  2.0597
  101CHL1  H27B13733   3.035   3.907   5.254  0.2887 -0.4060  0.8244
  101CHL1  H27C13734   3.113   3.924   5.088  0.5766  0.5055  0.0446
  102CHL1    C313735   1.986   3.959   6.341 -0.3067 -0.3388 -0.5561
  102CHL1    H313736   2.084   3.909   6.325  0.0327 -0.3514  1.3729
  102CHL1    O313737   1.998   4.019   6.469 -0.5217  0.6068  0.0954
  102CHL1   H3'13738   1.935   3.973   6.525  1.5888  0.3205  2.4184
  102CHL1    C413739   1.968   4.078   6.243 -0.6566 -0.0368 -0.0151
  102CHL1   H4A13740   1.877   4.132   6.275  0.5213  1.1329  1.5088
  102CHL1   H4B13741   2.054   4.145   6.262 -0.2025 -1.2719  2.7642
  102CHL1    C513742   1.947   4.030   6.100 -0.4480  0.0593 -1.0194
  102CHL1    C613743   2.027   4.082   6.001 -0.3160  0.1887  0.7334
  102CHL1    H613744   2.115   4.144   6.023 -0.4763  0.6193  0.1860
  102CHL1    C713745   2.008   4.045   5.855 -0.7054  0.4304 -0.5071
  102CHL1   H7A13746   2.023   4.136   5.792 -1.1371  1.3631  0.7109
  102CHL1   H7B13747   2.097   3.978   5.847  0.2578  1.2684  2.2149
  102CHL1    C813748   1.888   3.962   5.827  0.5223  0.4035  0.3834
  102CHL1    H813749   1.801   4.029   5.806  0.5019 -0.0239 -0.9933
  102CHL1   C1413750   1.900   3.885   5.695  1.2094  0.0088  1.1185
  102CHL1   H1413751   1.983   3.813   5.704  0.6831 -0.8310 -0.4594
  102CHL1   C1513752   1.926   3.966   5.565  0.0555  0.5488  0.3261
  102CHL1  H15A13753   1.857   4.053   5.563  0.1131  0.6115  0.8667
  102CHL1  H15B13754   2.032   4.001   5.558  0.1016  0.3265 -0.2077
  102CHL1   C1613755   1.900   3.871   5.446  0.5081  0.1137 -0.2949
  102CHL1  H16A13756   1.820   3.923   5.389 -0.2926 -1.4673 -0.6408
  102CHL1  H16B13757   1.984   3.830   5.386  0.2734 -0.5183 -0.1985
  102CHL1   C1713758   1.816   3.751   5.513 -0.3971 -0.2039  0.1236
  102CHL1   H1713759   1.886   3.667   5.530 -0.3487 -0.4447 -1.1825
  102CHL1   C1313760   1.776   3.801   5.657  0.5184 -0.1023  0.0027
  102CHL1   C1813761   1.637   3.874   5.647  0.6920 -0.2669 -0.3982
  102CHL1  H18A13762   1.605   3.920   5.743  0.8797  1.1622 -1.0005
  102CHL1  H18B13763   1.634   3.951   5.567  1.4472  1.5762  1.2607
  102CHL1  H18C13764   1.554   3.803   5.627  0.6171 -0.5047  0.6806
  102CHL1   C1213765   1.760   3.691   5.765 -0.4908 -0.1500  0.1532
  102CHL1  H12A13766   1.672   3.629   5.739  0.3447 -1.3516  0.0491
  102CHL1  H12B13767   1.854   3.630   5.761  0.0281  0.6834 -0.6635
  102CHL1   C1113768   1.740   3.753   5.902  0.2865 -0.0636  0.5593
  102CHL1  H11A13769   1.634   3.786   5.909 -0.4018 -1.9268 -0.5683
  102CHL1  H11B13770   1.744   3.679   5.984 -2.0569  0.2200  0.9929
  102CHL1    C913771   1.855   3.862   5.941  0.7961  0.5600  0.5942
  102CHL1    H913772   1.943   3.794   5.937 -0.4569 -1.0807 -0.6149
  102CHL1   C1013773   1.839   3.928   6.081  0.0369  0.1057 -0.1362
  102CHL1   C1913774   1.697   3.993   6.080  0.2695  0.2547 -0.1995
  102CHL1  H19A13775   1.671   4.035   6.179 -1.6706  0.1534 -0.6280
  102CHL1  H19B13776   1.693   4.073   6.003  0.5381  0.1979 -0.2728
  102CHL1  H19C13777   1.616   3.918   6.064  0.1288  0.7753 -2.1997
  102CHL1    C113778   1.839   3.815   6.186  0.5512  0.3727 -0.5650
  102CHL1   H1A13779   1.741   3.762   6.188  1.4441 -1.3488 -0.5838
  102CHL1   H1B13780   1.906   3.730   6.161 -0.1265 -0.1561 -0.6227
  102CHL1    C213781   1.862   3.869   6.331  0.0104 -0.0718 -0.0678
  102CHL1   H2A13782   1.884   3.773   6.383 -1.4929 -0.6857 -0.4916
  102CHL1   H2B13783   1.771   3.922   6.367  0.8042  2.3821 -1.4977
  102CHL1   C2013784   1.714   3.682   5.415 -0.0359  0.0638 -0.4886
  102CHL1   H2013785   1.625   3.749   5.425  0.3369  0.4310  0.4772
  102CHL1   C2113786   1.684   3.542   5.470  0.6742  0.0162 -0.6611
  102CHL1  H21A13787   1.619   3.479   5.405  0.4013  1.4155 -1.7811
  102CHL1  H21B13788   1.630   3.550   5.567 -1.4702 -0.0809 -1.7775
  102CHL1  H21C13789   1.768   3.473   5.490  0.6027  0.3397  0.8808
  102CHL1   C2213790   1.743   3.677   5.262 -0.6263 -0.2620 -0.6173
  102CHL1  H22A13791   1.761   3.777   5.216 -4.8746  1.8630  1.7123
  102CHL1  H22B13792   1.843   3.632   5.247 -0.6188 -0.3148 -0.4078
  102CHL1   C2313793   1.644   3.594   5.163 -0.0685 -0.3400 -0.2236
  102CHL1  H23A13794   1.683   3.603   5.059 -0.5859 -1.3057 -0.5150
  102CHL1  H23B13795   1.661   3.485   5.174  2.2802 -0.3436 -2.7102
  102CHL1   C2413796   1.491   3.617   5.169 -0.2936 -0.1694  0.6707
  102CHL1  H24A13797   1.453   3.598   5.271 -1.3434 -2.8086 -0.1310
  102CHL1  H24B13798   1.474   3.725   5.148 -2.2674 -0.5433  0.0778
  102CHL1   C2513799   1.407   3.532   5.069  0.4740  0.2774 -0.7479
  102CHL1   H2513800   1.436   3.543   4.962  1.6849  0.1874 -0.4388
  102CHL1   C2613801   1.401   3.380   5.101  0.3830  0.2242  0.5413
  102CHL1  H26A13802   1.337   3.360   5.189  0.5047  0.1331  0.6101
  102CHL1  H26B13803   1.347   3.328   5.019 -0.5840  0.1770  1.1908
  102CHL1  H26C13804   1.504   3.343   5.118 -0.3275 -1.3171  1.7215
  102CHL1   C2713805   1.256   3.579   5.072 -0.2376 -0.1088 -0.0235
  102CHL1  H27A13806   1.212   3.556   5.171 -0.7911  1.8289  0.2247
  102CHL1  H27B13807   1.253   3.689   5.058 -2.7891 -0.2676 -1.1162
  102CHL1  H27C13808   1.194   3.530   4.995  0.4597 -1.5036  0.2680
  103CHL1    C313809   1.888   3.242   6.401  0.2951  0.3986 -0.6429
  103CHL1    H313810   1.796   3.186   6.430 -1.4304  1.5504 -3.5123
  103CHL1    O313811   1.947   3.298   6.517  0.6793  0.0276 -0.0443
  103CHL1   H3'13812   2.033   3.323   6.484  0.3701 -0.0915 -0.9591
  103CHL1    C413813   1.984   3.145   6.339 -0.8029 -0.4532  0.2452
  103CHL1   H4A13814   2.087   3.182   6.328 -0.2113 -1.9603  0.4403
  103CHL1   H4B13815   1.996   3.057   6.406 -2.4262  0.1354  1.4041
  103CHL1    C513816   1.945   3.102   6.198 -0.2518  0.3920 -0.0906
  103CHL1    C613817   1.945   2.964   6.170  0.8110  0.0566  0.3428
  103CHL1    H613818   1.978   2.890   6.244  0.9192 -1.1832 -0.9199
  103CHL1    C713819   1.903   2.911   6.031  0.2546  0.4746 -0.0541
  103CHL1   H7A13820   1.962   2.820   6.009 -0.8362  0.0179 -1.1641
  103CHL1   H7B13821   1.800   2.871   6.029  1.0130 -1.6351 -2.8009
  103CHL1    C813822   1.914   3.023   5.925  0.0085  0.0657 -0.3859
  103CHL1    H813823   2.021   3.030   5.898  0.4252  3.3352  1.4948
  103CHL1   C1413824   1.836   2.982   5.802  0.4862  1.6799  0.5840
  103CHL1   H1413825   1.731   2.966   5.833  1.0421  1.2206  2.2981
  103CHL1   C1513826   1.870   2.844   5.738 -0.2029  0.2519  0.0078
  103CHL1  H15A13827   1.979   2.843   5.720 -0.1093 -0.2080  0.5737
  103CHL1  H15B13828   1.835   2.755   5.795 -1.7542  0.7711 -0.0755
  103CHL1   C1613829   1.807   2.846   5.596 -0.6100  0.1096 -0.5661
  103CHL1  H16A13830   1.874   2.811   5.514  0.4540  1.0721 -0.1326
  103CHL1  H16B13831   1.727   2.769   5.601  0.9039 -1.6482 -1.6622
  103CHL1   C1713832   1.746   2.988   5.588  0.1223 -0.8624 -0.0307
  103CHL1   H1713833   1.645   2.977   5.632  0.5663 -2.1143  0.7418
  103CHL1   C1313834   1.830   3.084   5.689  1.2099  0.2405  0.5583
  103CHL1   C1813835   1.970   3.121   5.627 -0.3222  0.4213  0.7592
  103CHL1  H18A13836   1.945   3.203   5.556  1.2756  0.3460  0.0495
  103CHL1  H18B13837   2.042   3.158   5.704  0.1332  0.5718  0.2677
  103CHL1  H18C13838   2.009   3.035   5.568  1.9751  0.8800  1.4957
  103CHL1   C1213839   1.759   3.201   5.741 -0.4259 -0.1795  0.1375
  103CHL1  H12A13840   1.745   3.281   5.666  2.3498 -0.9227 -1.2947
  103CHL1  H12B13841   1.658   3.169   5.775 -0.1056  1.1892  2.6798
  103CHL1   C1113842   1.839   3.254   5.862  0.0460 -0.4178 -0.3141
  103CHL1  H11A13843   1.932   3.297   5.818  0.7359 -2.2781 -0.7604
  103CHL1  H11B13844   1.791   3.349   5.895  0.5512  0.3006 -1.5646
  103CHL1    C913845   1.851   3.151   5.979 -0.1779  0.1603 -0.2847
  103CHL1    H913846   1.745   3.123   6.000 -0.9159  3.0706  0.3662
  103CHL1   C1013847   1.911   3.216   6.107 -0.0345  0.0028  0.5717
  103CHL1   C1913848   2.037   3.294   6.066  0.5844 -0.0369 -0.7359
  103CHL1  H19A13849   2.029   3.385   6.002 -1.2528  0.6011  0.3120
  103CHL1  H19B13850   2.086   3.337   6.156  0.9763  0.0759 -0.9976
  103CHL1  H19C13851   2.120   3.233   6.025  1.9851  0.4449  1.2715
  103CHL1    C113852   1.807   3.301   6.180  0.2213  0.3477  0.6345
  103CHL1   H1A13853   1.774   3.382   6.111  0.1455  0.1600  0.4485
  103CHL1   H1B13854   1.716   3.243   6.203 -0.6111  0.7801 -1.3349
  103CHL1    C213855   1.849   3.360   6.311 -0.3828  0.2088 -0.6040
  103CHL1   H2A13856   1.770   3.415   6.366  1.6874  1.0030  1.7111
  103CHL1   H2B13857   1.933   3.431   6.298 -0.0786  0.4931  2.3322
  103CHL1   C2013858   1.724   3.025   5.439 -0.0918  0.4219  0.5831
  103CHL1   H2013859   1.814   3.021   5.374 -0.2787 -0.7629  0.3698
  103CHL1   C2113860   1.683   3.171   5.432 -0.4369  0.4097 -0.4727
  103CHL1  H21A13861   1.592   3.202   5.488  0.5071  2.9333 -0.2256
  103CHL1  H21B13862   1.665   3.198   5.326 -1.2111  1.1827 -0.1606
  103CHL1  H21C13863   1.759   3.240   5.474 -0.0096  0.7896 -1.8165
  103CHL1   C2213864   1.630   2.928   5.361 -0.2763  0.3518 -0.2918
  103CHL1  H22A13865   1.669   2.824   5.371 -0.6677  0.3118  0.9203
  103CHL1  H22B13866   1.530   2.937   5.407 -0.4368 -1.3900 -0.2312
  103CHL1   C2313867   1.617   2.957   5.206 -0.3444  0.0697 -0.3541
  103CHL1  H23A13868   1.564   3.053   5.190 -3.6298 -1.5651 -0.0104
  103CHL1  H23B13869   1.718   2.961   5.161 -1.0732  3.0816 -1.9704
  103CHL1   C2413870   1.536   2.857   5.130  0.2495  0.3242  0.4716
  103CHL1  H24A13871   1.590   2.762   5.109  0.6073  0.9122 -1.5468
  103CHL1  H24B13872   1.449   2.821   5.188  0.2057 -1.8022 -0.8017
  103CHL1   C2513873   1.485   2.908   4.993 -0.7643 -0.8340 -0.0392
  103CHL1   H2513874   1.400   2.975   5.016  0.0266 -0.4274  1.9027
  103CHL1   C2613875   1.589   2.997   4.922 -0.0095 -0.0101 -0.5640
  103CHL1  H26A13876   1.685   2.941   4.932 -0.8900 -1.6878 -1.0887
  103CHL1  H26B13877   1.562   3.020   4.816  0.3734  0.4757 -0.5589
  103CHL1  H26C13878   1.607   3.095   4.971 -0.7376 -0.8999  1.5782
  103CHL1   C2713879   1.429   2.801   4.900 -0.1118 -0.3638 -0.1427
  103CHL1  H27A13880   1.494   2.713   4.882 -1.7950 -1.7776  0.4472
  103CHL1  H27B13881   1.340   2.767   4.957 -0.4101 -1.5129 -1.2560
  103CHL1  H27C13882   1.397   2.828   4.797  0.4798  2.2810  0.2937
  104CHL1    C313883   5.177   2.972   7.071  0.2242 -0.0877  0.5652
  104CHL1    H313884   5.242   2.906   7.133  1.4651  2.1858  1.7817
  104CHL1    O313885   5.087   3.037   7.163  0.0905  0.0856  0.1157
  104CHL1   H3'13886   5.010   2.989   7.131  1.0959  0.3368 -3.0732
  104CHL1    C413887   5.259   3.073   6.998  0.8342 -0.2112  0.4445
  104CHL1   H4A13888   5.194   3.151   6.952  1.8205  1.3861  1.6600
  104CHL1   H4B13889   5.323   3.132   7.067  1.2813  1.4825 -1.3050
  104CHL1    C513890   5.335   3.023   6.878 -0.1662  0.5781 -0.2956
  104CHL1    C613891   5.461   3.061   6.867 -0.0526  0.0419 -0.1914
  104CHL1    H613892   5.501   3.127   6.945  1.2633  0.9448 -1.5455
  104CHL1    C713893   5.545   3.027   6.750  0.3924  0.9203 -0.3578
  104CHL1   H7A13894   5.588   3.123   6.714  2.6229  0.2983  0.4760
  104CHL1   H7B13895   5.629   2.964   6.784 -1.2507 -1.7966 -1.0621
  104CHL1    C813896   5.472   2.958   6.627  0.6823  0.0715 -0.2028
  104CHL1    H813897   5.425   3.045   6.575 -1.0309 -0.6491  0.0678
  104CHL1   C1413898   5.568   2.881   6.538  0.0873 -0.8493  0.2418
  104CHL1   H1413899   5.615   2.804   6.604  1.5259  0.5003  0.8518
  104CHL1   C1513900   5.688   2.959   6.475 -0.2744  0.1311  0.5802
  104CHL1  H15A13901   5.646   3.050   6.427 -0.1320 -0.5968 -0.9548
  104CHL1  H15B13902   5.759   2.990   6.555 -0.2043  1.8359 -0.0931
  104CHL1   C1613903   5.739   2.860   6.366 -0.2505 -0.3884 -0.8766
  104CHL1  H16A13904   5.740   2.914   6.269  1.7694  0.1827 -0.5798
  104CHL1  H16B13905   5.839   2.819   6.388 -1.5329 -1.4637  4.4791
  104CHL1   C1713906   5.642   2.744   6.363 -0.1246  0.4711 -0.0985
  104CHL1   H1713907   5.675   2.674   6.442  2.7200  1.0616 -0.6732
  104CHL1   C1313908   5.508   2.799   6.417  0.2687 -0.1107  0.1893
  104CHL1   C1813909   5.433   2.905   6.320 -0.7007  0.5382 -0.3101
  104CHL1  H18A13910   5.513   2.972   6.283 -0.2658  0.2586  0.1142
  104CHL1  H18B13911   5.390   2.862   6.227  1.1848 -0.0661 -0.9482
  104CHL1  H18C13912   5.358   2.964   6.377 -1.2136  0.9836 -1.4219
  104CHL1   C1213913   5.411   2.700   6.483 -0.5148 -0.4457  0.1003
  104CHL1  H12A13914   5.370   2.652   6.391 -0.4700  1.7864 -1.1755
  104CHL1  H12B13915   5.480   2.639   6.545  1.2399  0.7112 -0.6193
  104CHL1   C1113916   5.302   2.776   6.559  0.9807 -0.2254 -0.2477
  104CHL1  H11A13917   5.233   2.834   6.493 -0.2968 -2.6543 -1.1740
  104CHL1  H11B13918   5.240   2.704   6.616  0.2021  0.1341 -0.6157
  104CHL1    C913919   5.363   2.864   6.677  0.1225 -0.3178  0.4933
  104CHL1    H913920   5.415   2.787   6.737 -1.8479 -2.3756 -0.3128
  104CHL1   C1013921   5.263   2.932   6.775 -0.1060  0.3902 -0.0708
  104CHL1   C1913922   5.169   3.023   6.699  0.0777 -0.0792 -0.2631
  104CHL1  H19A13923   5.226   3.091   6.632  1.8166  0.4032  1.5880
  104CHL1  H19B13924   5.094   2.966   6.641 -1.8521  1.4117  0.6565
  104CHL1  H19C13925   5.111   3.082   6.773  2.8705  0.6085  1.5512
  104CHL1    C113926   5.181   2.822   6.856  0.0574 -0.8417 -0.1001
  104CHL1   H1A13927   5.113   2.777   6.781 -0.7757  0.7218 -0.3277
  104CHL1   H1B13928   5.248   2.742   6.894  0.3805 -0.5890 -0.1361
  104CHL1    C213929   5.095   2.877   6.974 -0.3661 -0.3642 -0.2327
  104CHL1   H2A13930   5.051   2.798   7.039 -1.3566  0.8134  0.5634
  104CHL1   H2B13931   5.012   2.934   6.927  1.9856  3.8788  0.3019
  104CHL1   C2013932   5.646   2.660   6.243  0.0294 -0.4352  0.3994
  104CHL1   H2013933   5.565   2.585   6.254  0.7751 -1.2435  0.4238
  104CHL1   C2113934   5.782   2.579   6.255 -0.0832 -0.2305 -0.0172
  104CHL1  H21A13935   5.814   2.542   6.355 -0.4765  1.0490  0.6099
  104CHL1  H21B13936   5.869   2.638   6.219  0.1696 -1.2035 -1.0237
  104CHL1  H21C13937   5.753   2.497   6.186 -2.5437  1.0249 -0.6300
  104CHL1   C2213938   5.638   2.728   6.109  0.1800  0.3075  0.5763
  104CHL1  H22A13939   5.562   2.807   6.122 -3.2280 -2.5618 -0.4067
  104CHL1  H22B13940   5.732   2.768   6.067 -0.8998  1.9522 -0.3596
  104CHL1   C2313941   5.582   2.635   5.999 -0.5778  0.3467 -0.3979
  104CHL1  H23A13942   5.646   2.544   6.004 -1.9388 -0.8148 -2.5517
  104CHL1  H23B13943   5.477   2.604   6.017 -1.4630  2.3738 -1.6842
  104CHL1   C2413944   5.580   2.697   5.855 -0.1315 -0.0755 -0.1201
  104CHL1  H24A13945   5.489   2.761   5.857 -0.1243 -0.0708  1.7968
  104CHL1  H24B13946   5.663   2.769   5.838 -1.8375  2.5529  1.9739
  104CHL1   C2513947   5.578   2.587   5.742  0.0033  0.8169  0.6879
  104CHL1   H2513948   5.669   2.524   5.752 -0.7589 -0.6677 -1.1983
  104CHL1   C2613949   5.456   2.495   5.756 -0.1681  0.7302 -0.1131
  104CHL1  H26A13950   5.442   2.421   5.837 -0.6240  0.0371 -0.8134
  104CHL1  H26B13951   5.370   2.563   5.770 -0.4073  0.3971  0.0231
  104CHL1  H26C13952   5.443   2.441   5.660 -0.3822 -0.8157  0.7608
  104CHL1   C2713953   5.575   2.655   5.603 -0.5448  0.2756  0.6208
  104CHL1  H27A13954   5.539   2.583   5.526  1.5553 -0.2134  0.0355
  104CHL1  H27B13955   5.500   2.736   5.600 -0.5747  0.2602 -2.3911
  104CHL1  H27C13956   5.679   2.680   5.576 -0.8459 -0.0023 -0.8894
  105CHL1    C313957   4.828   3.417   7.000  0.8657 -0.0534  0.6374
  105CHL1    H313958   4.718   3.423   7.016  0.9020 -0.8565  1.2834
  105CHL1    O313959   4.889   3.451   7.121  0.0088  0.1133 -0.3396
  105CHL1   H3'13960   4.844   3.528   7.157  0.8047  0.9104 -1.0264
  105CHL1    C413961   4.856   3.271   6.957 -0.5185 -0.6151  0.3347
  105CHL1   H4A13962   4.967   3.262   6.960 -0.1198  2.1981 -1.7229
  105CHL1   H4B13963   4.803   3.208   7.032 -2.3802  1.2693  0.6808
  105CHL1    C513964   4.807   3.241   6.817  0.0706  1.0505  0.4362
  105CHL1    C613965   4.741   3.124   6.789  0.4503  0.3083 -0.5328
  105CHL1    H613966   4.724   3.050   6.869  0.1458  1.3622  0.3918
  105CHL1    C713967   4.693   3.082   6.655  0.1628 -0.6244  0.0350
  105CHL1   H7A13968   4.720   2.977   6.631  1.2123 -0.0004 -1.7202
  105CHL1   H7B13969   4.583   3.086   6.658  0.1869  0.0926  0.0193
  105CHL1    C813970   4.742   3.169   6.538 -0.1219  0.1738 -0.2283
  105CHL1    H813971   4.845   3.134   6.517  0.2487  0.0884  1.5139
  105CHL1   C1413972   4.654   3.146   6.413  0.1824 -0.1923 -0.0214
  105CHL1   H1413973   4.552   3.182   6.439  0.9573  1.7081  0.4889
  105CHL1   C1513974   4.627   3.004   6.354 -0.0885  0.5289 -0.2083
  105CHL1  H15A13975   4.715   2.941   6.379  0.1420  1.9849  3.1595
  105CHL1  H15B13976   4.541   2.957   6.407  0.7958  0.9533  1.7069
  105CHL1   C1613977   4.603   3.028   6.208 -0.1352  0.4301  0.5320
  105CHL1  H16A13978   4.683   2.975   6.153 -0.1115  0.4362  0.5606
  105CHL1  H16B13979   4.501   2.986   6.190 -0.1830  0.6597  0.2568
  105CHL1   C1713980   4.615   3.175   6.176  0.3460 -0.2154 -0.4286
  105CHL1   H1713981   4.515   3.218   6.198  0.1559 -1.0926  0.4920
  105CHL1   C1313982   4.705   3.223   6.290 -0.1185 -0.9420  0.2909
  105CHL1   C1813983   4.850   3.180   6.255 -0.2223 -0.4184 -0.2797
  105CHL1  H18A13984   4.894   3.248   6.179 -0.9310 -0.8417 -1.0846
  105CHL1  H18B13985   4.916   3.172   6.345  0.5479 -0.6019 -0.8479
  105CHL1  H18C13986   4.845   3.082   6.203 -1.3799  1.1325 -3.2809
  105CHL1   C1213987   4.693   3.370   6.328 -0.2818  0.5771 -0.0748
  105CHL1  H12A13988   4.719   3.441   6.247  0.7863  1.0299  0.6337
  105CHL1  H12B13989   4.587   3.391   6.355 -0.6845 -0.0538 -1.1570
  105CHL1   C1113990   4.775   3.396   6.454 -0.3224  0.9831 -0.1720
  105CHL1  H11A13991   4.880   3.371   6.427 -0.7848 -3.7438  1.5704
  105CHL1  H11B13992   4.772   3.504   6.481  2.3599  1.5731 -1.8549
  105CHL1    C913993   4.744   3.317   6.583  0.6665 -0.1646 -0.7479
  105CHL1    H913994   4.642   3.352   6.610  1.5380  0.7612  1.5743
  105CHL1   C1013995   4.828   3.339   6.706  0.2244  0.1670 -0.4587
  105CHL1   C1913996   4.978   3.335   6.663  0.2342  0.0696 -0.5206
  105CHL1  H19A13997   4.991   3.234   6.620  1.2422  0.5578 -1.3969
  105CHL1  H19B13998   4.991   3.405   6.578 -0.9218  0.8610 -0.0757
  105CHL1  H19C13999   5.057   3.340   6.740 -0.9445 -2.5280  1.0057
  105CHL1    C114000   4.798   3.482   6.759  0.3335  0.3862  0.2396
  105CHL1   H1A14001   4.841   3.554   6.686 -0.2830 -2.1868 -2.8935
  105CHL1   H1B14002   4.689   3.500   6.766  0.3584  1.0219 -0.8500
  105CHL1    C214003   4.866   3.519   6.891 -0.4391  0.7386 -0.6237
  105CHL1   H2A14004   4.850   3.621   6.932  0.7989  0.6473  0.1542
  105CHL1   H2B14005   4.976   3.508   6.884 -0.0662  1.0232  3.0754
  105CHL1   C2014006   4.654   3.201   6.027  0.1934  0.4804  0.2902
  105CHL1   H2014007   4.764   3.188   6.015  0.0452 -0.2167 -0.3746
  105CHL1   C2114008   4.619   3.345   5.987  0.3624 -0.6856 -0.3742
  105CHL1  H21A14009   4.632   3.372   5.880  0.5082 -1.8611 -0.6612
  105CHL1  H21B14010   4.674   3.423   6.044  0.2598  0.0645 -1.2767
  105CHL1  H21C14011   4.510   3.363   6.000  0.0826 -2.1250 -0.5779
  105CHL1   C2214012   4.579   3.107   5.928 -0.0348  0.2185  0.0907
  105CHL1  H22A14013   4.618   3.004   5.945 -1.6678 -1.1278 -3.2622
  105CHL1  H22B14014   4.471   3.102   5.953 -0.6706 -2.3867 -2.6605
  105CHL1   C2314015   4.599   3.142   5.776 -0.0705 -0.1958 -0.1422
  105CHL1  H23A14016   4.541   3.062   5.724 -1.8699  1.2750 -0.5251
  105CHL1  H23B14017   4.550   3.239   5.751 -1.6715 -0.5211  1.4744
  105CHL1   C2414018   4.741   3.162   5.716 -0.0363 -0.4809 -0.2420
  105CHL1  H24A14019   4.808   3.228   5.775 -0.9384 -0.1340  0.4022
  105CHL1  H24B14020   4.795   3.065   5.716 -0.1255 -0.5831 -2.1984
  105CHL1   C2514021   4.741   3.213   5.571  0.2535  0.4053 -0.2375
  105CHL1   H2514022   4.654   3.283   5.566 -0.4499 -0.5371 -1.6887
  105CHL1   C2614023   4.877   3.280   5.534 -0.3954 -0.1881 -0.2192
  105CHL1  H26A14024   4.883   3.313   5.428  1.2767 -1.5265 -0.5971
  105CHL1  H26B14025   4.886   3.354   5.617  2.0770 -0.4298 -0.1961
  105CHL1  H26C14026   4.950   3.196   5.546 -2.6622 -2.1273  0.8382
  105CHL1   C2714027   4.713   3.114   5.463  0.5529  0.1636 -0.2162
  105CHL1  H27A14028   4.799   3.050   5.435  0.3757 -0.3137  0.3179
  105CHL1  H27B14029   4.626   3.054   5.496  1.5734 -0.6443  1.1173
  105CHL1  H27C14030   4.690   3.162   5.365  1.6857  0.9326 -0.1278
  106CHL1    C314031   1.382   3.135   6.536 -0.1312  0.5672 -0.4246
  106CHL1    H314032   1.271   3.137   6.536 -0.2744 -2.4591  0.7335
  106CHL1    O314033   1.410   3.199   6.659  0.2298 -0.1659 -0.1760
  106CHL1   H3'14034   1.426   3.293   6.647  0.9712 -0.5007 -2.1460
  106CHL1    C414035   1.443   2.993   6.544  0.1672  0.5636 -0.5231
  106CHL1   H4A14036   1.553   3.003   6.552  0.1443 -0.1259  1.1922
  106CHL1   H4B14037   1.407   2.938   6.633 -0.2374 -0.5768 -1.3689
  106CHL1    C514038   1.404   2.922   6.411 -0.7448 -0.9679  0.7780
  106CHL1    C614039   1.343   2.805   6.409 -0.0543 -0.0455 -0.2739
  106CHL1    H614040   1.311   2.770   6.508  2.9310 -0.9692  0.4629
  106CHL1    C714041   1.306   2.724   6.291 -0.4671  0.0367  0.5486
  106CHL1   H7A14042   1.334   2.617   6.300 -0.8782 -0.0870  0.3821
  106CHL1   H7B14043   1.196   2.716   6.276 -0.1194 -1.6019 -1.5408
  106CHL1    C814044   1.373   2.782   6.164 -0.2910  1.0149 -0.7507
  106CHL1    H814045   1.479   2.748   6.173 -0.4562  1.1240  2.9231
  106CHL1   C1414046   1.304   2.739   6.038 -0.3150  0.0975 -0.1820
  106CHL1   H1414047   1.206   2.790   6.041  0.0741  0.8904 -0.6183
  106CHL1   C1514048   1.263   2.592   6.025 -0.5925 -0.2939 -0.5558
  106CHL1  H15A14049   1.344   2.531   6.071  0.2239  0.8652 -0.4009
  106CHL1  H15B14050   1.172   2.574   6.086  0.7445  0.4188  1.7771
  106CHL1   C1614051   1.241   2.561   5.875 -0.5538  0.2488  0.4642
  106CHL1  H16A14052   1.306   2.475   5.852 -0.4885  0.7770 -1.5419
  106CHL1  H16B14053   1.136   2.534   5.853 -0.3478  0.2838 -0.6130
  106CHL1   C1714054   1.283   2.692   5.812 -0.2288  0.2302  0.8693
  106CHL1   H1714055   1.185   2.744   5.811 -0.7996 -0.7928  1.6073
  106CHL1   C1314056   1.376   2.769   5.912  0.0851 -0.5712  0.7069
  106CHL1   C1814057   1.518   2.705   5.901 -0.4595  0.1694  0.6105
  106CHL1  H18A14058   1.556   2.722   5.798  0.0468 -1.0566  0.5766
  106CHL1  H18B14059   1.592   2.752   5.970  1.3411 -0.5865 -0.7410
  106CHL1  H18C14060   1.516   2.595   5.919 -1.1360  0.1092  0.1726
  106CHL1   C1214061   1.388   2.919   5.895  0.3262 -0.3163  0.1604
  106CHL1  H12A14062   1.453   2.933   5.806 -0.9090  2.0214 -0.4695
  106CHL1  H12B14063   1.290   2.962   5.865 -0.0461 -3.0778 -3.3160
  106CHL1   C1114064   1.439   2.991   6.019 -0.3609 -0.1751  0.6592
  106CHL1  H11A14065   1.548   2.974   6.032 -0.1030  1.1545  0.2983
  106CHL1  H11B14066   1.422   3.099   6.001  1.0828 -0.1422 -0.7230
  106CHL1    C914067   1.384   2.938   6.158  0.6355  0.5355  0.2413
  106CHL1    H914068   1.276   2.963   6.157 -0.1504 -2.1582  3.0857
  106CHL1   C1014069   1.454   3.000   6.282 -0.5227  0.4930 -0.0532
  106CHL1   C1914070   1.609   2.968   6.287 -0.1910 -0.2542  0.2160
  106CHL1  H19A14071   1.668   3.023   6.210 -0.6676 -1.5102 -1.1036
  106CHL1  H19B14072   1.650   2.991   6.388 -1.9018 -0.3072  0.9603
  106CHL1  H19C14073   1.628   2.861   6.264 -0.8886 -0.7153  1.6810
  106CHL1    C114074   1.408   3.144   6.296 -0.3749 -0.2599 -0.2599
  106CHL1   H1A14075   1.442   3.205   6.210 -1.4198  0.6002 -0.0886
  106CHL1   H1B14076   1.298   3.128   6.289 -0.2550 -1.0299 -0.4256
  106CHL1    C214077   1.445   3.213   6.424  0.4779 -0.7424 -0.3707
  106CHL1   H2A14078   1.410   3.319   6.431 -0.5922 -1.0570 -0.7576
  106CHL1   H2B14079   1.555   3.205   6.431  0.9312  1.3557 -3.2674
  106CHL1   C2014080   1.318   2.681   5.662 -0.1391 -0.5031  0.1484
  106CHL1   H2014081   1.421   2.644   5.645  1.2827  2.6717  1.1321
  106CHL1   C2114082   1.311   2.817   5.587  0.3140 -0.5503  0.0019
  106CHL1  H21A14083   1.399   2.878   5.615 -1.4272  1.7653  0.7935
  106CHL1  H21B14084   1.218   2.876   5.605  2.3445  3.8148 -2.4418
  106CHL1  H21C14085   1.326   2.822   5.477 -1.2930  3.6763 -0.2022
  106CHL1   C2214086   1.232   2.586   5.584 -0.0172 -0.4640 -0.3825
  106CHL1  H22A14087   1.209   2.489   5.632 -2.6295 -0.8503 -2.2041
  106CHL1  H22B14088   1.132   2.634   5.580  0.0818 -0.1520  0.5430
  106CHL1   C2314089   1.282   2.549   5.445 -0.5162  1.0343  0.4721
  106CHL1  H23A14090   1.252   2.628   5.373  0.2553 -0.2981 -1.3870
  106CHL1  H23B14091   1.391   2.540   5.426 -0.6913  0.5904 -0.3993
  106CHL1   C2414092   1.233   2.410   5.397 -0.2803 -0.3291 -0.6697
  106CHL1  H24A14093   1.301   2.333   5.439  0.6366  0.6074 -0.4058
  106CHL1  H24B14094   1.132   2.388   5.438  0.4339 -1.9493  0.3076
  106CHL1   C2514095   1.228   2.393   5.245  0.5110 -0.4367  0.4935
  106CHL1   H2514096   1.328   2.414   5.202  0.3805 -0.8372 -0.0186
  106CHL1   C2614097   1.206   2.246   5.205  0.0331 -0.0215  0.3904
  106CHL1  H26A14098   1.208   2.231   5.095  0.5700 -0.3077  0.4369
  106CHL1  H26B14099   1.282   2.183   5.256  0.1509 -1.5144 -1.5205
  106CHL1  H26C14100   1.115   2.209   5.256 -0.5800  1.4217  0.3728
  106CHL1   C2714101   1.121   2.483   5.179 -0.2027 -0.3831 -0.5363
  106CHL1  H27A14102   1.110   2.577   5.237 -0.3252 -1.2276  0.8553
  106CHL1  H27B14103   1.157   2.506   5.076 -0.0244  1.5046 -0.0831
  106CHL1  H27C14104   1.022   2.433   5.181 -0.8624  0.9029  0.6172
  107CHL1    C314105   4.336   6.396   6.485 -0.4371  0.7232 -0.4267
  107CHL1    H314106   4.371   6.291   6.490 -0.9813  0.5909  3.0843
  107CHL1    O314107   4.304   6.436   6.617 -0.3048  0.1590  0.2568
  107CHL1   H3'14108   4.372   6.395   6.671  1.0898 -0.5006 -1.8670
  107CHL1    C414109   4.451   6.482   6.424  0.0142 -0.8483  1.5296
  107CHL1   H4A14110   4.425   6.589   6.434  0.4025 -0.7829  1.8584
  107CHL1   H4B14111   4.545   6.470   6.482  0.1094 -1.5426  1.2531
  107CHL1    C514112   4.473   6.451   6.274  0.4049  0.6806  0.3158
  107CHL1    C614113   4.594   6.413   6.226  0.5278  0.2043  0.2660
  107CHL1    H614114   4.681   6.413   6.294 -0.2991  0.8827  1.3706
  107CHL1    C714115   4.623   6.381   6.083 -0.2073 -0.2927  0.2114
  107CHL1   H7A14116   4.716   6.432   6.050 -1.1304  0.6112 -1.0850
  107CHL1   H7B14117   4.651   6.274   6.078  1.7886  0.1027  1.6400
  107CHL1    C814118   4.510   6.422   5.984 -0.0144 -0.0248  0.3250
  107CHL1    H814119   4.510   6.530   5.955 -2.4541 -0.2741 -0.7820
  107CHL1   C1414120   4.527   6.334   5.864  0.5736 -0.5795  0.7208
  107CHL1   H1414121   4.522   6.231   5.904  0.7195  0.8531  4.8280
  107CHL1   C1514122   4.655   6.358   5.789 -0.6113 -0.6024  0.2205
  107CHL1  H15A14123   4.687   6.464   5.785 -0.0100 -0.7631  0.5745
  107CHL1  H15B14124   4.739   6.300   5.833 -0.7776 -1.9589 -1.1390
  107CHL1   C1614125   4.628   6.315   5.645  0.0545  0.4613 -0.3573
  107CHL1  H16A14126   4.665   6.396   5.578  0.4125 -0.9295 -1.9154
  107CHL1  H16B14127   4.679   6.218   5.624 -1.6759 -0.3522 -1.0686
  107CHL1   C1714128   4.480   6.277   5.635  0.0488 -0.5567 -0.0823
  107CHL1   H1714129   4.475   6.173   5.674  0.8205 -0.1438  1.1984
  107CHL1   C1314130   4.418   6.356   5.756 -0.4357  0.0661 -0.1043
  107CHL1   C1814131   4.417   6.506   5.698 -0.5323 -0.5711  0.0136
  107CHL1  H18A14132   4.333   6.511   5.625  0.4909  1.3247 -1.1371
  107CHL1  H18B14133   4.396   6.575   5.782 -0.1272 -0.9244  0.4088
  107CHL1  H18C14134   4.509   6.542   5.646 -1.5565  0.1418 -1.3957
  107CHL1   C1214135   4.285   6.314   5.811  0.3897  0.6541 -0.1107
  107CHL1  H12A14136   4.210   6.332   5.732  0.6732  2.3413 -0.0331
  107CHL1  H12B14137   4.297   6.206   5.832 -1.1867  0.4089 -0.3578
  107CHL1   C1114138   4.260   6.398   5.937  0.4918 -0.3866 -0.0636
  107CHL1  H11A14139   4.253   6.504   5.904 -0.2198 -0.4041  0.0018
  107CHL1  H11B14140   4.156   6.384   5.975  0.5864 -1.2704 -0.1094
  107CHL1    C914141   4.375   6.385   6.045  0.5976  0.3475 -0.4995
  107CHL1    H914142   4.374   6.275   6.064 -2.3635  0.7783  2.7714
  107CHL1   C1014143   4.345   6.448   6.186  0.0897 -0.0438 -0.4002
  107CHL1   C1914144   4.292   6.589   6.164  0.3505  0.4986 -0.3234
  107CHL1  H19A14145   4.365   6.643   6.099  1.4387  1.2789  1.4504
  107CHL1  H19B14146   4.192   6.591   6.116  1.2209  0.0873 -2.2394
  107CHL1  H19C14147   4.272   6.638   6.262 -0.8851  0.1166 -0.3671
  107CHL1    C114148   4.240   6.366   6.260  0.4544  0.3749 -0.4453
  107CHL1   H1A14149   4.145   6.384   6.205 -1.0535  0.3443  2.0233
  107CHL1   H1B14150   4.265   6.258   6.245  0.4072  0.4342 -0.9909
  107CHL1    C214151   4.211   6.394   6.404 -0.3997  0.0911  0.3748
  107CHL1   H2A14152   4.146   6.308   6.431  0.5427 -0.7434  0.0536
  107CHL1   H2B14153   4.161   6.492   6.417 -1.1778  0.7259 -5.2961
  107CHL1   C2014154   4.425   6.292   5.489 -0.4874 -0.9418 -0.2864
  107CHL1   H2014155   4.435   6.400   5.463 -0.6857 -0.5730  1.0701
  107CHL1   C2114156   4.274   6.248   5.486 -0.1249  0.5711 -0.9511
  107CHL1  H21A14157   4.237   6.247   5.381 -0.0614  1.2079 -0.9863
  107CHL1  H21B14158   4.212   6.329   5.531  1.4904  2.8705 -2.6193
  107CHL1  H21C14159   4.244   6.152   5.532  0.3664  0.7541 -0.2297
  107CHL1   C2214160   4.515   6.209   5.387 -0.0916 -0.7344  0.2618
  107CHL1  H22A14161   4.622   6.230   5.410 -0.3447  0.2432  0.5563
  107CHL1  H22B14162   4.492   6.101   5.396  0.2680 -0.8923 -0.6011
  107CHL1   C2314163   4.499   6.238   5.238 -1.1666  0.1233 -0.0895
  107CHL1  H23A14164   4.394   6.217   5.206 -0.4876  0.5177 -2.7834
  107CHL1  H23B14165   4.508   6.348   5.227 -1.0194 -0.0585 -2.2425
  107CHL1   C2414166   4.610   6.184   5.145 -0.0810  0.1338 -0.2709
  107CHL1  H24A14167   4.707   6.231   5.171  0.0615  0.6364 -1.6566
  107CHL1  H24B14168   4.618   6.074   5.152 -2.7753 -0.4401 -3.6710
  107CHL1   C2514169   4.587   6.215   5.000 -0.1090  0.3634  0.7109
  107CHL1   H2514170   4.684   6.183   4.957  0.0953  0.9175  0.7494
  107CHL1   C2614171   4.484   6.126   4.924 -0.0942 -0.3932 -0.7353
  107CHL1  H26A14172   4.391   6.136   4.983  0.5092 -0.8705  0.3304
  107CHL1  H26B14173   4.486   6.162   4.819  0.9526  2.0352  0.0623
  107CHL1  H26C14174   4.530   6.025   4.933  0.2932 -0.1962 -0.4610
  107CHL1   C2714175   4.558   6.362   4.976  0.1138  0.1545 -0.1619
  107CHL1  H27A14176   4.534   6.382   4.869 -3.6206 -1.5460  0.1942
  107CHL1  H27B14177   4.473   6.403   5.034 -0.4928 -3.1174  1.5157
  107CHL1  H27C14178   4.656   6.409   5.000  0.1508  0.2170 -0.4339
  108CHL1    C314179   4.859   1.650   7.169 -0.7651  0.6592 -0.1578
  108CHL1    H314180   4.907   1.550   7.178  2.4964  2.2632  1.7408
  108CHL1    O314181   4.762   1.653   7.269 -0.1474 -0.7132 -0.5817
  108CHL1   H3'14182   4.806   1.681   7.350 -3.4701 -1.3810  1.6714
  108CHL1    C414183   4.965   1.764   7.182  0.4645 -0.6992 -0.6694
  108CHL1   H4A14184   4.922   1.866   7.191 -0.2955 -0.9080 -1.7712
  108CHL1   H4B14185   5.011   1.744   7.282  2.2484 -2.1160 -1.7095
  108CHL1    C514186   5.070   1.761   7.072 -0.0466 -0.2480  0.5031
  108CHL1    C614187   5.198   1.721   7.091  0.4420 -0.5116 -0.4251
  108CHL1    H614188   5.223   1.714   7.198 -4.0891  1.8626  1.0433
  108CHL1    C714189   5.306   1.734   6.992  0.1422  0.3243 -0.5848
  108CHL1   H7A14190   5.383   1.800   7.038 -1.0218  0.4317  1.2935
  108CHL1   H7B14191   5.360   1.637   6.986 -1.8095 -0.9369  1.0653
  108CHL1    C814192   5.258   1.791   6.852 -0.1115 -0.2635 -0.1335
  108CHL1    H814193   5.255   1.901   6.868  1.2043 -0.2431  0.1165
  108CHL1   C1414194   5.350   1.757   6.739 -0.7073  0.3360  0.4807
  108CHL1   H1414195   5.354   1.646   6.733  1.7531  0.4343 -1.1385
  108CHL1   C1514196   5.495   1.801   6.765  1.3398  0.3401 -0.0386
  108CHL1  H15A14197   5.499   1.905   6.805 -0.9702  0.1049  1.0035
  108CHL1  H15B14198   5.556   1.732   6.826  1.7086 -0.3626 -1.1769
  108CHL1   C1614199   5.555   1.793   6.621 -0.5148 -0.1231 -1.0298
  108CHL1  H16A14200   5.607   1.888   6.598 -2.5933  0.6846 -2.6865
  108CHL1  H16B14201   5.630   1.711   6.619  0.3745  0.5246  1.4838
  108CHL1   C1714202   5.429   1.758   6.522  0.0952  0.4806  0.1934
  108CHL1   H1714203   5.416   1.648   6.512  0.3679  0.4772 -0.1730
  108CHL1   C1314204   5.312   1.808   6.601 -0.3609 -0.0077  0.4119
  108CHL1   C1814205   5.290   1.963   6.599 -0.6148 -0.6136 -0.5901
  108CHL1  H18A14206   5.382   2.026   6.605 -0.4726 -0.8902  0.3026
  108CHL1  H18B14207   5.248   1.981   6.498 -0.0009 -1.5638 -1.0319
  108CHL1  H18C14208   5.220   1.996   6.678  1.7126 -0.8702  1.7455
  108CHL1   C1214209   5.175   1.736   6.565  0.3254  0.0502  0.3123
  108CHL1  H12A14210   5.140   1.776   6.468 -0.9034  1.1067  1.1633
  108CHL1  H12B14211   5.184   1.625   6.557 -1.3528 -0.1120  0.3675
  108CHL1   C1114212   5.068   1.758   6.675  0.1557 -0.4358  0.6360
  108CHL1  H11A14213   5.030   1.862   6.665  0.3955 -0.1073  2.7009
  108CHL1  H11B14214   4.983   1.687   6.663 -1.6962  1.8175 -0.4844
  108CHL1    C914215   5.113   1.738   6.818 -0.4675  0.0179  0.2668
  108CHL1    H914216   5.133   1.628   6.823  0.4523  0.0971 -0.9997
  108CHL1   C1014217   5.015   1.770   6.927  0.9900 -0.1853 -0.5135
  108CHL1   C1914218   4.951   1.912   6.910  0.2275 -0.3458 -0.1349
  108CHL1  H19A14219   4.896   1.942   7.002 -0.1335 -2.1520  0.2736
  108CHL1  H19B14220   5.030   1.990   6.899 -0.2052  0.5523  2.2846
  108CHL1  H19C14221   4.893   1.925   6.817 -0.4249  0.6672  0.3913
  108CHL1    C114222   4.904   1.659   6.913  0.8937 -0.1181 -0.1273
  108CHL1   H1A14223   4.843   1.664   6.821 -0.6321 -2.0609  0.7100
  108CHL1   H1B14224   4.957   1.564   6.937 -0.9726 -0.9893  0.7810
  108CHL1    C214225   4.790   1.655   7.031 -0.6459  0.1966  0.6950
  108CHL1   H2A14226   4.717   1.572   7.017 -2.0571  1.7214 -1.7385
  108CHL1   H2B14227   4.726   1.746   7.019  0.2666  0.8670  0.8503
  108CHL1   C2014228   5.457   1.806   6.383 -0.1308  0.3257 -0.2504
  108CHL1   H2014229   5.473   1.916   6.376 -3.1143  0.8503  0.0434
  108CHL1   C2114230   5.338   1.776   6.282 -0.1776  0.6475 -0.2429
  108CHL1  H21A14231   5.379   1.786   6.179  1.7983  0.8640  0.5222
  108CHL1  H21B14232   5.257   1.848   6.305 -0.5157 -0.4905  2.4627
  108CHL1  H21C14233   5.300   1.672   6.294 -0.3483  0.6307 -0.8704
  108CHL1   C2214234   5.583   1.742   6.310 -0.3974  0.2011 -0.2336
  108CHL1  H22A14235   5.588   1.771   6.203  1.6539 -1.5638 -0.6878
  108CHL1  H22B14236   5.666   1.794   6.361 -0.8026  0.7445 -0.1265
  108CHL1   C2314237   5.594   1.590   6.313  0.5664  0.8140  0.1492
  108CHL1  H23A14238   5.590   1.561   6.420 -1.7726 -0.0743 -0.1143
  108CHL1  H23B14239   5.503   1.543   6.271  1.2595 -0.7226  0.3305
  108CHL1   C2414240   5.702   1.524   6.239  0.1392  0.0296 -0.8469
  108CHL1  H24A14241   5.678   1.523   6.131 -0.9951  2.5938 -0.6724
  108CHL1  H24B14242   5.800   1.575   6.255  2.0639 -3.0382 -1.9403
  108CHL1   C2514243   5.740   1.378   6.277 -0.4555  0.4085  0.4191
  108CHL1   H2514244   5.738   1.354   6.386  2.8204 -1.0031  0.2938
  108CHL1   C2614245   5.647   1.278   6.208  0.3210 -0.3260 -0.0894
  108CHL1  H26A14246   5.541   1.275   6.242  0.1751  0.5061 -0.4290
  108CHL1  H26B14247   5.650   1.303   6.100  2.3543 -0.4307 -0.0910
  108CHL1  H26C14248   5.678   1.173   6.227 -2.4177 -1.1905  0.0843
  108CHL1   C2714249   5.887   1.343   6.235  0.0091 -0.3326  0.1388
  108CHL1  H27A14250   5.956   1.423   6.270 -1.1944  1.6191 -1.7281
  108CHL1  H27B14251   5.913   1.241   6.269 -1.8832 -1.4425 -1.5294
  108CHL1  H27C14252   5.900   1.333   6.125  1.2423 -0.4214  0.2789
  109CHL1    C314253   3.271   6.327   6.374 -0.2010  0.3823 -0.6314
  109CHL1    H314254   3.179   6.264   6.371 -1.0928  1.6216 -0.2268
  109CHL1    O314255   3.308   6.348   6.507  0.5840  0.5928 -0.4175
  109CHL1   H3'14256   3.257   6.425   6.534  1.3098  0.6629  0.8331
  109CHL1    C414257   3.394   6.268   6.304 -0.6835 -0.4659 -0.2204
  109CHL1   H4A14258   3.483   6.332   6.322 -1.1937 -0.0815  1.0875
  109CHL1   H4B14259   3.409   6.172   6.359 -0.2952  0.7222  1.8619
  109CHL1    C514260   3.374   6.253   6.153 -0.2308 -0.5378  0.3901
  109CHL1    C614261   3.393   6.133   6.094 -0.2135 -0.4740 -0.2418
  109CHL1    H614262   3.424   6.047   6.155  2.5736 -0.0060 -0.8482
  109CHL1    C714263   3.387   6.108   5.948 -0.2139  0.4077  0.3213
  109CHL1   H7A14264   3.481   6.063   5.911  0.5309  1.2232  1.1863
  109CHL1   H7B14265   3.293   6.051   5.928  1.2886 -2.7104  1.4676
  109CHL1    C814266   3.386   6.245   5.875 -0.1802  0.2726  0.3517
  109CHL1    H814267   3.487   6.288   5.887 -0.3370  1.4498 -1.9198
  109CHL1   C1414268   3.359   6.219   5.731 -0.0777 -0.5494  0.3203
  109CHL1   H1414269   3.253   6.185   5.729 -0.2591 -0.0271  0.6325
  109CHL1   C1514270   3.443   6.127   5.645  0.1490 -0.4722  0.2729
  109CHL1  H15A14271   3.549   6.154   5.661 -0.1277  1.1947 -0.4834
  109CHL1  H15B14272   3.420   6.021   5.668 -1.3909  0.4645  3.7876
  109CHL1   C1614273   3.408   6.171   5.501  0.2329 -0.0446  0.0358
  109CHL1  H16A14274   3.504   6.187   5.447  0.2012 -0.1938 -0.0646
  109CHL1  H16B14275   3.354   6.094   5.443  4.8169 -1.9466 -2.1792
  109CHL1   C1714276   3.322   6.299   5.517 -0.1673  0.5559 -0.0589
  109CHL1   H1714277   3.219   6.258   5.524 -1.3964  3.1734 -1.2215
  109CHL1   C1314278   3.344   6.350   5.660 -0.2216  0.1242  0.1289
  109CHL1   C1814279   3.477   6.428   5.657  0.0921  0.0469 -0.2466
  109CHL1  H18A14280   3.508   6.463   5.758 -1.5265  0.9979 -0.0351
  109CHL1  H18B14281   3.567   6.377   5.616 -0.0501  0.2124 -0.7795
  109CHL1  H18C14282   3.452   6.517   5.594 -1.2229 -0.1241 -0.0003
  109CHL1   C1214283   3.232   6.427   5.717  0.4330 -0.2252 -0.4969
  109CHL1  H12A14284   3.220   6.511   5.645  0.5235  0.2941  0.0912
  109CHL1  H12B14285   3.137   6.371   5.730 -0.3261  1.3894  1.4560
  109CHL1   C1114286   3.262   6.472   5.858 -0.4824 -0.3905 -0.4365
  109CHL1  H11A14287   3.339   6.551   5.869  0.6311 -1.1002 -2.4955
  109CHL1  H11B14288   3.173   6.529   5.891 -0.2003 -0.6592  0.8356
  109CHL1    C914289   3.293   6.344   5.946  0.0160  0.2371  0.3288
  109CHL1    H914290   3.190   6.302   5.947  0.6064 -1.2570  0.8256
  109CHL1   C1014291   3.345   6.381   6.085 -0.4253  0.4580 -0.2130
  109CHL1   C1914292   3.468   6.474   6.095  0.4241  0.6783 -0.0667
  109CHL1  H19A14293   3.558   6.441   6.040  1.0321  0.3545  1.0945
  109CHL1  H19B14294   3.438   6.577   6.065  0.9422  0.8200 -0.0996
  109CHL1  H19C14295   3.496   6.489   6.201 -0.8041  0.7291  0.2638
  109CHL1    C114296   3.220   6.448   6.158 -0.8041  0.2047  1.1639
  109CHL1   H1A14297   3.212   6.551   6.118 -0.2139  0.2022  1.0329
  109CHL1   H1B14298   3.131   6.393   6.122  0.7556 -3.4542  2.3300
  109CHL1    C214299   3.231   6.464   6.310 -0.0919  0.8267  0.5701
  109CHL1   H2A14300   3.142   6.511   6.356 -0.7826  0.5506 -0.4449
  109CHL1   H2B14301   3.313   6.536   6.332  1.3935 -0.6340 -0.0290
  109CHL1   C2014302   3.325   6.394   5.400  0.7631  0.4325 -0.0674
  109CHL1   H2014303   3.274   6.484   5.440 -0.8704  0.3351 -1.7953
  109CHL1   C2114304   3.215   6.341   5.299 -1.1400  0.4240 -0.0956
  109CHL1  H21A14305   3.197   6.416   5.220 -2.8174  1.5243  1.2456
  109CHL1  H21B14306   3.112   6.332   5.342 -1.3158  0.7242 -0.4529
  109CHL1  H21C14307   3.246   6.245   5.252 -2.4909 -0.1904  0.1836
  109CHL1   C2214308   3.461   6.410   5.334  0.1750 -0.5827  0.0523
  109CHL1  H22A14309   3.545   6.424   5.406  1.6330  3.6026 -2.1238
  109CHL1  H22B14310   3.484   6.321   5.272  0.4401 -1.0539  0.8092
  109CHL1   C2314311   3.479   6.545   5.256 -0.2452  0.1239  0.1106
  109CHL1  H23A14312   3.387   6.575   5.203 -2.1755 -1.3762  2.4014
  109CHL1  H23B14313   3.508   6.621   5.332  0.9871  0.8928 -1.0931
  109CHL1   C2414314   3.581   6.514   5.150 -0.3897  0.4703 -0.2646
  109CHL1  H24A14315   3.675   6.472   5.192 -1.5952  0.5760  2.8208
  109CHL1  H24B14316   3.539   6.436   5.083 -2.2916  0.1662  1.1792
  109CHL1   C2514317   3.609   6.632   5.058 -0.0835 -0.0091  0.5778
  109CHL1   H2514318   3.521   6.669   5.001  2.3071  2.0408 -2.0455
  109CHL1   C2614319   3.658   6.755   5.134  0.1096  0.1453  0.2654
  109CHL1  H26A14320   3.766   6.743   5.156 -0.0893  1.0483  1.8127
  109CHL1  H26B14321   3.642   6.844   5.070 -0.1062  0.1042  0.2634
  109CHL1  H26C14322   3.605   6.772   5.230 -0.5633 -3.1691  0.6022
  109CHL1   C2714323   3.712   6.590   4.942  0.2176  0.5977 -0.8968
  109CHL1  H27A14324   3.660   6.527   4.867 -1.5547  2.4344 -1.3033
  109CHL1  H27B14325   3.756   6.686   4.909  3.5596 -0.4501  0.1245
  109CHL1  H27C14326   3.801   6.536   4.981  0.1856  0.1648 -1.4076
  110CHL1    C314327   2.176   5.997   6.238  0.9423 -0.4808 -0.9467
  110CHL1    H314328   2.242   6.065   6.178  0.0239  0.2086 -1.1997
  110CHL1    O314329   2.149   6.052   6.366 -0.0646  0.2274 -0.3711
  110CHL1   H3'14330   2.223   6.046   6.426  0.3936  1.8898 -0.7260
  110CHL1    C414331   2.050   5.958   6.154  0.9946 -0.9034 -0.5336
  110CHL1   H4A14332   1.991   5.885   6.213  0.0133 -1.3719 -2.0196
  110CHL1   H4B14333   2.004   6.059   6.141 -1.4902 -1.5900  1.9308
  110CHL1    C514334   2.080   5.890   6.022  0.4865  0.0371  0.8053
  110CHL1    C614335   2.041   5.948   5.907  0.8475  0.2664 -0.4065
  110CHL1    H614336   1.979   6.038   5.915 -1.9898 -1.5401 -0.5174
  110CHL1    C714337   2.074   5.889   5.775 -0.3986 -0.2155  0.1433
  110CHL1   H7A14338   1.995   5.908   5.698 -1.0569 -0.6400  0.7019
  110CHL1   H7B14339   2.170   5.921   5.730 -1.0483 -0.0847 -1.2243
  110CHL1    C814340   2.106   5.743   5.788  0.7440 -0.2264  0.5296
  110CHL1    H814341   2.014   5.693   5.823 -0.0173 -0.2496 -1.3931
  110CHL1   C1414342   2.154   5.685   5.654  0.0105  0.2459 -0.4397
  110CHL1   H1414343   2.238   5.747   5.616  0.2594 -1.1057 -2.2439
  110CHL1   C1514344   2.057   5.699   5.530 -0.5124 -0.5658  0.5957
  110CHL1  H15A14345   1.952   5.683   5.563 -1.5047  0.3159 -1.9184
  110CHL1  H15B14346   2.062   5.799   5.483 -0.0812 -1.4597 -1.3275
  110CHL1   C1614347   2.112   5.591   5.431  0.3251 -0.5403 -0.0564
  110CHL1  H16A14348   2.019   5.530   5.430 -1.7881  2.4442 -1.9760
  110CHL1  H16B14349   2.142   5.618   5.328  0.8850 -2.3708 -0.4063
  110CHL1   C1714350   2.224   5.512   5.510  0.1812 -0.7555  0.5047
  110CHL1   H1714351   2.325   5.555   5.489 -1.0972  2.0371 -0.3773
  110CHL1   C1314352   2.196   5.541   5.661 -0.4738 -0.0324  0.1111
  110CHL1   C1814353   2.076   5.447   5.708  0.0165  0.1644  0.1875
  110CHL1  H18A14354   2.120   5.346   5.723 -0.8491 -0.4046 -0.9716
  110CHL1  H18B14355   2.032   5.484   5.803  0.9730  0.4544  0.5298
  110CHL1  H18C14356   2.000   5.449   5.627  0.8035 -0.1723 -0.5772
  110CHL1   C1214357   2.320   5.531   5.747  0.1928 -0.7436 -0.6797
  110CHL1  H12A14358   2.361   5.427   5.749  3.6355  0.4872 -1.4643
  110CHL1  H12B14359   2.399   5.598   5.708  0.8840 -1.4611 -0.5566
  110CHL1   C1114360   2.297   5.578   5.891 -0.9753 -0.0326 -0.0804
  110CHL1  H11A14361   2.230   5.504   5.939  0.2868 -0.9446  0.3316
  110CHL1  H11B14362   2.392   5.575   5.950 -1.0392 -0.2646  0.0129
  110CHL1    C914363   2.218   5.721   5.895  0.4227  0.4596  0.2886
  110CHL1    H914364   2.296   5.795   5.866  0.4130 -0.4095 -2.2046
  110CHL1   C1014365   2.167   5.759   6.034  0.5100 -0.5621 -0.0547
  110CHL1   C1914366   2.073   5.647   6.099  0.9673 -0.2074  0.1583
  110CHL1  H19A14367   2.132   5.557   6.130 -0.2054 -0.9206  0.3811
  110CHL1  H19B14368   2.037   5.677   6.200  1.7958 -1.4636  0.8547
  110CHL1  H19C14369   1.983   5.619   6.041 -0.0104 -0.6235  1.7833
  110CHL1    C114370   2.285   5.787   6.133 -0.2080 -0.2133 -0.1022
  110CHL1   H1A14371   2.337   5.690   6.148  1.6237  0.4919 -1.4403
  110CHL1   H1B14372   2.359   5.847   6.075  1.1875 -0.8665  0.9189
  110CHL1    C214373   2.249   5.868   6.258 -0.2217 -0.2639 -0.3323
  110CHL1   H2A14374   2.343   5.885   6.315  0.1383 -2.1087 -0.3143
  110CHL1   H2B14375   2.182   5.808   6.324  1.7065  1.1900  3.2148
  110CHL1   C2014376   2.239   5.360   5.463  0.1186  0.2012  0.0128
  110CHL1   H2014377   2.137   5.321   5.481 -1.0553  1.4059 -3.2263
  110CHL1   C2114378   2.351   5.284   5.534 -0.3379  0.4763  0.5500
  110CHL1  H21A14379   2.368   5.189   5.479  0.5972  0.0977  1.4773
  110CHL1  H21B14380   2.311   5.252   5.633 -1.1664  2.4806  0.9036
  110CHL1  H21C14381   2.445   5.341   5.544  0.9520 -1.0403 -1.9167
  110CHL1   C2214382   2.253   5.347   5.314 -0.3306 -0.3325  0.6624
  110CHL1  H22A14383   2.208   5.434   5.260 -1.9084  0.1891  2.6837
  110CHL1  H22B14384   2.363   5.344   5.302 -0.4945 -3.2793 -0.9489
  110CHL1   C2314385   2.186   5.223   5.249  0.2590 -0.2929 -0.4691
  110CHL1  H23A14386   2.248   5.135   5.277  0.9098  0.7626  1.6005
  110CHL1  H23B14387   2.089   5.221   5.303 -0.6290 -0.3541 -2.0145
  110CHL1   C2414388   2.155   5.209   5.101  0.0868 -0.6508  0.0552
  110CHL1  H24A14389   2.251   5.201   5.046 -0.4663 -0.9247 -0.9080
  110CHL1  H24B14390   2.110   5.110   5.079  2.1443 -1.4273 -0.8228
  110CHL1   C2514391   2.081   5.327   5.035  0.6216 -0.4505 -0.1555
  110CHL1   H2514392   2.138   5.423   5.038  0.2213 -0.2192  0.2745
  110CHL1   C2614393   2.062   5.305   4.884 -0.4203 -0.1462  0.3213
  110CHL1  H26A14394   1.993   5.219   4.869  0.1124 -0.9846  2.3023
  110CHL1  H26B14395   2.012   5.388   4.829 -0.7758  0.4966  1.5833
  110CHL1  H26C14396   2.162   5.287   4.838 -0.6892  0.9540 -0.7403
  110CHL1   C2714397   1.942   5.353   5.097 -0.2417  0.0426  0.7618
  110CHL1  H27A14398   1.902   5.448   5.054  1.3215 -0.4868 -2.1377
  110CHL1  H27B14399   1.876   5.272   5.062  0.6252 -0.8182  1.0779
  110CHL1  H27C14400   1.936   5.363   5.208 -0.6945 -0.1472  0.7565
  111CHL1    C314401   2.076   0.843   6.524  0.1369  0.9581  0.2057
  111CHL1    H314402   1.984   0.812   6.471  0.5071 -2.7950  1.4111
  111CHL1    O314403   2.055   0.849   6.670 -0.5098 -0.6045  0.4084
  111CHL1   H3'14404   2.000   0.925   6.689  1.3863  0.5525  1.5576
  111CHL1    C414405   2.164   0.720   6.502 -0.6394  1.0210 -0.3158
  111CHL1   H4A14406   2.250   0.720   6.572  0.3631  1.4741 -1.5204
  111CHL1   H4B14407   2.106   0.627   6.521 -2.3986  1.3311 -3.5157
  111CHL1    C514408   2.210   0.726   6.361  0.1808 -1.2360  0.3608
  111CHL1    C614409   2.193   0.626   6.275  0.4958 -0.5064 -0.3242
  111CHL1    H614410   2.145   0.531   6.303  0.1346 -1.1299 -2.8420
  111CHL1    C714411   2.245   0.624   6.134  1.1903  0.2096  0.0582
  111CHL1   H7A14412   2.281   0.523   6.106  2.1858  0.7949 -0.8374
  111CHL1   H7B14413   2.164   0.645   6.060  1.6214  1.4286 -0.0964
  111CHL1    C814414   2.355   0.725   6.109  0.7260  0.8164  0.4065
  111CHL1    H814415   2.444   0.699   6.169  0.4969  1.8137  1.2098
  111CHL1   C1414416   2.379   0.735   5.958  0.5424  0.0367 -0.6692
  111CHL1   H1414417   2.287   0.774   5.911  0.6010  0.8860 -0.0993
  111CHL1   C1514418   2.411   0.601   5.883 -0.1271  0.0661  0.3479
  111CHL1  H15A14419   2.487   0.539   5.934 -0.7719 -1.0027  0.0488
  111CHL1  H15B14420   2.313   0.549   5.877 -1.1545  1.8573  0.8424
  111CHL1   C1614421   2.460   0.660   5.747  0.0573 -0.3597 -0.4477
  111CHL1  H16A14422   2.554   0.603   5.730  1.7101  1.7580  1.0895
  111CHL1  H16B14423   2.395   0.631   5.661  0.3089 -3.2202  0.2237
  111CHL1   C1714424   2.487   0.817   5.770 -1.1414 -0.3213  0.0210
  111CHL1   H1714425   2.394   0.866   5.734 -1.1213 -0.5514 -0.3511
  111CHL1   C1314426   2.483   0.839   5.921 -0.2638  0.7156 -0.5693
  111CHL1   C1814427   2.620   0.800   5.977 -0.2394 -0.3783 -0.3456
  111CHL1  H18A14428   2.662   0.706   5.933  2.4664 -0.0406  1.2619
  111CHL1  H18B14429   2.694   0.881   5.959  1.0306 -1.5034 -0.4151
  111CHL1  H18C14430   2.612   0.767   6.082 -2.6085 -2.3526 -1.0497
  111CHL1   C1214431   2.437   0.983   5.973  0.1463 -0.0591 -0.5833
  111CHL1  H12A14432   2.517   1.058   5.953  0.4502 -0.7313 -2.0102
  111CHL1  H12B14433   2.338   1.011   5.931  0.2550  0.1462 -0.7015
  111CHL1   C1114434   2.414   0.978   6.123 -0.0618  0.7805 -1.0903
  111CHL1  H11A14435   2.511   0.946   6.166 -0.2866 -0.1954 -1.2900
  111CHL1  H11B14436   2.371   1.074   6.159 -0.8669 -0.4034  1.2490
  111CHL1    C914437   2.310   0.863   6.155  0.0558  0.3886  0.6722
  111CHL1    H914438   2.215   0.891   6.104 -1.1599 -0.4936  2.3215
  111CHL1   C1014439   2.282   0.867   6.307  0.0232  0.1940 -0.3038
  111CHL1   C1914440   2.402   0.884   6.396  0.2922  0.4060 -0.1012
  111CHL1  H19A14441   2.376   0.893   6.503 -0.4161 -0.7544 -0.1614
  111CHL1  H19B14442   2.476   0.805   6.372  0.0964 -0.8347  2.9178
  111CHL1  H19C14443   2.457   0.978   6.371  0.2686 -0.1934 -2.7071
  111CHL1    C114444   2.192   0.987   6.350 -0.2661  0.1136 -0.2571
  111CHL1   H1A14445   2.239   1.087   6.340 -1.1733  0.5937  0.1638
  111CHL1   H1B14446   2.110   0.995   6.275 -2.0287 -0.2158  1.5488
  111CHL1    C214447   2.135   0.981   6.493 -0.4634  0.2526  0.3715
  111CHL1   H2A14448   2.066   1.068   6.500 -0.2921  0.6193 -1.9113
  111CHL1   H2B14449   2.218   0.998   6.565  0.1059  0.6661 -0.3743
  111CHL1   C2014450   2.599   0.869   5.681 -0.7410 -0.0709  0.4709
  111CHL1   H2014451   2.689   0.805   5.694  0.0970  0.7688 -0.8556
  111CHL1   C2114452   2.624   1.026   5.705 -0.0529  0.1366  0.5727
  111CHL1  H21A14453   2.543   1.093   5.668  0.2980  0.2578  0.0034
  111CHL1  H21B14454   2.711   1.066   5.648 -1.7211  2.4080 -0.5495
  111CHL1  H21C14455   2.653   1.039   5.811 -0.2804 -0.2192  0.6807
  111CHL1   C2214456   2.559   0.857   5.525 -0.1599 -0.2533  0.0799
  111CHL1  H22A14457   2.545   0.748   5.510  2.4963 -0.2951 -3.1415
  111CHL1  H22B14458   2.467   0.917   5.509 -1.2968 -1.8493  0.3447
  111CHL1   C2314459   2.670   0.904   5.431 -0.1458 -0.3621 -0.3784
  111CHL1  H23A14460   2.688   1.013   5.443 -1.3838 -0.3744  1.9152
  111CHL1  H23B14461   2.755   0.835   5.451  0.0446  0.0524  0.2669
  111CHL1   C2414462   2.630   0.885   5.279  0.4235  0.3945 -0.1070
  111CHL1  H24A14463   2.589   0.782   5.277  2.6013 -0.5336  0.0890
  111CHL1  H24B14464   2.549   0.956   5.253 -0.2602 -0.7611 -1.2806
  111CHL1   C2514465   2.755   0.904   5.189  0.0999  0.1390 -0.0617
  111CHL1   H2514466   2.806   0.995   5.228 -1.3410  0.8372  0.2523
  111CHL1   C2614467   2.856   0.779   5.190  0.5368 -1.2899 -0.3900
  111CHL1  H26A14468   2.908   0.762   5.287 -0.2494 -1.5347 -0.0012
  111CHL1  H26B14469   2.800   0.688   5.157  0.2513 -0.9240 -0.9217
  111CHL1  H26C14470   2.939   0.801   5.121  0.2074 -0.6244 -0.5790
  111CHL1   C2714471   2.720   0.935   5.048  0.0560  0.3356  0.9028
  111CHL1  H27A14472   2.695   0.836   5.003  1.1266 -0.8083  2.6949
  111CHL1  H27B14473   2.637   1.008   5.037  0.7095  1.2317  1.7253
  111CHL1  H27C14474   2.806   0.994   5.010  1.0683 -1.1536  0.8094
  112CHL1    C314475   3.728   0.922   6.634 -0.1296  0.9811 -0.1125
  112CHL1    H314476   3.620   0.908   6.658  0.2020 -0.1005  0.8685
  112CHL1    O314477   3.778   0.886   6.760 -0.3955  0.6644 -1.2435
  112CHL1   H3'14478   3.873   0.898   6.756 -0.1913 -0.5647 -0.7167
  112CHL1    C414479   3.785   0.830   6.527  0.1903  0.2264  0.3150
  112CHL1   H4A14480   3.896   0.839   6.530  0.2778 -0.7751  0.3674
  112CHL1   H4B14481   3.766   0.724   6.555  4.9178 -0.6097  1.2698
  112CHL1    C514482   3.732   0.868   6.386 -0.6827 -0.3184 -0.2028
  112CHL1    C614483   3.678   0.777   6.302  0.1280  0.5865 -0.3994
  112CHL1    H614484   3.663   0.676   6.342 -1.2533  0.5830 -0.8704
  112CHL1    C714485   3.646   0.805   6.158 -0.1869  0.2348 -0.1499
  112CHL1   H7A14486   3.675   0.720   6.094  0.0551  1.3636 -1.5874
  112CHL1   H7B14487   3.536   0.815   6.145 -0.1205  1.8614  0.3251
  112CHL1    C814488   3.713   0.943   6.103  0.1938  0.0994 -0.0711
  112CHL1    H814489   3.820   0.929   6.078  0.3289  0.5020  0.2666
  112CHL1   C1414490   3.633   0.994   5.981  0.6231  1.2682  0.3358
  112CHL1   H1414491   3.529   1.005   6.018 -0.3037 -1.2544 -1.1826
  112CHL1   C1514492   3.628   0.898   5.861  0.0024 -0.5223  0.1235
  112CHL1  H15A14493   3.729   0.877   5.821  0.1984 -0.3548  0.5293
  112CHL1  H15B14494   3.572   0.813   5.907 -1.8046  1.4866  1.8926
  112CHL1   C1614495   3.551   0.985   5.763  0.4535 -0.4130  0.7956
  112CHL1  H16A14496   3.584   0.968   5.658 -1.1149  3.7918 -0.5521
  112CHL1  H16B14497   3.441   0.967   5.765  0.2433  0.7446  0.1687
  112CHL1   C1714498   3.570   1.133   5.802 -0.0713 -0.0105  0.3244
  112CHL1   H1714499   3.474   1.173   5.838 -2.7404 -1.5320 -4.2749
  112CHL1   C1314500   3.674   1.130   5.923  0.5165  0.0079 -0.4307
  112CHL1   C1814501   3.822   1.119   5.873 -0.1410 -0.6897  0.3861
  112CHL1  H18A14502   3.889   1.061   5.940  1.5826 -0.6915 -1.2361
  112CHL1  H18B14503   3.829   1.064   5.777  0.8058 -0.9132  0.5687
  112CHL1  H18C14504   3.870   1.219   5.865  0.6133 -1.2205 -2.8869
  112CHL1   C1214505   3.656   1.235   6.040 -0.5572  0.0102  0.2960
  112CHL1  H12A14506   3.684   1.337   6.006  0.3309  0.0299  1.0489
  112CHL1  H12B14507   3.554   1.225   6.084 -0.1388 -2.1779  0.9234
  112CHL1   C1114508   3.740   1.192   6.159  0.0686  0.3523  0.5789
  112CHL1  H11A14509   3.848   1.195   6.131 -0.1768 -0.8789 -0.6020
  112CHL1  H11B14510   3.726   1.271   6.236 -0.8090  0.2105  0.5774
  112CHL1    C914511   3.695   1.052   6.210  0.6801  0.1407  0.1620
  112CHL1    H914512   3.585   1.057   6.228  0.8823 -1.3022  2.1088
  112CHL1   C1014513   3.755   1.016   6.347 -0.2984 -0.3189 -0.4559
  112CHL1   C1914514   3.911   1.024   6.332  0.4008 -0.1178 -0.4921
  112CHL1  H19A14515   3.956   0.998   6.431  1.3203  0.3505 -0.7649
  112CHL1  H19B14516   3.956   0.954   6.259 -0.4949 -1.2582  0.0251
  112CHL1  H19C14517   3.942   1.129   6.310 -1.2764  0.4481 -0.3049
  112CHL1    C114518   3.705   1.115   6.459 -0.3890  0.4626 -0.2719
  112CHL1   H1A14519   3.727   1.222   6.442  1.9425  0.3005  1.2901
  112CHL1   H1B14520   3.595   1.097   6.456 -0.4885  0.7148  1.2527
  112CHL1    C214521   3.751   1.069   6.605  0.4751 -1.1190 -0.0672
  112CHL1   H2A14522   3.699   1.136   6.677  2.6474 -1.5187  1.9878
  112CHL1   H2B14523   3.861   1.081   6.601  0.6629 -2.3916  0.8496
  112CHL1   C2014524   3.603   1.223   5.684  0.3834  0.3787 -0.3282
  112CHL1   H2014525   3.697   1.183   5.639  1.0014 -1.2111  2.1898
  112CHL1   C2114526   3.630   1.359   5.739 -0.6920 -0.2862  0.1531
  112CHL1  H21A14527   3.546   1.404   5.796 -1.5365  0.8463 -1.8692
  112CHL1  H21B14528   3.641   1.431   5.655  1.0257  1.2494  1.6081
  112CHL1  H21C14529   3.727   1.363   5.793 -0.5961  1.9681 -0.1170
  112CHL1   C2214530   3.491   1.225   5.570  0.7079  0.3845  0.0809
  112CHL1  H22A14531   3.458   1.122   5.544 -0.3011  1.2666 -2.4574
  112CHL1  H22B14532   3.405   1.284   5.608  1.4323  1.1834  0.5136
  112CHL1   C2314533   3.524   1.288   5.431  0.0845  0.2600  0.3541
  112CHL1  H23A14534   3.438   1.291   5.361  0.4125  1.7783 -0.0312
  112CHL1  H23B14535   3.555   1.393   5.450  0.8326 -0.0567  0.9385
  112CHL1   C2414536   3.637   1.228   5.354 -0.0175 -0.4059 -0.1762
  112CHL1  H24A14537   3.720   1.224   5.427  1.5979  1.0031 -1.8153
  112CHL1  H24B14538   3.616   1.126   5.314 -1.1528  0.0178 -0.6916
  112CHL1   C2514539   3.689   1.297   5.224 -0.7846 -0.3222 -0.1104
  112CHL1   H2514540   3.611   1.290   5.145 -0.1496  0.7365 -0.8485
  112CHL1   C2614541   3.709   1.447   5.254 -0.7353  0.0723 -0.2032
  112CHL1  H26A14542   3.624   1.515   5.275 -0.0411  1.2953 -1.2081
  112CHL1  H26B14543   3.782   1.450   5.338  1.0718  0.5887 -1.7131
  112CHL1  H26C14544   3.763   1.490   5.167  1.3035  1.0112  1.4318
  112CHL1   C2714545   3.820   1.235   5.184  0.6078  0.2249  0.4496
  112CHL1  H27A14546   3.863   1.300   5.105  3.7261 -2.1538 -0.0072
  112CHL1  H27B14547   3.887   1.219   5.271 -0.1016 -0.5124  0.8797
  112CHL1  H27C14548   3.804   1.136   5.137  0.4128  0.3738  0.1983
  113CHL1    C314549   1.340   5.752   6.710  1.0653 -0.5817 -0.2587
  113CHL1    H314550   1.239   5.719   6.677  0.5599  0.9634 -0.3505
  113CHL1    O314551   1.339   5.811   6.843 -0.3009  0.2051 -0.3754
  113CHL1   H3'14552   1.418   5.866   6.843 -0.3115  0.2826  1.8395
  113CHL1    C414553   1.432   5.631   6.717  0.0237 -0.0701  0.9429
  113CHL1   H4A14554   1.531   5.669   6.751  0.0526  2.7564 -1.8227
  113CHL1   H4B14555   1.390   5.559   6.790  2.3573 -1.7726  0.7418
  113CHL1    C514556   1.446   5.570   6.582 -0.3251 -0.1747  0.1462
  113CHL1    C614557   1.419   5.442   6.563  0.3650  0.5585  0.0982
  113CHL1    H614558   1.387   5.375   6.643 -1.2944 -1.6389 -2.2292
  113CHL1    C714559   1.445   5.373   6.429 -0.5235  0.2476 -0.0428
  113CHL1   H7A14560   1.489   5.272   6.444 -0.1057 -0.0606 -2.8320
  113CHL1   H7B14561   1.348   5.343   6.384 -0.8294  1.4232 -0.1813
  113CHL1    C814562   1.535   5.447   6.332 -0.0773 -0.2292  1.1304
  113CHL1    H814563   1.636   5.432   6.376 -0.1399  0.8877  1.6969
  113CHL1   C1414564   1.515   5.402   6.190 -0.1593  0.6272 -0.4436
  113CHL1   H1414565   1.411   5.421   6.157  0.5738  1.5737 -2.3237
  113CHL1   C1514566   1.544   5.248   6.182  0.3617 -0.5882  0.3335
  113CHL1  H15A14567   1.646   5.215   6.210 -0.1555 -2.0427  0.5576
  113CHL1  H15B14568   1.467   5.190   6.236 -0.5748  0.4674  0.1788
  113CHL1   C1614569   1.537   5.234   6.024 -0.6360 -0.5433 -1.1513
  113CHL1  H16A14570   1.632   5.183   5.995  0.2386 -0.1120  0.8025
  113CHL1  H16B14571   1.442   5.183   5.997 -1.2083  0.1847 -0.5472
  113CHL1   C1714572   1.550   5.380   5.964 -0.2701 -0.5882 -0.5425
  113CHL1   H1714573   1.447   5.410   5.933  0.1322  0.1677 -1.1659
  113CHL1   C1314574   1.598   5.472   6.087  0.0058 -0.6274 -0.1317
  113CHL1   C1814575   1.752   5.448   6.100  0.9713 -0.0311 -0.1444
  113CHL1  H18A14576   1.789   5.493   6.195 -0.7029  2.0907 -0.4356
  113CHL1  H18B14577   1.774   5.339   6.108  1.7852  0.1621  0.3814
  113CHL1  H18C14578   1.804   5.488   6.010 -0.9893  0.2752 -1.1870
  113CHL1   C1214579   1.559   5.617   6.083  0.0762  0.0009  0.3386
  113CHL1  H12A14580   1.621   5.676   6.013 -1.0842 -0.0134 -0.7438
  113CHL1  H12B14581   1.457   5.635   6.041  0.3870  0.6261 -0.1538
  113CHL1   C1114582   1.571   5.677   6.221 -0.1634  0.8391  0.0106
  113CHL1  H11A14583   1.680   5.684   6.239 -0.2531 -1.4833  1.9734
  113CHL1  H11B14584   1.521   5.777   6.218 -2.9173 -0.3470  1.9292
  113CHL1    C914585   1.497   5.597   6.332 -0.3543 -0.3205 -0.2065
  113CHL1    H914586   1.397   5.605   6.283  0.4395  2.3697 -1.6038
  113CHL1   C1014587   1.496   5.656   6.468  0.2718 -0.2512  0.0814
  113CHL1   C1914588   1.642   5.699   6.502  0.3198 -0.0576  0.1294
  113CHL1  H19A14589   1.660   5.789   6.439 -0.3490  1.9609  2.6325
  113CHL1  H19B14590   1.660   5.734   6.606  0.1014  0.4403  0.0016
  113CHL1  H19C14591   1.704   5.607   6.498 -0.3370 -0.5641  1.1934
  113CHL1    C114592   1.411   5.787   6.471  0.2277 -0.2687  0.0011
  113CHL1   H1A14593   1.447   5.871   6.408 -0.7629  0.3019  0.1657
  113CHL1   H1B14594   1.307   5.770   6.434 -0.4443  1.1067  1.1198
  113CHL1    C214595   1.400   5.854   6.615 -0.0276  0.1051  0.4445
  113CHL1   H2A14596   1.338   5.946   6.618  1.4327  1.1166  0.3454
  113CHL1   H2B14597   1.502   5.882   6.648 -0.8972  1.6945  1.8810
  113CHL1   C2014598   1.635   5.387   5.838 -0.0190 -0.0803 -0.8817
  113CHL1   H2014599   1.738   5.352   5.859 -0.8914 -1.4353  1.5361
  113CHL1   C2114600   1.621   5.524   5.777  0.8717 -0.4135  0.2684
  113CHL1  H21A14601   1.677   5.599   5.838 -0.8985 -0.0615  1.5408
  113CHL1  H21B14602   1.513   5.541   5.758  1.3377  2.5692 -0.1728
  113CHL1  H21C14603   1.664   5.533   5.675 -3.1632 -0.1969 -1.5999
  113CHL1   C2214604   1.582   5.280   5.740 -0.5375 -0.3629  1.1186
  113CHL1  H22A14605   1.573   5.182   5.791  3.1947 -0.9548  0.9330
  113CHL1  H22B14606   1.484   5.314   5.701 -0.6708  0.6448  2.2821
  113CHL1   C2314607   1.672   5.257   5.614 -0.6445  0.1743 -0.3911
  113CHL1  H23A14608   1.689   5.351   5.558  1.3461  0.4957  0.6731
  113CHL1  H23B14609   1.775   5.232   5.644 -1.3185  1.1276  3.2498
  113CHL1   C2414610   1.601   5.157   5.525 -0.4945 -0.0548  0.1342
  113CHL1  H24A14611   1.587   5.059   5.575 -0.7637 -0.4394 -0.6908
  113CHL1  H24B14612   1.497   5.195   5.526 -0.6533 -0.4693  0.9362
  113CHL1   C2514613   1.648   5.166   5.380  0.3603 -0.3564 -0.1685
  113CHL1   H2514614   1.647   5.276   5.363  0.1900 -0.4273 -0.6349
  113CHL1   C2614615   1.790   5.105   5.366 -0.3393  0.1806  0.1189
  113CHL1  H26A14616   1.812   5.102   5.257 -2.5965 -1.8640 -0.3640
  113CHL1  H26B14617   1.865   5.175   5.409 -1.3026  2.2884 -1.4190
  113CHL1  H26C14618   1.787   5.007   5.418 -2.2662 -0.1222 -0.4510
  113CHL1   C2714619   1.545   5.095   5.292  0.1239 -0.0560  0.4150
  113CHL1  H27A14620   1.555   4.984   5.302 -0.8603 -0.1539  0.4590
  113CHL1  H27B14621   1.440   5.125   5.312  0.9174  2.0700  1.6145
  113CHL1  H27C14622   1.576   5.127   5.191  0.6964  3.2284  1.5229
  114CHL1    C314623   5.883   7.371   6.834  0.1905  0.0476 -0.1271
  114CHL1    H314624   5.866   7.480   6.833 -0.1047  0.0543  1.8130
  114CHL1    O314625   5.975   7.347   6.941 -0.0834  0.6168 -0.8638
  114CHL1   H3'14626   5.989   7.252   6.937 -0.6045  0.5378 -0.8016
  114CHL1    C414627   5.748   7.299   6.866  0.0996 -0.4732 -0.1444
  114CHL1   H4A14628   5.778   7.194   6.887 -0.0139 -0.3763  0.5482
  114CHL1   H4B14629   5.707   7.344   6.959  1.8874  1.6050 -0.2821
  114CHL1    C514630   5.644   7.289   6.756 -0.9120 -0.1583  0.0285
  114CHL1    C614631   5.523   7.340   6.778 -0.1121  0.1190  0.2456
  114CHL1    H614632   5.509   7.396   6.872 -1.4275  1.7171 -0.8510
  114CHL1    C714633   5.412   7.341   6.677  0.8211  0.9735  0.1220
  114CHL1   H7A14634   5.315   7.301   6.710  1.1399  0.1392  0.0604
  114CHL1   H7B14635   5.402   7.447   6.643  1.0958  0.3605 -2.0217
  114CHL1    C814636   5.446   7.261   6.543  1.0245 -0.2826  0.2964
  114CHL1    H814637   5.431   7.152   6.558  1.4667 -0.2595  0.9657
  114CHL1   C1414638   5.350   7.295   6.430 -0.3758 -0.4208 -0.3356
  114CHL1   H1414639   5.367   7.405   6.418 -3.7100  0.5749  2.3957
  114CHL1   C1514640   5.198   7.287   6.454 -0.3497  0.3847 -0.2993
  114CHL1  H15A14641   5.168   7.183   6.482 -2.3232  0.7924 -0.7395
  114CHL1  H15B14642   5.165   7.366   6.524 -0.1407  1.0233 -0.9141
  114CHL1   C1614643   5.145   7.309   6.318 -0.1961 -0.3383  0.4583
  114CHL1  H16A14644   5.063   7.238   6.294 -0.0690 -0.0102 -1.1108
  114CHL1  H16B14645   5.099   7.410   6.317 -0.4321 -0.4404  0.7524
  114CHL1   C1714646   5.265   7.299   6.215 -0.4295 -0.3927 -0.1171
  114CHL1   H1714647   5.305   7.402   6.208 -0.3748 -0.1827  2.3920
  114CHL1   C1314648   5.380   7.227   6.299 -0.0087  0.4711  0.4404
  114CHL1   C1814649   5.363   7.073   6.315  0.3181  0.7577 -0.9700
  114CHL1  H18A14650   5.257   7.042   6.328  0.8487 -0.2375  1.4492
  114CHL1  H18B14651   5.412   7.026   6.226  0.4931  1.3452 -1.1871
  114CHL1  H18C14652   5.411   7.031   6.405  0.7411 -2.2853 -2.4664
  114CHL1   C1214653   5.520   7.267   6.259  0.0115  0.2375  0.2221
  114CHL1  H12A14654   5.552   7.217   6.165  0.0162  0.6142  0.0187
  114CHL1  H12B14655   5.543   7.376   6.252  2.7377 -0.3310 -1.3083
  114CHL1   C1114656   5.632   7.221   6.361 -0.1402 -0.1552  0.1951
  114CHL1  H11A14657   5.635   7.110   6.365  1.0270 -0.2341 -1.9342
  114CHL1  H11B14658   5.732   7.257   6.330  1.0084 -3.0777  0.1894
  114CHL1    C914659   5.599   7.281   6.502  0.0687  0.6889  0.6463
  114CHL1    H914660   5.609   7.390   6.484  2.1374  0.7743  1.9621
  114CHL1   C1014661   5.702   7.244   6.616  0.4562 -0.4611  0.0167
  114CHL1   C1914662   5.728   7.094   6.610  0.7735  0.2227  0.1579
  114CHL1  H19A14663   5.633   7.038   6.624  1.9492 -2.0808 -0.6432
  114CHL1  H19B14664   5.768   7.062   6.511 -0.9458  3.3477 -1.7090
  114CHL1  H19C14665   5.804   7.076   6.689  1.1855  0.3333 -0.2111
  114CHL1    C114666   5.833   7.324   6.592  0.6091 -0.4419  0.4026
  114CHL1   H1A14667   5.890   7.284   6.505 -0.2668 -0.9771  0.0606
  114CHL1   H1B14668   5.810   7.430   6.570 -1.7794 -1.1933 -1.1943
  114CHL1    C214669   5.939   7.317   6.703  0.0208  0.6631  0.1115
  114CHL1   H2A14670   6.026   7.375   6.665 -0.8100  1.1862 -1.0524
  114CHL1   H2B14671   5.973   7.212   6.711  0.1430  0.7114  0.2338
  114CHL1   C2014672   5.228   7.247   6.073  0.7554  0.7834  0.0572
  114CHL1   H2014673   5.193   7.141   6.079  0.8473  0.6301 -1.6764
  114CHL1   C2114674   5.354   7.250   5.986  0.6111 -0.2553 -0.0569
  114CHL1  H21A14675   5.404   7.350   5.984 -1.4894  0.8398 -1.3779
  114CHL1  H21B14676   5.316   7.227   5.884  0.2616 -1.1127  0.2583
  114CHL1  H21C14677   5.425   7.169   6.016  1.1049 -0.7775 -2.4266
  114CHL1   C2214678   5.105   7.320   6.007  0.3896 -0.1988 -0.4135
  114CHL1  H22A14679   5.079   7.274   5.909 -1.8764 -0.0284  0.0569
  114CHL1  H22B14680   5.017   7.297   6.071  0.3641 -0.0018 -0.3769
  114CHL1   C2314681   5.123   7.481   6.000 -0.3986  0.3527  0.0373
  114CHL1  H23A14682   5.122   7.534   6.098  0.6625  0.3996  0.0312
  114CHL1  H23B14683   5.220   7.512   5.955 -0.5702 -0.0010 -0.5835
  114CHL1   C2414684   4.997   7.532   5.933  0.7859 -0.4580  0.2879
  114CHL1  H24A14685   4.990   7.488   5.831 -0.3915  0.8418 -0.2314
  114CHL1  H24B14686   4.910   7.489   5.987 -0.2737  0.7193 -0.4447
  114CHL1   C2514687   4.986   7.686   5.932  0.6315  0.6349  0.4588
  114CHL1   H2514688   5.090   7.725   5.926  1.2307 -1.1030 -1.3826
  114CHL1   C2614689   4.906   7.728   5.807 -0.0407  0.0030  0.5879
  114CHL1  H26A14690   4.938   7.680   5.712  1.4724  1.4427  0.3232
  114CHL1  H26B14691   4.798   7.714   5.826 -0.6509  2.7140 -0.3488
  114CHL1  H26C14692   4.932   7.836   5.794 -0.7985  0.3029  1.4676
  114CHL1   C2714693   4.922   7.744   6.059 -0.1699  1.0584  0.6321
  114CHL1  H27A14694   4.813   7.723   6.064 -0.0087 -0.4267 -1.0855
  114CHL1  H27B14695   4.977   7.707   6.148  0.2952  2.2876  0.8654
  114CHL1  H27C14696   4.938   7.853   6.065 -1.1058  1.1876  0.8627
  115CHL1    C314697   1.363   7.436   6.428  0.2971 -0.2319  0.1133
  115CHL1    H314698   1.255   7.452   6.411  0.2166  0.5086  1.2223
  115CHL1    O314699   1.387   7.334   6.522  0.1594 -0.0451 -0.0914
  115CHL1   H3'14700   1.482   7.327   6.539  0.0595 -2.2637 -0.2423
  115CHL1    C414701   1.429   7.389   6.298 -0.0517  0.6149  0.1357
  115CHL1   H4A14702   1.532   7.349   6.311 -0.5287 -1.0830 -1.0585
  115CHL1   H4B14703   1.365   7.303   6.269  0.4224  0.8194 -1.6374
  115CHL1    C514704   1.418   7.505   6.202  0.1746  0.4398  0.8815
  115CHL1    C614705   1.349   7.486   6.083 -0.1476  0.4078  0.3533
  115CHL1    H614706   1.293   7.395   6.058  1.4925 -1.4100  2.8213
  115CHL1    C714707   1.355   7.594   5.979  0.9062 -0.2054  0.1172
  115CHL1   H7A14708   1.371   7.541   5.883  1.1628 -1.0731  0.6300
  115CHL1   H7B14709   1.257   7.647   5.980  1.3387  0.6094  0.1499
  115CHL1    C814710   1.470   7.693   5.999 -0.4116 -0.7608  1.1147
  115CHL1    H814711   1.569   7.650   5.973  0.7418  2.5080 -0.3796
  115CHL1   C1414712   1.443   7.805   5.902  0.2575 -0.2693 -0.3761
  115CHL1   H1414713   1.348   7.842   5.945 -1.1809 -2.7250 -1.2537
  115CHL1   C1514714   1.402   7.778   5.753 -0.0923 -0.2453 -0.8188
  115CHL1  H15A14715   1.472   7.708   5.702  0.1860 -0.0127 -0.7559
  115CHL1  H15B14716   1.302   7.730   5.744 -0.4534  0.4693 -0.6589
  115CHL1   C1614717   1.414   7.915   5.687 -0.0728  0.0465 -0.0689
  115CHL1  H16A14718   1.476   7.900   5.597  1.6442  1.7625  0.7534
  115CHL1  H16B14719   1.316   7.949   5.648 -0.2405 -0.4409 -0.0848
  115CHL1   C1714720   1.470   8.010   5.794 -0.2554 -0.5704  0.1248
  115CHL1   H1714721   1.379   8.050   5.841  1.2787  1.0084  1.9055
  115CHL1   C1314722   1.533   7.922   5.904 -0.1428  0.6536 -0.2333
  115CHL1   C1814723   1.677   7.887   5.863  0.5295 -0.0732 -0.3289
  115CHL1  H18A14724   1.739   7.976   5.840  0.2693  0.3418  0.5290
  115CHL1  H18B14725   1.738   7.835   5.940 -0.9120  0.8067  1.4696
  115CHL1  H18C14726   1.670   7.825   5.771  1.0472  1.7767 -1.6677
  115CHL1   C1214727   1.531   7.983   6.046  0.3245 -0.0314  0.2626
  115CHL1  H12A14728   1.616   8.055   6.052 -0.2556  0.7580 -0.6888
  115CHL1  H12B14729   1.434   8.028   6.075  1.0042  0.8446  1.2648
  115CHL1   C1114730   1.564   7.873   6.151  0.1502 -0.3172  0.7066
  115CHL1  H11A14731   1.667   7.840   6.127  0.7304  2.0435 -0.2712
  115CHL1  H11B14732   1.570   7.915   6.253  0.3630  3.2317 -0.6375
  115CHL1    C914733   1.468   7.748   6.140 -0.1173 -0.3082 -0.4529
  115CHL1    H914734   1.365   7.788   6.154  0.2927  0.6321  0.0273
  115CHL1   C1014735   1.492   7.636   6.242 -0.3687 -0.0052  0.2025
  115CHL1   C1914736   1.646   7.601   6.260  0.5117 -0.6703  0.4533
  115CHL1  H19A14737   1.700   7.688   6.303 -2.5167  1.2086  0.8143
  115CHL1  H19B14738   1.668   7.523   6.336 -0.6702 -0.2510  1.2691
  115CHL1  H19C14739   1.692   7.593   6.159 -0.6144 -2.6195  0.0429
  115CHL1    C114740   1.425   7.678   6.376 -0.0187  0.4066 -0.0592
  115CHL1   H1A14741   1.488   7.761   6.414  0.8090  0.5886 -1.7217
  115CHL1   H1B14742   1.320   7.709   6.359  0.7229  2.6618 -0.8209
  115CHL1    C214743   1.427   7.564   6.480  0.3686  0.0224  0.2840
  115CHL1   H2A14744   1.376   7.597   6.573  0.2581  1.8765 -0.3967
  115CHL1   H2B14745   1.528   7.536   6.516 -0.0287  0.4341  1.7850
  115CHL1   C2014746   1.537   8.130   5.741 -0.3485 -0.2067  0.4308
  115CHL1   H2014747   1.635   8.103   5.697 -1.5841 -0.3982 -2.3881
  115CHL1   C2114748   1.569   8.238   5.847 -0.0426  0.0968 -0.0523
  115CHL1  H21A14749   1.613   8.328   5.798  0.4243  0.4819  1.0211
  115CHL1  H21B14750   1.655   8.207   5.911 -0.5618 -0.0054  0.5998
  115CHL1  H21C14751   1.477   8.268   5.902  0.6093 -0.6088  1.4939
  115CHL1   C2214752   1.468   8.198   5.617 -0.1026 -0.2533  0.3110
  115CHL1  H22A14753   1.466   8.132   5.528  1.4066 -0.0701  0.1139
  115CHL1  H22B14754   1.366   8.224   5.653  0.2442 -1.0183  1.9561
  115CHL1   C2314755   1.519   8.334   5.568 -0.8492 -0.3773  0.1132
  115CHL1  H23A14756   1.500   8.412   5.644 -0.3928 -0.9743  0.8478
  115CHL1  H23B14757   1.629   8.326   5.560 -0.8785 -0.9491  0.2355
  115CHL1   C2414758   1.470   8.373   5.431  0.1219  0.7802  0.8840
  115CHL1  H24A14759   1.503   8.299   5.355  0.7612  0.9514  0.9831
  115CHL1  H24B14760   1.359   8.378   5.436 -0.1065 -0.4973 -1.4513
  115CHL1   C2514761   1.529   8.507   5.381 -0.0534 -0.0812 -0.4997
  115CHL1   H2514762   1.636   8.496   5.350  0.1784  1.0177 -0.1414
  115CHL1   C2614763   1.457   8.555   5.253  0.4144 -0.7088  0.0917
  115CHL1  H26A14764   1.522   8.625   5.197  0.0062 -0.3528  0.0570
  115CHL1  H26B14765   1.439   8.468   5.186 -1.6698  0.5263 -1.0687
  115CHL1  H26C14766   1.364   8.608   5.281 -1.1047 -2.5743 -1.0927
  115CHL1   C2714767   1.522   8.619   5.483 -0.2842  0.2095  0.4931
  115CHL1  H27A14768   1.551   8.715   5.435  1.0554  0.2150  1.2758
  115CHL1  H27B14769   1.427   8.615   5.539  0.6816  3.5927  2.6517
  115CHL1  H27C14770   1.601   8.607   5.560  0.0769 -1.1172 -0.0620
  116CHL1    C314771   2.037   7.335   6.156  0.5506  0.7369 -0.6572
  116CHL1    H314772   2.004   7.238   6.112  0.1557  0.4380  0.2622
  116CHL1    O314773   2.069   7.325   6.297 -0.4536  0.2129 -0.2370
  116CHL1   H3'14774   2.107   7.410   6.323 -1.9211  0.4938  1.1322
  116CHL1    C414775   2.161   7.374   6.076  0.8810  0.1092 -0.1869
  116CHL1   H4A14776   2.184   7.478   6.105  0.9108  0.3428 -1.0252
  116CHL1   H4B14777   2.244   7.310   6.113  0.2070 -1.3522 -1.0886
  116CHL1    C514778   2.142   7.374   5.926 -0.1686 -0.5000 -0.6833
  116CHL1    C614779   2.220   7.308   5.837  0.0234  0.2455  0.2958
  116CHL1    H614780   2.312   7.257   5.870 -0.1887 -1.0423 -0.9945
  116CHL1    C714781   2.186   7.297   5.689 -0.0537 -0.3547 -1.0225
  116CHL1   H7A14782   2.280   7.291   5.630 -0.4217 -0.9365 -1.5576
  116CHL1   H7B14783   2.134   7.199   5.680  0.7121 -0.8882  0.1045
  116CHL1    C814784   2.093   7.410   5.632 -0.2828  0.0147 -0.5529
  116CHL1    H814785   2.156   7.501   5.621 -0.4146  0.2223  0.3573
  116CHL1   C1414786   2.041   7.367   5.499 -0.6062 -0.4076 -0.1772
  116CHL1   H1414787   1.978   7.280   5.529 -2.9260  0.7039 -1.5338
  116CHL1   C1514788   2.133   7.310   5.389  0.0358 -0.0519  0.2398
  116CHL1  H15A14789   2.225   7.373   5.386  0.4974 -0.6740  0.9241
  116CHL1  H15B14790   2.178   7.210   5.408  0.2173  0.1977  1.2055
  116CHL1   C1614791   2.057   7.333   5.257 -0.0091  0.2089  0.0412
  116CHL1  H16A14792   2.127   7.375   5.182 -0.0594  1.0221  0.4316
  116CHL1  H16B14793   2.013   7.240   5.217 -0.2785  0.1741  0.4172
  116CHL1   C1714794   1.935   7.422   5.290 -0.5141  0.3166 -0.1803
  116CHL1   H1714795   1.853   7.349   5.304  0.3411 -1.4272 -3.3505
  116CHL1   C1314796   1.959   7.477   5.434 -0.6784  0.3544  0.4650
  116CHL1   C1814797   2.026   7.618   5.426  0.3875  0.4547 -0.7045
  116CHL1  H18A14798   2.031   7.670   5.524  0.2336 -0.9808  0.1050
  116CHL1  H18B14799   2.129   7.603   5.387  0.2991  1.1663 -1.2246
  116CHL1  H18C14800   1.985   7.690   5.353 -0.4371 -2.0159 -2.8527
  116CHL1   C1214801   1.833   7.488   5.518 -0.0584  0.0674  0.1074
  116CHL1  H12A14802   1.766   7.565   5.473  0.7534  1.0457  0.5350
  116CHL1  H12B14803   1.771   7.396   5.510 -1.0169  0.6970  0.1789
  116CHL1   C1114804   1.864   7.515   5.669 -0.0747 -0.1921 -0.1585
  116CHL1  H11A14805   1.899   7.617   5.694  0.7488 -0.7293  0.9623
  116CHL1  H11B14806   1.770   7.502   5.726  0.4274 -0.8862  0.5423
  116CHL1    C914807   1.977   7.423   5.733  0.5894  0.0699 -0.5953
  116CHL1    H914808   1.926   7.325   5.740  0.4489  0.2030  0.2565
  116CHL1   C1014809   2.012   7.450   5.882 -1.0304  0.4132 -0.5784
  116CHL1   C1914810   2.040   7.605   5.903 -0.3399  0.4189  0.7203
  116CHL1  H19A14811   2.092   7.623   5.999  1.8594  0.6516 -0.4482
  116CHL1  H19B14812   2.092   7.652   5.817  1.2622 -0.5168  1.1321
  116CHL1  H19C14813   1.945   7.661   5.916  1.1530  2.8890  1.7490
  116CHL1    C114814   1.884   7.419   5.969 -0.0377 -0.1539 -0.1273
  116CHL1   H1A14815   1.801   7.490   5.944  0.0950  0.1359  0.2467
  116CHL1   H1B14816   1.849   7.320   5.934 -0.6108  0.8958 -2.8033
  116CHL1    C214817   1.925   7.429   6.125 -0.2442  0.3122  0.0942
  116CHL1   H2A14818   1.834   7.393   6.178  0.0847 -0.2907  0.2497
  116CHL1   H2B14819   1.942   7.537   6.147 -1.0736  0.3024  0.8412
  116CHL1   C2014820   1.889   7.512   5.183 -0.2111  0.5173 -0.3042
  116CHL1   H2014821   1.826   7.593   5.226 -1.3270 -0.0115 -0.9235
  116CHL1   C2114822   1.800   7.422   5.094 -0.8039  0.4352 -0.5941
  116CHL1  H21A14823   1.720   7.379   5.158 -1.3130  0.9165 -0.9006
  116CHL1  H21B14824   1.866   7.341   5.057  2.3213  0.9258  3.2820
  116CHL1  H21C14825   1.759   7.491   5.017 -1.7880  0.9574  0.3625
  116CHL1   C2214826   1.995   7.588   5.095  0.1083 -0.0933 -0.1073
  116CHL1  H22A14827   2.081   7.623   5.156 -0.3480  0.0755  0.4427
  116CHL1  H22B14828   2.023   7.527   5.006 -2.5864 -1.0854 -0.3609
  116CHL1   C2314829   1.941   7.719   5.031  0.1074 -0.2502 -0.6920
  116CHL1  H23A14830   1.860   7.696   4.958 -0.5672  0.6189 -0.2424
  116CHL1  H23B14831   1.901   7.778   5.116  1.0549 -3.3928  2.1236
  116CHL1   C2414832   2.053   7.794   4.964 -0.1309 -0.8001 -0.3304
  116CHL1  H24A14833   2.014   7.897   4.946 -0.4446 -1.0500 -1.1033
  116CHL1  H24B14834   2.143   7.794   5.031 -1.3684  2.0178  1.5326
  116CHL1   C2514835   2.108   7.734   4.837  0.7654  0.6863 -0.9529
  116CHL1   H2514836   2.140   7.630   4.860  1.6118  0.4663 -2.8895
  116CHL1   C2614837   1.998   7.733   4.726  0.6327  0.4493 -1.1852
  116CHL1  H26A14838   2.030   7.695   4.626 -0.1278 -1.3750 -0.7733
  116CHL1  H26B14839   1.915   7.667   4.758  0.1092  1.4124 -0.5211
  116CHL1  H26C14840   1.946   7.830   4.712 -0.5201 -0.0196 -0.2774
  116CHL1   C2714841   2.235   7.812   4.801  1.0904 -0.4909 -0.1323
  116CHL1  H27A14842   2.210   7.920   4.800 -0.5849 -0.8539 -0.7175
  116CHL1  H27B14843   2.312   7.802   4.880  0.4837  2.0008  0.8646
  116CHL1  H27C14844   2.271   7.789   4.698 -1.4842 -1.1362 -0.9660
  117CHL1    C314845   4.016   0.369   6.469  0.3660  0.5702  0.1675
  117CHL1    H314846   4.127   0.379   6.468  0.5941 -1.5721  0.0820
  117CHL1    O314847   3.970   0.356   6.597  0.1671  0.2574 -0.3713
  117CHL1   H3'14848   3.878   0.382   6.589 -0.9521 -2.9054  0.4643
  117CHL1    C414849   3.938   0.492   6.413 -0.6721 -0.4409  0.1735
  117CHL1   H4A14850   3.828   0.487   6.429 -0.7617 -0.7578 -0.4982
  117CHL1   H4B14851   3.984   0.580   6.464  0.4788  0.7679 -2.7199
  117CHL1    C514852   3.966   0.514   6.265  0.0438  0.4997 -0.0473
  117CHL1    C614853   4.004   0.635   6.221  0.3177  0.1561  0.5394
  117CHL1    H614854   4.010   0.726   6.284 -0.6385 -0.1847  1.1472
  117CHL1    C714855   4.042   0.670   6.078  0.1896  0.9509 -0.1086
  117CHL1   H7A14856   3.993   0.759   6.032 -3.2138 -0.5652  0.2637
  117CHL1   H7B14857   4.153   0.667   6.071  0.4516 -2.9833  2.7490
  117CHL1    C814858   4.003   0.554   5.979  0.3401  0.0572 -1.3593
  117CHL1    H814859   3.895   0.569   5.961 -0.0285 -1.5887 -0.6660
  117CHL1   C1414860   4.074   0.561   5.845 -0.5305  0.5979  0.1216
  117CHL1   H1414861   4.182   0.541   5.858  0.0325  0.4846 -3.5814
  117CHL1   C1514862   4.063   0.701   5.785 -0.3346 -0.2935  0.3010
  117CHL1  H15A14863   3.966   0.748   5.811  0.6061  0.6972  2.2336
  117CHL1  H15B14864   4.143   0.769   5.822 -0.6798  0.5745 -0.5163
  117CHL1   C1614865   4.091   0.681   5.639 -0.1198 -0.8267  0.5210
  117CHL1  H16A14866   4.012   0.737   5.582 -1.9534 -3.3646  0.4105
  117CHL1  H16B14867   4.194   0.716   5.616 -0.3096  1.0363  2.2709
  117CHL1   C1714868   4.092   0.529   5.616  0.4006  0.5573 -0.2951
  117CHL1   H1714869   4.191   0.482   5.634 -0.9222 -2.1365  0.5304
  117CHL1   C1314870   4.013   0.469   5.737 -0.8831 -0.6418 -0.4428
  117CHL1   C1814871   3.857   0.483   5.713  0.2946 -0.4817  0.2682
  117CHL1  H18A14872   3.830   0.565   5.643 -0.0720  0.0595  1.0251
  117CHL1  H18B14873   3.830   0.390   5.658  2.8243 -0.4517 -1.1595
  117CHL1  H18C14874   3.799   0.489   5.808  2.0254 -0.6849  1.3735
  117CHL1   C1214875   4.039   0.328   5.789  0.5285  0.0692  0.2277
  117CHL1  H12A14876   4.002   0.244   5.726  0.3286  1.2701 -1.3170
  117CHL1  H12B14877   4.149   0.314   5.783  0.4902  0.2470 -1.5656
  117CHL1   C1114878   3.978   0.306   5.925 -0.1812 -0.0878  0.1803
  117CHL1  H11A14879   3.869   0.288   5.914  0.0309 -1.4902  0.2050
  117CHL1  H11B14880   4.015   0.207   5.960 -1.6799 -0.8224 -0.2466
  117CHL1    C914881   4.017   0.413   6.033 -0.6712  0.1229 -0.6995
  117CHL1    H914882   4.127   0.406   6.048 -0.8526  0.0929  0.7042
  117CHL1   C1014883   3.948   0.396   6.170 -0.2331  1.0296 -0.1205
  117CHL1   C1914884   3.793   0.379   6.159 -0.3019 -0.1587  0.1617
  117CHL1  H19A14885   3.738   0.377   6.256 -0.4090 -1.9276  0.1100
  117CHL1  H19B14886   3.756   0.467   6.103  0.0205  0.7142  1.2834
  117CHL1  H19C14887   3.767   0.292   6.095  1.5116 -0.0127 -0.8378
  117CHL1    C114888   4.008   0.264   6.239  0.5530  0.9879  0.4329
  117CHL1   H1A14889   3.957   0.181   6.185  1.2805  1.0606 -0.3871
  117CHL1   H1B14890   4.118   0.252   6.234  0.6300  0.8648  1.9771
  117CHL1    C214891   3.974   0.248   6.388  0.1411 -0.3485 -0.2907
  117CHL1   H2A14892   4.018   0.159   6.438 -0.1596  0.3396  1.2438
  117CHL1   H2B14893   3.864   0.250   6.402  0.4211  1.1711  2.3347
  117CHL1   C2014894   4.055   0.489   5.473 -0.4071  0.3546 -0.1869
  117CHL1   H2014895   3.956   0.522   5.436 -0.4650 -0.3546 -0.6942
  117CHL1   C2114896   4.062   0.331   5.458 -0.3263 -0.2163 -0.1348
  117CHL1  H21A14897   4.162   0.294   5.487 -1.5095 -1.2175  3.1384
  117CHL1  H21B14898   4.044   0.296   5.354 -1.6800  0.5297 -0.1787
  117CHL1  H21C14899   3.977   0.296   5.522 -0.4528  1.7819  0.8626
  117CHL1   C2214900   4.153   0.549   5.366  0.5768 -0.0785 -0.3519
  117CHL1  H22A14901   4.140   0.656   5.394  0.5371  0.1710 -1.3110
  117CHL1  H22B14902   4.254   0.515   5.396  0.1977 -0.6170  0.3563
  117CHL1   C2314903   4.111   0.515   5.218  0.1028  0.7191  0.3053
  117CHL1  H23A14904   4.176   0.434   5.179 -1.0627 -0.1254  0.0564
  117CHL1  H23B14905   4.004   0.483   5.218 -0.2055  1.7199  0.6201
  117CHL1   C2414906   4.120   0.633   5.114 -0.3524  0.3126 -0.4464
  117CHL1  H24A14907   4.071   0.601   5.019  0.2486 -0.4055 -0.5221
  117CHL1  H24B14908   4.068   0.721   5.159 -0.9797 -0.3251  0.1035
  117CHL1   C2514909   4.263   0.673   5.069 -0.0561 -0.1105 -0.2258
  117CHL1   H2514910   4.318   0.577   5.059  1.0971  0.6014 -0.9845
  117CHL1   C2614911   4.262   0.754   4.940  0.4581 -0.3316  0.1923
  117CHL1  H26A14912   4.365   0.772   4.903  0.9433 -0.3609  1.4613
  117CHL1  H26B14913   4.209   0.697   4.860  0.1724 -0.9596  0.8127
  117CHL1  H26C14914   4.212   0.853   4.951 -1.6173 -1.5161  2.8614
  117CHL1   C2714915   4.334   0.747   5.179 -0.5400 -0.1072  0.2859
  117CHL1  H27A14916   4.361   0.689   5.270  2.1956  0.3879 -0.1360
  117CHL1  H27B14917   4.434   0.777   5.142 -0.3904  0.1155  0.8601
  117CHL1  H27C14918   4.276   0.835   5.214 -0.3167  0.4978 -0.8349
  118CHL1    C314919   0.138   2.481   7.265  0.3999  0.4019  1.0448
  118CHL1    H314920   0.030   2.507   7.256  0.8181  2.0591  0.3559
  118CHL1    O314921   0.199   2.571   7.351 -0.4384 -0.3362 -0.1781
  118CHL1   H3'14922   0.180   2.657   7.313  3.1366  1.2253  1.1340
  118CHL1    C414923   0.162   2.339   7.307  0.0939  0.4786  0.1093
  118CHL1   H4A14924   0.271   2.321   7.320 -0.1445 -0.8643  0.4409
  118CHL1   H4B14925   0.124   2.320   7.410  0.3446 -3.5089 -0.3541
  118CHL1    C514926   0.102   2.241   7.206 -0.9141  0.5785 -0.4511
  118CHL1    C614927   0.005   2.153   7.235  0.3181  0.2630  0.0660
  118CHL1    H614928  -0.040   2.145   7.336  0.8831 -4.1422  0.1570
  118CHL1    C714929  -0.047   2.057   7.134  0.3390  0.3006 -0.0228
  118CHL1   H7A14930  -0.080   1.967   7.189 -2.2485  1.7502  0.9741
  118CHL1   H7B14931  -0.144   2.093   7.093  1.8447  2.7240 -1.7764
  118CHL1    C814932   0.035   2.036   7.002  0.8032  0.5058 -0.7890
  118CHL1    H814933   0.116   1.971   7.044 -1.6869 -0.3728  3.1550
  118CHL1   C1414934  -0.048   1.961   6.894 -0.2258 -0.0040 -0.6052
  118CHL1   H1414935  -0.137   2.027   6.881 -0.3486 -0.1260 -0.3968
  118CHL1   C1514936  -0.120   1.828   6.926  0.1069 -0.2224 -0.6996
  118CHL1  H15A14937  -0.062   1.750   6.979 -1.3219 -0.5694  0.4431
  118CHL1  H15B14938  -0.214   1.858   6.977 -0.8605  1.5370 -3.2914
  118CHL1   C1614939  -0.149   1.769   6.782  0.0629  0.0574 -0.1106
  118CHL1  H16A14940  -0.103   1.667   6.783 -0.2579 -0.0881  0.2395
  118CHL1  H16B14941  -0.256   1.751   6.757 -0.2149  0.5178  0.7298
  118CHL1   C1714942  -0.078   1.865   6.685  0.3061  0.1173  0.6953
  118CHL1   H1714943  -0.150   1.945   6.656 -0.0540 -0.0883  1.0191
  118CHL1   C1314944   0.029   1.938   6.764 -0.0795 -0.1051 -0.4112
  118CHL1   C1814945   0.153   1.843   6.799  0.4813 -0.1661  0.5404
  118CHL1  H18A14946   0.198   1.812   6.702  0.5944  1.2341  0.1256
  118CHL1  H18B14947   0.231   1.896   6.857  1.9740  0.3477 -1.7859
  118CHL1  H18C14948   0.120   1.755   6.859  0.2191 -1.9423 -2.0530
  118CHL1   C1214949   0.081   2.072   6.713  0.1500 -0.0334 -0.2507
  118CHL1  H12A14950   0.138   2.053   6.620 -0.7041  0.4348 -0.8860
  118CHL1  H12B14951  -0.001   2.143   6.690  0.9655  0.4922 -1.6080
  118CHL1   C1114952   0.163   2.148   6.817  0.3096 -0.1750 -0.3229
  118CHL1  H11A14953   0.254   2.086   6.831  0.3075  0.2023  1.7450
  118CHL1  H11B14954   0.193   2.244   6.772  1.5862 -0.7971 -0.8332
  118CHL1    C914955   0.088   2.169   6.953  0.0107  0.3061 -0.3142
  118CHL1    H914956  -0.002   2.228   6.923  0.6098  1.6041  0.3566
  118CHL1   C1014957   0.163   2.260   7.061  0.1600 -0.6073  0.4138
  118CHL1   C1914958   0.312   2.203   7.063  0.1882  0.1215 -0.6020
  118CHL1  H19A14959   0.301   2.092   7.061 -3.8108  0.2787  2.2562
  118CHL1  H19B14960   0.363   2.244   6.973  2.2065 -1.6844 -0.3664
  118CHL1  H19C14961   0.380   2.243   7.140  2.0890 -0.6907 -1.7837
  118CHL1    C114962   0.160   2.407   7.021 -0.6953 -0.4827 -0.9095
  118CHL1   H1A14963   0.226   2.418   6.933  0.6983 -0.7816  0.0765
  118CHL1   H1B14964   0.055   2.439   7.002  0.2621  2.9678 -1.0056
  118CHL1    C214965   0.220   2.500   7.135  0.6393 -0.4444  0.3395
  118CHL1   H2A14966   0.224   2.606   7.101 -2.2934 -0.6988 -1.1183
  118CHL1   H2B14967   0.327   2.473   7.151  0.6640 -0.4264  0.2055
  118CHL1   C2014968  -0.033   1.788   6.557 -0.6006  0.2651  0.6635
  118CHL1   H2014969   0.046   1.712   6.575  0.7529  1.4693  0.0185
  118CHL1   C2114970   0.027   1.885   6.453 -0.7962 -0.0585  0.1567
  118CHL1  H21A14971  -0.018   1.987   6.449  0.1205  0.3444 -3.2524
  118CHL1  H21B14972   0.009   1.851   6.348  0.2372  2.1030 -0.7999
  118CHL1  H21C14973   0.136   1.905   6.461 -0.2931 -1.7232 -1.7045
  118CHL1   C2214974  -0.159   1.720   6.482 -0.2034 -0.6342 -0.4117
  118CHL1  H22A14975  -0.224   1.669   6.556  0.6291 -3.6290 -1.5933
  118CHL1  H22B14976  -0.214   1.796   6.422  2.7382 -0.6031 -3.3921
  118CHL1   C2314977  -0.126   1.605   6.383  0.6612  0.5350  0.3042
  118CHL1  H23A14978  -0.041   1.633   6.318 -1.5173  0.9416 -2.5558
  118CHL1  H23B14979  -0.109   1.515   6.447 -1.6263 -0.1163  0.1013
  118CHL1   C2414980  -0.238   1.592   6.281 -0.3464  0.4803  0.3287
  118CHL1  H24A14981  -0.327   1.545   6.329 -0.8262  0.6020 -0.4309
  118CHL1  H24B14982  -0.258   1.689   6.231  0.1392 -0.3135 -1.4892
  118CHL1   C2514983  -0.201   1.491   6.168  0.1054  0.6782  0.4527
  118CHL1   H2514984  -0.147   1.405   6.214 -1.1289 -0.4123 -0.0494
  118CHL1   C2614985  -0.327   1.454   6.092  0.5657  0.4082 -0.1986
  118CHL1  H26A14986  -0.360   1.551   6.048  0.9191  0.8117  0.4150
  118CHL1  H26B14987  -0.314   1.388   6.004  0.9612 -0.4441  0.4882
  118CHL1  H26C14988  -0.406   1.412   6.159 -0.4516  1.8654 -0.4299
  118CHL1   C2714989  -0.115   1.545   6.052  0.3960 -0.7341 -0.2531
  118CHL1  H27A14990  -0.165   1.624   5.991  0.1421  0.9184  1.9592
  118CHL1  H27B14991  -0.029   1.600   6.098  1.2882 -1.6388 -0.8024
  118CHL1  H27C14992  -0.068   1.455   6.007 -1.6012 -1.7548 -0.3840
  119CHL1    C314993   1.069   6.924   6.402 -0.3929  0.0208 -1.5320
  119CHL1    H314994   1.071   6.813   6.392  2.1214  0.0377 -1.9806
  119CHL1    O314995   1.088   6.978   6.531 -0.0567 -0.3643  0.2383
  119CHL1   H3'14996   1.017   6.941   6.585 -0.6450  1.6328  0.9120
  119CHL1    C414997   1.197   6.968   6.329  0.4928  0.4255 -0.0714
  119CHL1   H4A14998   1.210   7.078   6.335  2.0957  0.3481 -1.2639
  119CHL1   H4B14999   1.285   6.918   6.377  0.8299  0.1173 -0.9965
  119CHL1    C515000   1.193   6.924   6.186 -0.0194  0.9932  1.4008
  119CHL1    C615001   1.282   6.839   6.136 -0.0754 -0.0967 -0.1510
  119CHL1    H615002   1.357   6.798   6.205 -0.1764  1.2374  0.7911
  119CHL1    C715003   1.292   6.802   5.993 -0.1536  0.8393  0.3729
  119CHL1   H7A15004   1.395   6.807   5.952  0.9500  0.1366  2.8662
  119CHL1   H7B15005   1.240   6.704   5.985 -0.8009  1.1544  0.6663
  119CHL1    C815006   1.202   6.891   5.901 -0.9592 -0.1376 -0.6532
  119CHL1    H815007   1.248   6.992   5.896  2.1293 -1.2906  1.2241
  119CHL1   C1415008   1.191   6.821   5.765  0.3665  1.0515  0.0110
  119CHL1   H1415009   1.149   6.720   5.782  1.6417  0.7978  1.9764
  119CHL1   C1515010   1.324   6.794   5.694  0.3032  0.6592 -0.5535
  119CHL1  H15A15011   1.384   6.887   5.703  1.6307 -0.2542  0.4544
  119CHL1  H15B15012   1.373   6.709   5.745  0.5548 -0.5459 -2.6766
  119CHL1   C1615013   1.280   6.761   5.551 -0.0237 -0.0025  0.1695
  119CHL1  H16A15014   1.333   6.822   5.474 -1.7129 -1.3200 -2.1703
  119CHL1  H16B15015   1.288   6.655   5.516 -0.2468 -0.2498  0.8587
  119CHL1   C1715016   1.125   6.791   5.539  0.9145 -0.1427 -0.7097
  119CHL1   H1715017   1.076   6.695   5.565 -0.0474  0.8811  1.5291
  119CHL1   C1315018   1.099   6.888   5.664  0.1414  0.0548 -0.2231
  119CHL1   C1815019   1.151   7.031   5.626 -0.3115 -0.4124  0.0367
  119CHL1  H18A15020   1.247   7.027   5.570  0.1110  0.4508  0.6753
  119CHL1  H18B15021   1.078   7.087   5.563 -2.4961 -4.7100 -1.6219
  119CHL1  H18C15022   1.175   7.088   5.718 -0.0749 -0.7629  0.1959
  119CHL1   C1215023   0.960   6.892   5.732  0.0254 -0.1925  0.0812
  119CHL1  H12A15024   0.888   6.933   5.658  0.6605 -0.6396 -0.7945
  119CHL1  H12B15025   0.934   6.787   5.755  2.3455 -1.2614 -1.7997
  119CHL1   C1115026   0.958   6.968   5.869  0.1268  0.5744  0.0574
  119CHL1  H11A15027   0.987   7.074   5.852  0.6405  0.3224 -0.7224
  119CHL1  H11B15028   0.858   6.958   5.917 -0.2179  1.2461 -0.5012
  119CHL1    C915029   1.064   6.901   5.961  0.0547  0.2457 -0.0073
  119CHL1    H915030   1.030   6.797   5.976  1.1689 -0.0048  0.9258
  119CHL1   C1015031   1.070   6.968   6.104 -0.0662  0.4687 -0.8688
  119CHL1   C1915032   1.075   7.117   6.078  0.0259  0.5874 -1.1897
  119CHL1  H19A15033   1.172   7.149   6.034  1.4228 -0.5202  0.9002
  119CHL1  H19B15034   0.986   7.161   6.028 -0.5962  0.5042 -0.1867
  119CHL1  H19C15035   1.067   7.167   6.177 -1.7183 -0.3920 -0.8111
  119CHL1    C115036   0.943   6.934   6.187  0.4959 -0.6383  0.2486
  119CHL1   H1A15037   0.859   6.985   6.134  0.7975 -0.8635 -0.4541
  119CHL1   H1B15038   0.934   6.823   6.183  0.9669 -0.6549 -0.6512
  119CHL1    C215039   0.948   6.983   6.336 -0.1715  0.4231  0.9363
  119CHL1   H2A15040   0.864   6.937   6.393 -0.3318  0.7915  0.9966
  119CHL1   H2B15041   0.961   7.093   6.340  1.2643  0.4227 -1.5804
  119CHL1   C2015042   1.084   6.837   5.398 -0.8654 -0.0203 -0.4721
  119CHL1   H2015043   1.123   6.940   5.378 -1.2144 -0.1081 -1.6887
  119CHL1   C2115044   0.929   6.842   5.395 -0.0268  1.1186  0.4527
  119CHL1  H21A15045   0.909   6.849   5.286  1.8263 -1.8791 -0.2046
  119CHL1  H21B15046   0.882   6.925   5.452 -1.0389  0.6634  0.2886
  119CHL1  H21C15047   0.903   6.738   5.421  2.2921  0.8788  2.2085
  119CHL1   C2215048   1.135   6.750   5.283  0.2217  0.1909 -0.0785
  119CHL1  H22A15049   1.245   6.734   5.281  0.3415  0.8231  0.7952
  119CHL1  H22B15050   1.106   6.644   5.301  1.3051 -0.2324 -0.7317
  119CHL1   C2315051   1.110   6.801   5.144 -0.9548  0.4195  0.0291
  119CHL1  H23A15052   1.001   6.795   5.124 -1.1263 -0.8852  1.1861
  119CHL1  H23B15053   1.153   6.901   5.122  0.7805 -0.7239 -2.1104
  119CHL1   C2415054   1.169   6.707   5.032 -0.3866 -0.6273 -0.8671
  119CHL1  H24A15055   1.279   6.706   5.037 -0.3918  1.4934  0.6188
  119CHL1  H24B15056   1.143   6.601   5.058  1.6211 -1.6176 -2.6082
  119CHL1   C2515057   1.128   6.735   4.883 -0.4079 -0.3331 -0.5791
  119CHL1   H2515058   1.019   6.715   4.871 -1.0338  2.3562 -0.2215
  119CHL1   C2615059   1.141   6.879   4.831 -0.0515 -0.6509  0.2308
  119CHL1  H26A15060   1.076   6.948   4.889  0.3119  0.3536 -0.5339
  119CHL1  H26B15061   1.241   6.919   4.856  0.0051 -1.1807  0.9061
  119CHL1  H26C15062   1.112   6.887   4.724  0.1684 -0.0954  0.2106
  119CHL1   C2715063   1.212   6.653   4.788  0.3059 -0.1674 -0.0376
  119CHL1  H27A15064   1.220   6.548   4.823 -0.9315  0.4439  2.3220
  119CHL1  H27B15065   1.162   6.649   4.689 -1.2095 -1.0376  0.7269
  119CHL1  H27C15066   1.314   6.697   4.777  0.5426 -0.3888  1.1075
  120CHL1    C315067   7.072   0.930   7.257 -0.1618 -0.6752 -1.0750
  120CHL1    H315068   7.011   1.021   7.274 -0.7867 -1.2487 -0.1194
  120CHL1    O315069   7.162   0.916   7.364  0.7128  0.1359  0.6580
  120CHL1   H3'15070   7.235   0.979   7.364  0.3683  0.5816 -0.7352
  120CHL1    C415071   6.979   0.804   7.246  0.0795  0.4618  0.2139
  120CHL1   H4A15072   7.040   0.711   7.247  1.0291  1.0778  1.1549
  120CHL1   H4B15073   6.918   0.801   7.339 -2.4883 -1.6215 -1.3804
  120CHL1    C515074   6.893   0.798   7.122 -0.0302 -0.9187 -0.3349
  120CHL1    C615075   6.757   0.785   7.127  0.5677 -0.2005 -0.1989
  120CHL1    H615076   6.701   0.782   7.222  0.6858 -0.0558 -0.1240
  120CHL1    C715077   6.667   0.778   7.010  0.8918  0.0125  0.0839
  120CHL1   H7A15078   6.605   0.688   7.030 -0.5658  1.0266  0.2798
  120CHL1   H7B15079   6.601   0.867   7.009  0.1585 -0.5263 -0.3598
  120CHL1    C815080   6.746   0.764   6.874 -0.0860  0.0052 -0.3381
  120CHL1    H815081   6.793   0.663   6.868 -4.9918 -2.6374  0.5187
  120CHL1   C1415082   6.662   0.777   6.750  0.3929  0.3561 -1.0380
  120CHL1   H1415083   6.612   0.876   6.758 -0.8736 -0.2857 -0.8223
  120CHL1   C1515084   6.546   0.678   6.748 -0.7463  0.0637  0.4789
  120CHL1  H15A15085   6.584   0.577   6.775  2.1924  0.6787 -0.9474
  120CHL1  H15B15086   6.474   0.704   6.828 -0.1425 -0.9891  1.3881
  120CHL1   C1615087   6.494   0.689   6.601  0.2131 -1.1769 -0.0639
  120CHL1  H16A15088   6.496   0.588   6.555 -2.2827 -1.5606  0.5231
  120CHL1  H16B15089   6.394   0.737   6.603 -0.3297 -2.2246 -1.2844
  120CHL1   C1715090   6.602   0.774   6.528  0.2381  0.2182 -0.5644
  120CHL1   H1715091   6.570   0.880   6.534 -1.6624 -0.2320 -1.8216
  120CHL1   C1315092   6.730   0.765   6.614 -0.3619  0.0423 -0.0886
  120CHL1   C1815093   6.803   0.634   6.590 -0.0412 -0.3002  0.5099
  120CHL1  H18A15094   6.860   0.644   6.495  0.1480  0.9584  0.7412
  120CHL1  H18B15095   6.875   0.605   6.670 -2.1356 -0.6611  2.3567
  120CHL1  H18C15096   6.729   0.551   6.589 -1.3649  0.8320  1.1901
  120CHL1   C1215097   6.827   0.890   6.612 -0.0663 -0.9568  0.2467
  120CHL1  H12A15098   6.894   0.900   6.523 -1.7094  0.9363 -0.8590
  120CHL1  H12B15099   6.766   0.983   6.612  0.1320 -0.8257  0.2669
  120CHL1   C1115100   6.924   0.902   6.738  0.4716  0.1468 -0.9568
  120CHL1  H11A15101   7.015   0.842   6.719 -0.5546 -1.5457 -0.7107
  120CHL1  H11B15102   6.965   1.005   6.746  1.0318 -0.2232  2.3712
  120CHL1    C915103   6.858   0.866   6.882 -0.4560 -0.5136 -0.1020
  120CHL1    H915104   6.806   0.961   6.910 -0.3723  0.5621 -3.1971
  120CHL1   C1015105   6.962   0.831   6.984  0.0348 -0.4279 -0.4911
  120CHL1   C1915106   7.046   0.703   6.947 -0.0266  0.0903  0.2209
  120CHL1  H19A15107   7.130   0.676   7.015  1.1374  4.2348  0.6648
  120CHL1  H19B15108   6.983   0.613   6.928  0.0322  0.0269  0.3227
  120CHL1  H19C15109   7.099   0.721   6.852 -0.5814  0.6970  0.0221
  120CHL1    C115110   7.055   0.954   7.001 -0.1466  0.2228  0.7535
  120CHL1   H1A15111   7.120   0.939   6.912 -1.5192  2.2095 -0.6493
  120CHL1   H1B15112   7.008   1.054   6.992 -1.4036 -0.4062  0.1658
  120CHL1    C215113   7.151   0.955   7.127 -0.4112  0.8702 -0.4221
  120CHL1   H2A15114   7.197   1.055   7.146  1.6994 -0.4013  1.7161
  120CHL1   H2B15115   7.238   0.888   7.113 -0.6475  0.6703 -0.9902
  120CHL1   C2015116   6.612   0.748   6.372 -0.4875 -0.0751 -0.4079
  120CHL1   H2015117   6.661   0.649   6.356 -0.8408 -0.4313  0.6765
  120CHL1   C2115118   6.711   0.853   6.305  0.3701  0.6363 -0.4248
  120CHL1  H21A15119   6.817   0.822   6.306 -0.0187 -0.9896 -2.5702
  120CHL1  H21B15120   6.695   0.956   6.343 -1.2993  0.1309  0.3603
  120CHL1  H21C15121   6.693   0.872   6.197 -0.1853 -0.5513 -0.5523
  120CHL1   C2215122   6.481   0.756   6.298 -0.7275 -0.6136 -0.1527
  120CHL1  H22A15123   6.505   0.737   6.191 -0.0680 -3.9979  0.4682
  120CHL1  H22B15124   6.423   0.671   6.340  1.8107 -1.9203  0.9398
  120CHL1   C2315125   6.408   0.894   6.306 -0.5954  0.2786 -0.2783
  120CHL1  H23A15126   6.371   0.886   6.410 -0.3325 -0.3856 -0.2315
  120CHL1  H23B15127   6.477   0.976   6.277  0.7967 -1.6239 -2.7530
  120CHL1   C2415128   6.275   0.903   6.223  0.0494  0.3901  0.3767
  120CHL1  H24A15129   6.309   0.870   6.122 -0.7729 -0.7464  0.4478
  120CHL1  H24B15130   6.198   0.835   6.266  0.8712 -1.2121 -0.5871
  120CHL1   C2515131   6.211   1.042   6.210  0.9728 -0.1485  0.0649
  120CHL1   H2515132   6.295   1.100   6.166  0.7432 -0.6261 -1.0187
  120CHL1   C2615133   6.090   1.047   6.121 -0.2183  0.6349 -0.0706
  120CHL1  H26A15134   5.997   1.028   6.179  0.2425  3.8711  1.9691
  120CHL1  H26B15135   6.085   1.156   6.099 -1.0393  0.3249 -1.5832
  120CHL1  H26C15136   6.092   0.985   6.029  0.3583  0.6539 -0.0719
  120CHL1   C2715137   6.162   1.087   6.347  0.1438  0.4601 -0.8919
  120CHL1  H27A15138   6.246   1.077   6.419  0.2378 -0.6446 -1.1509
  120CHL1  H27B15139   6.120   1.190   6.354 -3.0185 -0.7975  0.8090
  120CHL1  H27C15140   6.092   1.009   6.384  1.2170  0.0500  0.3279
  121CHL1    C315141   3.934   4.094   3.072  0.0136 -0.2740 -0.1428
  121CHL1    H315142   3.823   4.086   3.078  0.1111 -0.7179  2.2866
  121CHL1    O315143   3.967   4.100   2.935 -0.1098  0.2022  0.7333
  121CHL1   H3'15144   3.899   4.145   2.885 -0.2604 -2.2266 -1.4440
  121CHL1    C415145   3.962   4.218   3.149  0.4319 -0.7136  0.6644
  121CHL1   H4A15146   4.072   4.234   3.142  0.1150  1.3142 -0.3486
  121CHL1   H4B15147   3.913   4.303   3.097  0.3199 -1.6001 -0.7308
  121CHL1    C515148   3.919   4.210   3.291 -0.1860  0.7121  0.0894
  121CHL1    C615149   3.845   4.302   3.347  0.5688  0.0394  0.6646
  121CHL1    H615150   3.826   4.391   3.286  3.0518 -0.4389 -0.9808
  121CHL1    C715151   3.806   4.307   3.493 -0.1516  0.1537 -0.2239
  121CHL1   H7A15152   3.803   4.412   3.531  0.3138  0.3377 -0.6816
  121CHL1   H7B15153   3.701   4.274   3.510  0.0513 -0.1469  0.4501
  121CHL1    C815154   3.897   4.212   3.585 -0.2361 -0.3186  0.6349
  121CHL1    H815155   3.985   4.279   3.589 -0.4737  0.6346 -3.9964
  121CHL1   C1415156   3.840   4.180   3.721  0.9435 -0.1747  0.3981
  121CHL1   H1415157   3.757   4.110   3.696  1.9650 -0.6420 -1.9709
  121CHL1   C1515158   3.798   4.295   3.807  1.0270  0.2329 -0.3228
  121CHL1  H15A15159   3.878   4.370   3.819 -0.0934  1.2934  0.8407
  121CHL1  H15B15160   3.705   4.344   3.770 -0.0895 -0.9111  0.8646
  121CHL1   C1615161   3.787   4.243   3.952  0.1870  0.2797 -0.4784
  121CHL1  H16A15162   3.852   4.303   4.020 -0.4334  2.1304 -1.4391
  121CHL1  H16B15163   3.680   4.239   3.981  0.1940 -0.9619 -0.5944
  121CHL1   C1715164   3.842   4.097   3.950  0.2133  0.0472  0.1357
  121CHL1   H1715165   3.750   4.038   3.929  2.2337 -2.3212 -3.2442
  121CHL1   C1315166   3.924   4.090   3.819 -0.3718 -0.3941  0.2252
  121CHL1   C1815167   4.054   4.169   3.854 -0.2517  0.1925  0.6949
  121CHL1  H18A15168   4.107   4.182   3.757 -2.3821 -0.5392 -0.6578
  121CHL1  H18B15169   4.042   4.265   3.908  2.6887 -0.8942  3.6346
  121CHL1  H18C15170   4.127   4.107   3.911  0.0337  0.4325  0.5913
  121CHL1   C1215171   3.952   3.959   3.747 -0.1018 -0.3364  0.1544
  121CHL1  H12A15172   4.035   3.898   3.789  0.7894 -1.8234 -3.3783
  121CHL1  H12B15173   3.859   3.901   3.732 -0.8829  0.7152  0.7488
  121CHL1   C1115174   4.009   3.989   3.602 -0.7627  0.4104 -0.5445
  121CHL1  H11A15175   4.110   4.026   3.627 -1.7579  2.0587  1.3782
  121CHL1  H11B15176   4.022   3.889   3.555  1.2322 -0.5288  1.7844
  121CHL1    C915177   3.924   4.080   3.508  0.5387 -0.7022  1.1231
  121CHL1    H915178   3.826   4.030   3.495 -0.9735  2.5927 -1.2685
  121CHL1   C1015179   3.987   4.097   3.366  0.1730  0.4757  0.1219
  121CHL1   C1915180   4.138   4.134   3.390  0.0883 -0.2542  0.0446
  121CHL1  H19A15181   4.190   4.165   3.297 -0.7033 -1.1189 -0.7171
  121CHL1  H19B15182   4.138   4.215   3.466 -0.1828 -0.4143  0.2179
  121CHL1  H19C15183   4.202   4.048   3.421  0.7189  0.1091 -0.2330
  121CHL1    C115184   3.973   3.960   3.282 -0.4695  0.0671  0.0808
  121CHL1   H1A15185   4.027   3.880   3.337 -0.6717 -1.1423 -1.4086
  121CHL1   H1B15186   3.865   3.938   3.299 -0.3140  1.3927  3.3991
  121CHL1    C215187   4.010   3.975   3.133 -0.1635  0.5362  0.4862
  121CHL1   H2A15188   3.984   3.876   3.090  2.5359 -0.3701  0.7926
  121CHL1   H2B15189   4.117   3.994   3.113 -0.8202 -0.1232 -4.9943
  121CHL1   C2015190   3.898   4.041   4.082 -0.5607  0.7372 -0.7008
  121CHL1   H2015191   3.975   4.115   4.112  2.5345 -2.2140 -0.7389
  121CHL1   C2115192   3.958   3.898   4.064  0.4139  0.5614 -0.2689
  121CHL1  H21A15193   3.879   3.835   4.019  0.0230  1.5971 -1.0713
  121CHL1  H21B15194   3.998   3.855   4.159  1.5574 -0.2964 -1.1179
  121CHL1  H21C15195   4.049   3.888   4.002  0.7973 -1.1482  0.5042
  121CHL1   C2215196   3.788   4.044   4.194 -0.5840 -0.4444  0.4725
  121CHL1  H22A15197   3.733   4.141   4.187  2.7323  1.5346 -0.5421
  121CHL1  H22B15198   3.710   3.967   4.179 -3.3956  1.6702  3.0039
  121CHL1   C2315199   3.857   4.037   4.329 -0.0319 -0.5944  0.4818
  121CHL1  H23A15200   3.916   3.944   4.349 -1.0325 -0.7475  3.1523
  121CHL1  H23B15201   3.929   4.121   4.331  1.9966 -2.2505  0.4390
  121CHL1   C2415202   3.753   4.059   4.445 -0.7027 -0.3609 -0.0869
  121CHL1  H24A15203   3.698   4.153   4.426  0.5847  0.5679  0.6038
  121CHL1  H24B15204   3.685   3.972   4.434  2.5682 -3.2295  0.4477
  121CHL1   C2515205   3.800   4.053   4.592 -0.2448  0.3210 -0.0807
  121CHL1   H2515206   3.845   3.955   4.616  1.3955  1.1675  0.4432
  121CHL1   C2615207   3.909   4.160   4.624  0.4402 -0.0534  0.5714
  121CHL1  H26A15208   4.005   4.138   4.572 -0.1613 -2.9234  0.4836
  121CHL1  H26B15209   3.868   4.256   4.587  0.7672 -0.9007 -2.2422
  121CHL1  H26C15210   3.925   4.156   4.734 -1.7253  3.0129  1.1205
  121CHL1   C2715211   3.678   4.070   4.685 -0.7413  0.6901 -0.1488
  121CHL1  H27A15212   3.622   3.975   4.670  0.9339 -0.0238 -2.3578
  121CHL1  H27B15213   3.715   4.076   4.790 -0.2110 -0.0087 -0.2919
  121CHL1  H27C15214   3.615   4.160   4.667 -2.8100 -0.6663 -0.0914
  122CHL1    C315215   3.057   4.112   3.221  0.3129 -0.5925  0.6492
  122CHL1    H315216   3.156   4.150   3.253 -0.6833  1.0203  2.0120
  122CHL1    O315217   3.050   4.087   3.085  0.3970  0.4138  0.3092
  122CHL1   H3'15218   3.134   4.073   3.041 -0.8482  2.0225 -2.8661
  122CHL1    C415219   3.017   3.995   3.311  0.0739 -0.3237  0.3108
  122CHL1   H4A15220   2.932   3.941   3.264 -0.3617  1.0726 -0.5486
  122CHL1   H4B15221   3.102   3.924   3.300  1.0300  0.8909 -0.5131
  122CHL1    C515222   2.998   4.023   3.463 -0.4128 -0.1394  0.3784
  122CHL1    C615223   3.069   3.949   3.554 -0.2165  0.6659  0.6180
  122CHL1    H615224   3.126   3.860   3.524 -0.1003  0.7342  0.6359
  122CHL1    C715225   3.059   3.969   3.702 -0.1685 -0.0604 -0.1274
  122CHL1   H7A15226   3.044   3.870   3.750  0.1409 -0.1328 -0.1803
  122CHL1   H7B15227   3.149   4.014   3.748 -1.4931  2.7470 -0.0124
  122CHL1    C815228   2.933   4.059   3.735  0.3612 -0.2531 -0.7945
  122CHL1    H815229   2.839   4.005   3.708 -0.1691  0.9102 -1.3478
  122CHL1   C1415230   2.947   4.101   3.874  0.0596 -0.2682 -0.6085
  122CHL1   H1415231   3.046   4.150   3.879 -0.3316  0.3873  2.0150
  122CHL1   C1515232   2.960   3.989   3.973 -0.0135  0.3009 -0.6786
  122CHL1  H15A15233   2.870   3.923   3.978  0.3740 -0.2377 -0.7610
  122CHL1  H15B15234   3.057   3.935   3.974 -1.0428 -1.8458  2.8789
  122CHL1   C1615235   2.950   4.068   4.112  0.6050  0.5581  0.4011
  122CHL1  H16A15236   2.878   4.020   4.181 -1.7178 -0.6023 -2.5979
  122CHL1  H16B15237   3.049   4.068   4.164  1.7491  2.7150 -1.5978
  122CHL1   C1715238   2.906   4.209   4.072  0.1218  0.1201  0.1427
  122CHL1   H1715239   2.998   4.270   4.062  1.6617 -2.1543 -0.4592
  122CHL1   C1315240   2.844   4.198   3.929 -0.5936 -0.2055  0.0425
  122CHL1   C1815241   2.705   4.129   3.941  0.7088 -0.7357 -0.6633
  122CHL1  H18A15242   2.629   4.210   3.933  1.7427  0.5305  1.4125
  122CHL1  H18B15243   2.690   4.060   3.856 -2.6084 -1.5323  0.3848
  122CHL1  H18C15244   2.697   4.071   4.036  2.0026  0.9954  0.5699
  122CHL1   C1215245   2.834   4.327   3.842  0.2168 -0.7599  0.8034
  122CHL1  H12A15246   2.747   4.391   3.866  0.8376 -0.8592  3.6094
  122CHL1  H12B15247   2.928   4.385   3.852 -0.9744  1.4583 -0.1309
  122CHL1   C1115248   2.811   4.286   3.692  0.7137 -0.4039  0.4163
  122CHL1  H11A15249   2.710   4.249   3.663  1.1499  0.0226 -1.8450
  122CHL1  H11B15250   2.835   4.379   3.636 -0.4937 -0.0269  0.5150
  122CHL1    C915251   2.922   4.184   3.641 -0.0552  0.4380  0.2029
  122CHL1    H915252   3.018   4.239   3.657 -0.8428  1.6973  0.8087
  122CHL1   C1015253   2.909   4.144   3.492 -0.8305  0.2183 -0.4840
  122CHL1   C1915254   2.765   4.106   3.463  0.3788  0.1597 -0.3675
  122CHL1  H19A15255   2.684   4.182   3.459  0.3244  0.0805 -0.9796
  122CHL1  H19B15256   2.763   4.052   3.365  1.1320 -0.6914  0.0684
  122CHL1  H19C15257   2.736   4.030   3.539  1.8375  0.4055  0.4694
  122CHL1    C115258   2.952   4.258   3.397  0.1058 -0.2033 -0.3203
  122CHL1   H1A15259   2.873   4.335   3.411 -0.2225 -0.5042 -0.5163
  122CHL1   H1B15260   3.049   4.302   3.428 -0.8293  0.5700  1.7079
  122CHL1    C215261   2.950   4.226   3.245 -0.6050  0.4064 -0.1323
  122CHL1   H2A15262   2.965   4.319   3.187 -0.6387  0.4581 -0.0570
  122CHL1   H2B15263   2.852   4.189   3.207 -0.6468  1.2790 -0.8985
  122CHL1   C2015264   2.831   4.274   4.192  0.4394  0.1744  0.6638
  122CHL1   H2015265   2.743   4.213   4.223 -1.2251  1.3735 -1.4068
  122CHL1   C2115266   2.797   4.419   4.147  0.6876  0.1542  0.0115
  122CHL1  H21A15267   2.880   4.461   4.087 -0.2765 -0.0178 -1.5003
  122CHL1  H21B15268   2.759   4.475   4.235 -2.8421 -0.9554 -0.6197
  122CHL1  H21C15269   2.711   4.414   4.077  0.6673  0.1813  0.0344
  122CHL1   C2215270   2.909   4.270   4.321 -0.2883 -0.3671  0.2640
  122CHL1  H22A15271   2.925   4.164   4.351 -2.6388 -0.2516  2.2270
  122CHL1  H22B15272   3.006   4.324   4.310  0.2140 -0.9676  1.5477
  122CHL1   C2315273   2.838   4.330   4.446  0.8902 -0.3676 -0.4396
  122CHL1  H23A15274   2.833   4.441   4.441 -0.3649 -0.3653  0.4312
  122CHL1  H23B15275   2.740   4.289   4.479  0.1575  2.4469  1.2071
  122CHL1   C2415276   2.931   4.295   4.567  0.3399  0.5885  0.7491
  122CHL1  H24A15277   2.924   4.187   4.590 -0.2031  0.6995  1.1201
  122CHL1  H24B15278   3.033   4.316   4.529 -0.1911  1.5060 -0.2338
  122CHL1   C2515279   2.903   4.370   4.698 -0.0964 -0.2137 -0.3024
  122CHL1   H2515280   2.898   4.479   4.677 -3.3490 -0.7068 -2.9558
  122CHL1   C2615281   2.764   4.328   4.752  0.0500  0.0402  0.1273
  122CHL1  H26A15282   2.752   4.218   4.748 -3.2128  0.3059  0.0974
  122CHL1  H26B15283   2.742   4.355   4.858 -2.2679 -2.2707  0.3328
  122CHL1  H26C15284   2.682   4.361   4.684 -0.2228 -0.9786 -0.0578
  122CHL1   C2715285   3.022   4.352   4.798 -0.0522 -0.2273  0.6462
  122CHL1  H27A15286   3.100   4.423   4.762  0.1932 -0.9657 -0.3212
  122CHL1  H27B15287   3.004   4.372   4.906  1.7223 -1.9647  1.3385
  122CHL1  H27C15288   3.075   4.254   4.797  0.1160 -0.1360  0.4946
  123CHL1    C315289   4.655   4.015   2.914  0.7406  0.6706 -0.8276
  123CHL1    H315290   4.558   3.974   2.879 -0.6784  0.3204  2.9836
  123CHL1    O315291   4.712   4.067   2.795  0.0874 -0.1009  0.0644
  123CHL1   H3'15292   4.636   4.087   2.739  1.1227  1.2067 -0.9698
  123CHL1    C415293   4.634   4.122   3.024 -0.1276  0.0065 -0.1774
  123CHL1   H4A15294   4.727   4.183   3.029 -0.9321  1.1555  1.7148
  123CHL1   H4B15295   4.563   4.199   2.987  0.1451  0.0429 -0.6423
  123CHL1    C515296   4.600   4.068   3.164  0.8051 -0.3718 -0.3753
  123CHL1    C615297   4.489   4.107   3.239 -0.0621 -0.8305 -0.5028
  123CHL1    H615298   4.423   4.183   3.194 -0.4139 -1.3367 -0.8562
  123CHL1    C715299   4.470   4.068   3.378  0.0358  0.4611 -0.4702
  123CHL1   H7A15300   4.471   4.159   3.442 -0.6689 -1.2881  2.2012
  123CHL1   H7B15301   4.381   4.006   3.404  1.2659 -1.1845 -0.0383
  123CHL1    C815302   4.586   3.993   3.437 -0.5582  0.5115  0.4947
  123CHL1    H815303   4.665   4.063   3.472  2.9559 -2.9579  0.1584
  123CHL1   C1415304   4.535   3.911   3.554 -0.2680 -0.6222  0.3505
  123CHL1   H1415305   4.471   3.834   3.505  0.0412 -1.3886  1.1332
  123CHL1   C1515306   4.438   3.975   3.654 -0.4921  0.6534 -0.4113
  123CHL1  H15A15307   4.470   4.077   3.686  0.5233  0.3152 -0.3049
  123CHL1  H15B15308   4.337   3.988   3.609 -0.1726 -0.5927 -1.5843
  123CHL1   C1615309   4.430   3.877   3.778  0.0438 -0.0824  0.8177
  123CHL1  H16A15310   4.467   3.938   3.863 -0.1434 -2.0388  2.3703
  123CHL1  H16B15311   4.333   3.826   3.794 -0.6101  1.3492  1.5900
  123CHL1   C1715312   4.544   3.776   3.741  0.0790  0.5737 -0.0525
  123CHL1   H1715313   4.487   3.700   3.683 -0.8334  2.3748 -1.6140
  123CHL1   C1315314   4.636   3.834   3.637 -0.1339 -0.3431 -0.1806
  123CHL1   C1815315   4.745   3.931   3.696 -0.2780  0.2182 -0.3524
  123CHL1  H18A15316   4.809   3.966   3.612 -0.0256 -0.6067 -0.5112
  123CHL1  H18B15317   4.702   4.019   3.747  1.6645  0.9830  0.0559
  123CHL1  H18C15318   4.805   3.868   3.765  1.1644 -0.3645 -2.0708
  123CHL1   C1215319   4.699   3.730   3.539  0.3796 -0.0062  0.0782
  123CHL1  H12A15320   4.777   3.663   3.582  2.3030  1.8638 -0.3253
  123CHL1  H12B15321   4.614   3.663   3.514 -1.1912  0.8230  2.7457
  123CHL1   C1115322   4.752   3.796   3.415 -0.0412 -0.7180  0.1811
  123CHL1  H11A15323   4.841   3.856   3.445  0.2671 -0.6735 -0.7861
  123CHL1  H11B15324   4.790   3.727   3.337  0.6017  0.8906 -0.9957
  123CHL1    C915325   4.655   3.896   3.343  0.8446 -0.2049 -0.1011
  123CHL1    H915326   4.571   3.834   3.305  1.4401 -0.7700 -0.5400
  123CHL1   C1015327   4.703   3.961   3.209  0.8354  0.5229 -0.6162
  123CHL1   C1915328   4.834   4.022   3.240  0.2114  0.4596  0.7308
  123CHL1  H19A15329   4.827   4.089   3.328  1.6440  0.2389  1.0501
  123CHL1  H19B15330   4.913   3.946   3.261 -1.4217 -1.6197 -0.3449
  123CHL1  H19C15331   4.875   4.089   3.161  0.4723 -0.6656 -0.1177
  123CHL1    C115332   4.712   3.849   3.098 -0.2180 -0.2529  0.2389
  123CHL1   H1A15333   4.786   3.771   3.124 -0.2669 -0.5951 -0.6269
  123CHL1   H1B15334   4.610   3.808   3.082 -0.6053 -0.4138  2.7272
  123CHL1    C215335   4.750   3.906   2.964 -0.0428 -0.0648 -0.4718
  123CHL1   H2A15336   4.735   3.819   2.896  2.3484 -0.5061 -0.5386
  123CHL1   H2B15337   4.853   3.949   2.966  0.2235 -0.6541  2.5250
  123CHL1   C2015338   4.599   3.715   3.868  0.6640 -0.6157 -0.1432
  123CHL1   H2015339   4.635   3.797   3.934 -1.9835 -1.4536  2.5714
  123CHL1   C2115340   4.711   3.614   3.846  0.3174 -0.1667 -0.1601
  123CHL1  H21A15341   4.684   3.548   3.760  0.0341  0.7253 -0.7689
  123CHL1  H21B15342   4.726   3.553   3.938 -0.9530 -1.8091 -0.9720
  123CHL1  H21C15343   4.806   3.658   3.810  0.5553 -1.5277 -1.2785
  123CHL1   C2215344   4.480   3.651   3.955  0.0438 -0.0775  0.1783
  123CHL1  H22A15345   4.418   3.736   3.990 -1.0948  0.2419 -2.3325
  123CHL1  H22B15346   4.417   3.588   3.888  0.7328  0.7176 -1.2833
  123CHL1   C2315347   4.524   3.565   4.074  0.3742 -0.2448 -0.4425
  123CHL1  H23A15348   4.427   3.535   4.119  1.7050 -0.4550  2.5625
  123CHL1  H23B15349   4.578   3.471   4.050 -0.3583 -0.5555 -0.9158
  123CHL1   C2415350   4.596   3.653   4.179  0.7021 -0.1385  0.4099
  123CHL1  H24A15351   4.683   3.704   4.133  0.5609  0.1118  0.4143
  123CHL1  H24B15352   4.527   3.738   4.199 -0.0660 -0.2799 -1.4294
  123CHL1   C2515353   4.634   3.582   4.313  0.6880  0.0470  0.6517
  123CHL1   H2515354   4.700   3.498   4.281  0.7746  0.4888 -0.3906
  123CHL1   C2615355   4.710   3.671   4.415  0.8299  0.0478  0.3715
  123CHL1  H26A15356   4.745   3.598   4.492 -1.9844 -2.8812 -0.8426
  123CHL1  H26B15357   4.798   3.719   4.368  0.2979  2.0590  1.3292
  123CHL1  H26C15358   4.644   3.748   4.459  1.3318 -0.5048  2.2161
  123CHL1   C2715359   4.513   3.518   4.380  0.0605  0.0536 -0.3130
  123CHL1  H27A15360   4.425   3.585   4.372 -0.8779 -1.0263  0.5511
  123CHL1  H27B15361   4.495   3.419   4.333  1.9400 -0.3571 -0.2146
  123CHL1  H27C15362   4.532   3.490   4.486  1.7742 -1.4591 -0.9777
  124CHL1    C315363   4.200   5.395   2.853  0.6235 -0.0451 -0.5352
  124CHL1    H315364   4.100   5.352   2.873 -0.7815  2.6722 -1.2408
  124CHL1    O315365   4.259   5.368   2.722 -0.1541 -0.7960 -0.6185
  124CHL1   H3'15366   4.263   5.274   2.706  2.6467 -0.3927 -3.0575
  124CHL1    C415367   4.185   5.549   2.865  0.6257  0.3265  0.0575
  124CHL1   H4A15368   4.286   5.595   2.852  1.3686 -1.6253 -1.7980
  124CHL1   H4B15369   4.122   5.582   2.779  3.0591  0.9826 -1.6064
  124CHL1    C515370   4.128   5.592   2.996 -0.9083 -0.0258 -0.0448
  124CHL1    C615371   4.017   5.665   3.006 -0.1695 -0.2092 -0.0098
  124CHL1    H615372   3.966   5.700   2.915 -1.1084 -0.3895  0.4368
  124CHL1    C715373   3.948   5.698   3.133 -0.1002 -0.0754 -1.0237
  124CHL1   H7A15374   3.925   5.806   3.141 -1.6031 -0.3550 -1.2364
  124CHL1   H7B15375   3.851   5.645   3.138 -1.7915  2.7988 -0.8958
  124CHL1    C815376   4.032   5.670   3.259 -0.2923 -0.0402 -0.1780
  124CHL1    H815377   4.103   5.754   3.269  0.7578 -1.0554  1.5176
  124CHL1   C1415378   3.951   5.663   3.382  0.2394  0.7020  0.3679
  124CHL1   H1415379   3.900   5.566   3.364  0.9100  0.6547 -1.6171
  124CHL1   C1515380   3.833   5.759   3.392 -0.3071  0.4908  0.0397
  124CHL1  H15A15381   3.873   5.857   3.358 -1.3222  0.8685 -0.0905
  124CHL1  H15B15382   3.738   5.731   3.340  1.0075 -1.5686 -1.4179
  124CHL1   C1615383   3.812   5.761   3.550  0.4159  0.0554 -0.0527
  124CHL1  H16A15384   3.835   5.866   3.579  1.3458 -0.3689  0.8061
  124CHL1  H16B15385   3.712   5.723   3.580  1.4583 -2.3118  0.6545
  124CHL1   C1715386   3.914   5.668   3.619 -0.5582  0.0582  0.4074
  124CHL1   H1715387   3.865   5.568   3.614  0.7700 -0.5406 -1.9457
  124CHL1   C1315388   4.024   5.661   3.514  0.1239  0.4234  0.2118
  124CHL1   C1815389   4.135   5.771   3.529 -0.3572  0.5783  0.9807
  124CHL1  H18A15390   4.087   5.871   3.541  1.4066  1.6905 -0.6819
  124CHL1  H18B15391   4.200   5.757   3.619 -1.2312 -1.1718  1.3826
  124CHL1  H18C15392   4.202   5.777   3.441 -1.4056 -1.5103 -0.0252
  124CHL1   C1215393   4.102   5.528   3.504 -0.8239  0.5462 -0.6803
  124CHL1  H12A15394   4.167   5.535   3.594 -1.4851  1.0813 -0.2330
  124CHL1  H12B15395   4.037   5.441   3.530  0.8630 -0.7208 -0.5264
  124CHL1   C1115396   4.191   5.509   3.377  0.3335  0.1599  0.1654
  124CHL1  H11A15397   4.284   5.567   3.389  0.5582 -0.3769  1.1903
  124CHL1  H11B15398   4.231   5.405   3.382 -0.6845 -0.1877  2.6240
  124CHL1    C915399   4.116   5.543   3.239 -0.2306  0.1375 -0.9735
  124CHL1    H915400   4.041   5.462   3.223  0.2767  0.1612 -4.1209
  124CHL1   C1015401   4.199   5.532   3.115 -0.7052 -0.1770 -0.4555
  124CHL1   C1915402   4.329   5.617   3.133 -0.4082  0.2725  0.1888
  124CHL1  H19A15403   4.397   5.623   3.045  0.2709 -1.1806  0.5863
  124CHL1  H19B15404   4.306   5.721   3.167 -0.0965  0.2563  0.4561
  124CHL1  H19C15405   4.384   5.560   3.211 -0.8304 -1.1018 -0.4958
  124CHL1    C115406   4.236   5.378   3.096 -0.5068 -0.0187 -0.0171
  124CHL1   H1A15407   4.300   5.337   3.177 -0.2706 -2.3675 -1.2721
  124CHL1   H1B15408   4.139   5.323   3.103 -2.0844  2.5974 -0.1345
  124CHL1    C215409   4.296   5.341   2.960 -0.0421 -0.2668  0.5060
  124CHL1   H2A15410   4.308   5.231   2.951 -0.0939 -0.2463  0.1697
  124CHL1   H2B15411   4.391   5.397   2.946 -0.9662  1.3032  0.2913
  124CHL1   C2015412   3.936   5.693   3.767 -0.4460  0.3191  0.0090
  124CHL1   H2015413   3.978   5.795   3.770 -1.5643  0.8064 -0.3956
  124CHL1   C2115414   4.044   5.597   3.817 -0.4775  0.2828  0.2740
  124CHL1  H21A15415   4.044   5.599   3.928  1.8712 -2.5805  0.4600
  124CHL1  H21B15416   4.144   5.618   3.774 -0.6548 -0.1222 -0.3545
  124CHL1  H21C15417   4.026   5.490   3.796  0.5524  0.1481  0.0395
  124CHL1   C2215418   3.810   5.689   3.858  0.3664 -0.6357 -0.2600
  124CHL1  H22A15419   3.735   5.757   3.811 -1.5353 -1.7706  0.9715
  124CHL1  H22B15420   3.768   5.587   3.849 -0.3779 -0.4631  1.0058
  124CHL1   C2315421   3.831   5.729   4.008  0.6686  0.7255 -0.3813
  124CHL1  H23A15422   3.862   5.639   4.066  1.0166  1.4052  0.5137
  124CHL1  H23B15423   3.904   5.812   4.011  1.6689 -0.1112 -0.9479
  124CHL1   C2415424   3.692   5.775   4.069  0.9746  0.3843 -0.3428
  124CHL1  H24A15425   3.671   5.878   4.032  1.8403  0.5535 -0.3886
  124CHL1  H24B15426   3.614   5.707   4.028 -0.0794 -0.4796  2.8134
  124CHL1   C2515427   3.673   5.767   4.218 -0.5642 -0.3081 -0.2793
  124CHL1   H2515428   3.728   5.675   4.250 -0.3253  0.3749  1.3648
  124CHL1   C2615429   3.726   5.899   4.284 -0.1704 -0.1801  0.3557
  124CHL1  H26A15430   3.723   5.899   4.395  1.5895 -1.7570  0.4595
  124CHL1  H26B15431   3.831   5.909   4.249  0.1329 -1.2192  0.9158
  124CHL1  H26C15432   3.658   5.981   4.252 -1.4686 -2.4105 -3.1936
  124CHL1   C2715433   3.523   5.750   4.265 -0.2625  0.3253 -0.1759
  124CHL1  H27A15434   3.528   5.742   4.375  1.2316 -2.4609 -0.3655
  124CHL1  H27B15435   3.460   5.836   4.232  1.2189  1.0582 -1.2663
  124CHL1  H27C15436   3.496   5.654   4.216 -0.1903  0.0929  0.2391
  125CHL1    C315437   4.816   5.430   2.826  0.0584  0.1222 -0.7087
  125CHL1    H315438   4.714   5.468   2.806 -1.0115 -2.2459 -0.0641
  125CHL1    O315439   4.907   5.427   2.710  0.5449 -0.4395  0.2672
  125CHL1   H3'15440   4.983   5.383   2.749  1.3567 -0.0261 -0.8058
  125CHL1    C415441   4.880   5.523   2.934 -0.4071 -0.6998  0.7829
  125CHL1   H4A15442   4.984   5.486   2.946 -0.4209 -0.5655  1.3791
  125CHL1   H4B15443   4.892   5.627   2.898 -1.3072 -0.3051  1.5531
  125CHL1    C515444   4.803   5.525   3.062  0.5705  0.0355 -0.3183
  125CHL1    C615445   4.760   5.639   3.113  0.2465 -0.1440  0.7260
  125CHL1    H615446   4.771   5.729   3.050  2.5108 -0.9150 -0.0579
  125CHL1    C715447   4.690   5.641   3.240 -0.2960 -0.1818 -0.1749
  125CHL1   H7A15448   4.721   5.727   3.303 -0.1139 -0.2007 -0.2397
  125CHL1   H7B15449   4.585   5.662   3.210 -0.3703  0.0852  0.2564
  125CHL1    C815450   4.701   5.521   3.331  0.4327  0.6558 -0.0699
  125CHL1    H815451   4.802   5.524   3.376 -0.4974 -1.2361  2.3894
  125CHL1   C1415452   4.605   5.523   3.452  0.4087  0.0224  0.1815
  125CHL1   H1415453   4.508   5.506   3.401 -0.1158  2.6419  0.1836
  125CHL1   C1515454   4.582   5.649   3.536 -0.6515 -0.7063 -0.5055
  125CHL1  H15A15455   4.685   5.685   3.559 -1.9250  3.4274 -0.5756
  125CHL1  H15B15456   4.530   5.729   3.479  0.9592 -0.3388 -1.5259
  125CHL1   C1615457   4.509   5.595   3.664  0.8672  0.1982  0.3278
  125CHL1  H16A15458   4.568   5.624   3.754  0.9730 -0.5066  0.4844
  125CHL1  H16B15459   4.403   5.626   3.675  1.3646  1.9328  0.5522
  125CHL1   C1715460   4.507   5.439   3.649 -0.2669  0.3728 -0.4183
  125CHL1   H1715461   4.411   5.425   3.595  0.4988  0.7195 -1.9230
  125CHL1   C1315462   4.621   5.404   3.550 -1.0109  0.3687  0.2699
  125CHL1   C1815463   4.756   5.401   3.626 -0.2225  0.0216  0.6689
  125CHL1  H18A15464   4.838   5.431   3.557 -0.1677  0.4500  0.9174
  125CHL1  H18B15465   4.761   5.479   3.705  0.3525  2.3766 -1.5444
  125CHL1  H18C15466   4.775   5.296   3.657 -1.2237  0.4730  3.0193
  125CHL1   C1215467   4.596   5.282   3.459  0.0359  0.0986 -0.3717
  125CHL1  H12A15468   4.614   5.190   3.518  1.9467  1.1262  0.7509
  125CHL1  H12B15469   4.488   5.278   3.432 -0.8264 -1.4364  2.8660
  125CHL1   C1115470   4.692   5.270   3.342 -0.0843 -0.1137 -0.3997
  125CHL1  H11A15471   4.794   5.251   3.382  0.2930 -1.7843 -2.0056
  125CHL1  H11B15472   4.664   5.178   3.286 -0.5205  0.5904 -1.3692
  125CHL1    C915473   4.688   5.394   3.248 -0.0016  0.7637  0.6305
  125CHL1    H915474   4.591   5.393   3.194  0.2317 -1.6429  0.1361
  125CHL1   C1015475   4.783   5.395   3.135 -0.1386 -0.0338  0.5048
  125CHL1   C1915476   4.921   5.340   3.182 -0.2725 -0.0834 -0.8074
  125CHL1  H19A15477   4.911   5.233   3.210  2.4098 -0.4619 -1.0121
  125CHL1  H19B15478   5.004   5.349   3.108  1.8744 -2.1862  1.1883
  125CHL1  H19C15479   4.958   5.374   3.281 -2.8889 -0.1838  0.2862
  125CHL1    C115480   4.732   5.293   3.029 -0.5275 -0.3771  0.1071
  125CHL1   H1A15481   4.760   5.195   3.073  0.3884  0.2707  0.9858
  125CHL1   H1B15482   4.621   5.290   3.025 -0.5577 -1.5945  1.2226
  125CHL1    C215483   4.798   5.298   2.889  0.3953  0.0014  0.3358
  125CHL1   H2A15484   4.741   5.241   2.813 -0.5575 -0.0973  1.1084
  125CHL1   H2B15485   4.895   5.243   2.890  0.9864  0.9246 -1.5640
  125CHL1   C2015486   4.500   5.365   3.788 -0.4145  0.2846  1.2512
  125CHL1   H2015487   4.608   5.360   3.813  0.4208  2.0251 -1.5681
  125CHL1   C2115488   4.443   5.222   3.755  0.0153 -0.5776 -0.8120
  125CHL1  H21A15489   4.492   5.166   3.673 -1.3642 -1.2052 -1.2357
  125CHL1  H21B15490   4.341   5.256   3.726 -0.8307 -1.6116  0.7719
  125CHL1  H21C15491   4.430   5.150   3.838 -0.3777 -0.6744 -0.9529
  125CHL1   C2215492   4.434   5.441   3.907 -0.5191 -0.2653  0.0343
  125CHL1  H22A15493   4.500   5.527   3.932  2.0402 -2.2305  0.4688
  125CHL1  H22B15494   4.334   5.478   3.878 -0.7269 -1.0812 -0.3163
  125CHL1   C2315495   4.432   5.356   4.026  0.3919 -0.6859  0.4591
  125CHL1  H23A15496   4.349   5.283   4.016 -0.6467  0.5205  0.1275
  125CHL1  H23B15497   4.523   5.293   4.042 -0.2907 -2.0088 -0.6917
  125CHL1   C2415498   4.410   5.431   4.162  0.5665  0.0971  0.1837
  125CHL1  H24A15499   4.490   5.505   4.180  0.1837  1.1424 -2.0841
  125CHL1  H24B15500   4.312   5.484   4.162  0.7507  0.7043 -3.4320
  125CHL1   C2515501   4.425   5.332   4.281  0.7446  0.1237  0.6033
  125CHL1   H2515502   4.526   5.288   4.269  1.2736  1.5287 -0.3862
  125CHL1   C2615503   4.423   5.403   4.418 -0.3427 -0.1818  0.0180
  125CHL1  H26A15504   4.496   5.356   4.487 -1.4753  2.6011  3.4432
  125CHL1  H26B15505   4.469   5.504   4.414 -1.7591  0.4751 -3.5984
  125CHL1  H26C15506   4.320   5.402   4.461 -1.0226 -0.4559 -1.5599
  125CHL1   C2715507   4.318   5.217   4.278  0.5656 -0.8198 -0.4914
  125CHL1  H27A15508   4.221   5.272   4.275  1.4026  0.7783  0.5005
  125CHL1  H27B15509   4.334   5.146   4.193 -1.8142 -1.1244 -0.7474
  125CHL1  H27C15510   4.333   5.168   4.376 -0.6700 -2.1220 -0.9249
  126CHL1    C315511   3.016   5.379   3.133  0.2011  0.5263 -0.6865
  126CHL1    H315512   3.081   5.465   3.158 -0.9250  1.2664 -0.2326
  126CHL1    O315513   3.019   5.366   2.996  0.2183  0.8044  0.3927
  126CHL1   H3'15514   3.098   5.416   2.978  1.2188 -0.7231  0.3555
  126CHL1    C415515   3.072   5.254   3.210  0.3726  0.1275  0.4108
  126CHL1   H4A15516   3.017   5.172   3.160 -1.7434  2.4825 -1.4407
  126CHL1   H4B15517   3.179   5.261   3.180  0.7924  0.1621  1.8520
  126CHL1    C515518   3.051   5.244   3.359  0.1256 -0.0659  0.4422
  126CHL1    C615519   3.155   5.230   3.435 -0.5099 -0.9377 -0.0828
  126CHL1    H615520   3.254   5.222   3.387  0.9789  0.8040  2.4250
  126CHL1    C715521   3.145   5.248   3.582  0.2579  0.2742 -0.0284
  126CHL1   H7A15522   3.222   5.187   3.634 -1.7759 -0.3039  2.5172
  126CHL1   H7B15523   3.178   5.351   3.608  0.3197  0.3481 -0.4000
  126CHL1    C815524   3.003   5.224   3.634 -1.1944  0.2713 -0.4321
  126CHL1    H815525   2.975   5.116   3.636  0.5328 -0.2208  1.9695
  126CHL1   C1415526   2.991   5.272   3.777 -0.7202 -0.2510 -0.9567
  126CHL1   H1415527   3.012   5.381   3.774 -0.7652 -0.2509 -1.3049
  126CHL1   C1515528   3.095   5.222   3.878  0.2471  0.6312 -0.4501
  126CHL1  H15A15529   3.102   5.112   3.875  1.1006  0.6350  0.6881
  126CHL1  H15B15530   3.192   5.275   3.873  0.2713  0.6716  0.3664
  126CHL1   C1615531   3.029   5.265   4.013 -1.2955 -0.2418 -0.1490
  126CHL1  H16A15532   3.063   5.201   4.097  1.6284  0.2445 -0.8244
  126CHL1  H16B15533   3.080   5.361   4.038 -0.9308 -1.0730  2.6614
  126CHL1   C1715534   2.879   5.291   3.984  0.1778  0.5642 -0.2186
  126CHL1   H1715535   2.887   5.401   3.977  1.8210  0.5134  0.3459
  126CHL1   C1315536   2.855   5.248   3.841  0.3989  0.3525  0.3161
  126CHL1   C1815537   2.825   5.098   3.845  0.0306 -0.7282  0.2743
  126CHL1  H18A15538   2.818   5.056   3.742  0.5815 -1.1744  0.4078
  126CHL1  H18B15539   2.908   5.042   3.893  0.5776  0.6351  0.9567
  126CHL1  H18C15540   2.730   5.074   3.896 -1.1030 -0.2663 -1.5314
  126CHL1   C1215541   2.752   5.330   3.762  0.1162  0.1099  0.0008
  126CHL1  H12A15542   2.649   5.327   3.805 -1.2002  0.0398 -2.9674
  126CHL1  H12B15543   2.772   5.439   3.778 -1.6599  0.4203  0.3059
  126CHL1   C1115544   2.751   5.293   3.612 -0.0576  0.2950  0.1074
  126CHL1  H11A15545   2.710   5.191   3.596  2.3607 -0.3214 -3.2849
  126CHL1  H11B15546   2.687   5.366   3.558 -1.6203 -0.5210  0.7945
  126CHL1    C915547   2.898   5.301   3.552  0.1959  0.3359 -0.1166
  126CHL1    H915548   2.932   5.406   3.569 -0.0261  0.6616 -1.5252
  126CHL1   C1015549   2.909   5.278   3.397  0.0020  0.7146 -0.1874
  126CHL1   C1915550   2.812   5.167   3.359  0.5412 -0.0204  0.8845
  126CHL1  H19A15551   2.706   5.200   3.359  1.1112  2.0025  2.1669
  126CHL1  H19B15552   2.831   5.125   3.258  0.0031 -1.2544  1.2910
  126CHL1  H19C15553   2.815   5.088   3.437 -2.6357 -2.3883 -1.1611
  126CHL1    C115554   2.879   5.414   3.339 -0.2876 -0.1126 -0.3874
  126CHL1   H1A15555   2.780   5.450   3.377 -0.2060 -1.0094  0.7348
  126CHL1   H1B15556   2.960   5.482   3.373  0.7598 -1.6053  0.2057
  126CHL1    C215557   2.872   5.408   3.188  0.0810 -0.0729 -0.1737
  126CHL1   H2A15558   2.841   5.509   3.154 -1.8743  0.2957  2.4375
  126CHL1   H2B15559   2.796   5.337   3.148 -0.8136  1.0333 -0.4639
  126CHL1   C2015560   2.786   5.248   4.100  0.3564 -0.0594  0.6530
  126CHL1   H2015561   2.685   5.240   4.054  0.9917 -1.5572 -0.5492
  126CHL1   C2115562   2.786   5.357   4.208 -0.2793  0.0149  0.3962
  126CHL1  H21A15563   2.893   5.370   4.236  0.2459 -1.1022 -0.9386
  126CHL1  H21B15564   2.722   5.333   4.296 -0.8899  0.9841  0.2163
  126CHL1  H21C15565   2.757   5.459   4.176  1.6795  0.2669 -0.7034
  126CHL1   C2215566   2.809   5.107   4.164 -0.1849  0.0725  0.1149
  126CHL1  H22A15567   2.827   5.031   4.084  0.5376 -1.1545  1.4092
  126CHL1  H22B15568   2.890   5.097   4.238 -0.3885  0.8696  0.4526
  126CHL1   C2315569   2.687   5.053   4.243 -0.2782 -0.4785 -0.5430
  126CHL1  H23A15570   2.655   5.120   4.326 -2.3145 -3.7727  1.5568
  126CHL1  H23B15571   2.604   5.041   4.170  0.6968 -0.3678 -1.7030
  126CHL1   C2415572   2.723   4.912   4.294 -0.2931 -0.1210  0.6286
  126CHL1  H24A15573   2.752   4.837   4.217 -0.7581 -0.4255  0.7467
  126CHL1  H24B15574   2.806   4.905   4.367  0.9071  1.2397 -0.5368
  126CHL1   C2515575   2.600   4.850   4.371  0.8348 -0.2964  0.1661
  126CHL1   H2515576   2.516   4.842   4.299 -0.2939  0.5904  1.3389
  126CHL1   C2615577   2.639   4.705   4.407  0.2120  0.1697 -0.5284
  126CHL1  H26A15578   2.733   4.698   4.465  0.5312  3.0120 -0.6003
  126CHL1  H26B15579   2.551   4.659   4.457 -0.5015 -0.5838 -2.3491
  126CHL1  H26C15580   2.652   4.645   4.314  1.2525  1.2058 -1.0747
  126CHL1   C2715581   2.577   4.926   4.504  0.0121  0.5582  0.5456
  126CHL1  H27A15582   2.672   4.936   4.560  1.0356 -1.9418 -0.5737
  126CHL1  H27B15583   2.522   5.021   4.489  0.3664  0.6404 -0.2944
  126CHL1  H27C15584   2.514   4.857   4.564  0.0053  1.5187  1.6611
  127CHL1    C315585   3.949   6.161   3.315 -0.3779 -0.7263 -0.1068
  127CHL1    H315586   3.975   6.057   3.343  0.0033  0.1302  3.1257
  127CHL1    O315587   4.013   6.193   3.192 -0.5390  0.4228  0.5611
  127CHL1   H3'15588   3.965   6.146   3.124 -2.2052  0.3214  1.7443
  127CHL1    C415589   3.799   6.176   3.305  0.2652  0.5043  0.0585
  127CHL1   H4A15590   3.760   6.269   3.260 -3.6964 -0.2561  1.5057
  127CHL1   H4B15591   3.766   6.094   3.237  0.4410 -0.8839  1.5915
  127CHL1    C515592   3.730   6.153   3.443  0.3256 -1.2058 -0.5811
  127CHL1    C615593   3.636   6.061   3.466  0.4653 -0.6628  0.4298
  127CHL1    H615594   3.599   6.007   3.377 -2.0263  2.5641 -0.6896
  127CHL1    C715595   3.562   6.036   3.592  0.3966 -0.2192  0.0974
  127CHL1   H7A15596   3.453   6.024   3.577  0.3556  0.2636 -0.0043
  127CHL1   H7B15597   3.605   5.949   3.646  1.5989  0.9579  1.1312
  127CHL1    C815598   3.580   6.161   3.686  0.6990  0.0673 -0.0594
  127CHL1    H815599   3.518   6.242   3.641 -0.4007  0.0255  1.3309
  127CHL1   C1415600   3.532   6.125   3.828 -1.4883 -0.2772 -0.1808
  127CHL1   H1415601   3.599   6.039   3.851 -0.9428 -0.0383 -0.8103
  127CHL1   C1515602   3.386   6.079   3.840 -0.0273  0.0450  0.0918
  127CHL1  H15A15603   3.323   6.127   3.762 -1.1752  2.2575  2.2788
  127CHL1  H15B15604   3.379   5.970   3.822  0.1479  0.2291 -1.2451
  127CHL1   C1615605   3.353   6.102   3.987  0.4294  0.9493 -0.3637
  127CHL1  H16A15606   3.268   6.172   4.003 -1.0663 -0.7874 -0.2517
  127CHL1  H16B15607   3.339   6.013   4.053  0.9851  1.2788  0.1954
  127CHL1   C1715608   3.487   6.168   4.052 -0.6380  0.0976 -0.2091
  127CHL1   H1715609   3.553   6.082   4.078  0.4618  1.0924  0.3934
  127CHL1   C1315610   3.560   6.232   3.932 -0.6330  0.3570 -0.3816
  127CHL1   C1815611   3.498   6.369   3.907 -0.8043  0.3236  0.4316
  127CHL1  H18A15612   3.529   6.421   3.814  0.1169  1.1767  1.1808
  127CHL1  H18B15613   3.387   6.365   3.914 -0.7769 -0.8196  0.3959
  127CHL1  H18C15614   3.537   6.437   3.986  1.1579  1.4935 -1.4193
  127CHL1   C1215615   3.715   6.245   3.943  0.3642 -0.3628  0.3021
  127CHL1  H12A15616   3.752   6.313   4.023 -0.8433 -0.5406  1.0388
  127CHL1  H12B15617   3.751   6.143   3.966  1.4052  0.2193  1.3683
  127CHL1   C1115618   3.767   6.298   3.808 -0.8744  1.0205 -0.1559
  127CHL1  H11A15619   3.733   6.401   3.784  0.3374  1.6800  0.8521
  127CHL1  H11B15620   3.877   6.286   3.816 -0.8825  0.8221 -0.3236
  127CHL1    C915621   3.732   6.196   3.691  1.0003  0.0680  0.3159
  127CHL1    H915622   3.785   6.100   3.708 -2.0980 -2.0646 -1.1909
  127CHL1   C1015623   3.785   6.233   3.555 -0.4522 -0.7130 -0.1609
  127CHL1   C1915624   3.753   6.379   3.516  0.3349  0.0868 -0.4998
  127CHL1  H19A15625   3.790   6.460   3.584  0.8402  0.1547 -0.8527
  127CHL1  H19B15626   3.790   6.408   3.416  1.1003  1.8131  0.2303
  127CHL1  H19C15627   3.644   6.403   3.513  0.6565  1.6094 -1.3482
  127CHL1    C115628   3.942   6.224   3.558  0.1113  0.2279 -0.0304
  127CHL1   H1A15629   3.981   6.289   3.639 -0.3064 -2.0663  2.1236
  127CHL1   H1B15630   3.971   6.119   3.579  2.2150  1.0137  1.3632
  127CHL1    C215631   4.002   6.255   3.424  0.3913 -0.6616  0.6503
  127CHL1   H2A15632   4.112   6.242   3.436  0.2022 -0.5678  2.9510
  127CHL1   H2B15633   3.986   6.362   3.399 -1.9885 -0.4562  2.7284
  127CHL1   C2015634   3.447   6.253   4.181  0.0231  0.0107  0.0033
  127CHL1   H2015635   3.399   6.348   4.149  0.1585 -0.5426 -1.9898
  127CHL1   C2115636   3.581   6.300   4.244 -0.3195 -0.0552  0.5723
  127CHL1  H21A15637   3.557   6.343   4.344  1.0010 -0.4340  1.0725
  127CHL1  H21B15638   3.619   6.381   4.176 -1.3951  0.6599  0.7972
  127CHL1  H21C15639   3.655   6.219   4.263  1.0864  1.3493  1.3490
  127CHL1   C2215640   3.365   6.179   4.291  0.1437 -0.3494  0.2855
  127CHL1  H22A15641   3.272   6.156   4.234 -0.2935  0.9226  0.4529
  127CHL1  H22B15642   3.414   6.087   4.328 -0.1878 -0.1046  1.3857
  127CHL1   C2315643   3.317   6.250   4.413  0.1073 -0.3133 -0.5207
  127CHL1  H23A15644   3.401   6.295   4.470 -0.8038  1.0078 -0.1869
  127CHL1  H23B15645   3.257   6.338   4.382  0.8406 -0.6466 -3.1639
  127CHL1   C2415646   3.251   6.160   4.521  0.3311 -0.2920  0.4243
  127CHL1  H24A15647   3.166   6.103   4.479  0.4460  1.3706 -2.3062
  127CHL1  H24B15648   3.326   6.091   4.564  0.0943 -1.3436 -0.7849
  127CHL1   C2515649   3.200   6.243   4.637  0.4810 -0.2240 -0.2929
  127CHL1   H2515650   3.276   6.322   4.657 -0.2770  0.5688 -0.4986
  127CHL1   C2615651   3.058   6.307   4.616 -0.0266 -0.3144 -0.3022
  127CHL1  H26A15652   3.079   6.403   4.563 -0.5786  1.6989  2.8603
  127CHL1  H26B15653   2.995   6.238   4.557 -0.2123 -0.0064 -0.4665
  127CHL1  H26C15654   3.013   6.316   4.717 -2.8299 -0.2556 -1.4722
  127CHL1   C2715655   3.202   6.158   4.766  0.2849 -0.0197  0.1864
  127CHL1  H27A15656   3.308   6.124   4.776  0.0292 -2.0363 -2.7247
  127CHL1  H27B15657   3.184   6.224   4.854  0.5998 -1.0020  1.0042
  127CHL1  H27C15658   3.136   6.069   4.765 -1.7700  1.4554 -0.2884
  128CHL1    C315659   2.110   2.209   3.151  0.1327  0.2375 -0.4426
  128CHL1    H315660   2.218   2.181   3.153 -0.0937 -0.6384  0.4761
  128CHL1    O315661   2.071   2.208   3.017  0.0288 -0.3332 -0.1866
  128CHL1   H3'15662   1.990   2.260   3.025 -0.2456 -0.9719  1.6775
  128CHL1    C415663   2.024   2.116   3.241 -0.3923  0.3460  0.0602
  128CHL1   H4A15664   1.920   2.153   3.223 -1.0362 -2.5591 -3.2302
  128CHL1   H4B15665   2.034   2.011   3.208 -0.1399  0.1505  0.7373
  128CHL1    C515666   2.050   2.114   3.391  0.4457  0.3047  0.7299
  128CHL1    C615667   2.084   2.005   3.453 -0.5772  0.1027 -1.0507
  128CHL1    H615668   2.096   1.911   3.397  0.7787 -0.6969  0.4942
  128CHL1    C715669   2.099   1.995   3.608  0.6271 -1.4040 -0.2502
  128CHL1   H7A15670   2.036   1.909   3.637 -0.6003 -1.2140 -2.1811
  128CHL1   H7B15671   2.204   1.986   3.641  1.6218  3.3672 -1.3588
  128CHL1    C815672   2.047   2.124   3.679 -0.2833 -0.2319 -0.1507
  128CHL1    H815673   1.939   2.109   3.698 -0.1088 -0.8678  0.3750
  128CHL1   C1415674   2.100   2.141   3.829 -0.0104 -0.1607  0.8144
  128CHL1   H1415675   2.211   2.149   3.825  0.4125 -4.0030 -2.8436
  128CHL1   C1515676   2.089   2.022   3.922  0.0279 -0.1695 -0.3004
  128CHL1  H15A15677   1.987   1.983   3.941 -0.3588  1.2278  0.6035
  128CHL1  H15B15678   2.160   1.941   3.893  0.6387  0.7260 -1.3660
  128CHL1   C1615679   2.114   2.083   4.058  0.8128 -0.1769 -0.1491
  128CHL1  H16A15680   2.025   2.065   4.124  0.8932 -1.6481 -0.4125
  128CHL1  H16B15681   2.210   2.054   4.106 -0.1896  0.3733  2.3941
  128CHL1   C1715682   2.114   2.244   4.046  0.4522  0.1262 -0.2573
  128CHL1   H1715683   2.218   2.274   4.025  0.4443  0.6020  0.3827
  128CHL1   C1315684   2.053   2.272   3.900 -0.1560  0.3826 -0.3176
  128CHL1   C1815685   1.895   2.283   3.911 -0.1137  0.5990  0.5506
  128CHL1  H18A15686   1.867   2.386   3.941 -0.6223  0.8295 -0.6429
  128CHL1  H18B15687   1.846   2.273   3.812  0.7512  1.3939  0.0271
  128CHL1  H18C15688   1.851   2.204   3.976  0.8602  1.3597  2.1899
  128CHL1   C1215689   2.116   2.386   3.818 -0.0813 -0.0433 -0.7205
  128CHL1  H12A15690   2.103   2.484   3.869  0.6422 -0.4331  0.2307
  128CHL1  H12B15691   2.224   2.360   3.809  0.3160  1.9705 -2.8170
  128CHL1   C1115692   2.063   2.385   3.679  0.0737  0.0456  0.0081
  128CHL1  H11A15693   1.956   2.415   3.675  0.0566 -0.1001 -0.8493
  128CHL1  H11B15694   2.117   2.464   3.623 -2.6047 -0.3350 -3.4598
  128CHL1    C915695   2.083   2.253   3.602  0.2488  0.3377 -0.0645
  128CHL1    H915696   2.193   2.242   3.596  0.0885 -1.9630 -0.0439
  128CHL1   C1015697   2.029   2.252   3.458 -0.1760  0.3896 -0.4260
  128CHL1   C1915698   1.878   2.284   3.449 -0.1885 -0.2776 -0.0352
  128CHL1  H19A15699   1.837   2.304   3.348 -0.6891  0.2904  0.2750
  128CHL1  H19B15700   1.812   2.203   3.489 -2.0172  0.7461 -0.8655
  128CHL1  H19C15701   1.846   2.371   3.510 -2.5502 -1.2300  0.1924
  128CHL1    C115702   2.115   2.344   3.368  0.0493 -0.0341  0.3643
  128CHL1   H1A15703   2.100   2.450   3.396  1.0758  0.6019 -1.3359
  128CHL1   H1B15704   2.216   2.317   3.404 -0.3679  0.7806  2.2809
  128CHL1    C215705   2.091   2.341   3.214  0.2055 -0.6179 -0.1939
  128CHL1   H2A15706   2.142   2.421   3.156  0.3790 -1.2096 -0.8699
  128CHL1   H2B15707   1.986   2.373   3.197  0.1397 -1.0560 -0.6513
  128CHL1   C2015708   2.057   2.319   4.165 -0.2862  0.2424 -0.4569
  128CHL1   H2015709   1.946   2.319   4.157 -0.3868  0.7270  0.6811
  128CHL1   C2115710   2.097   2.466   4.168  0.3242  0.4417 -0.2551
  128CHL1  H21A15711   2.053   2.528   4.087  0.1407  2.8120  1.5522
  128CHL1  H21B15712   2.207   2.483   4.164  0.4015 -0.2584 -2.1133
  128CHL1  H21C15713   2.057   2.515   4.259  1.1653 -0.3463  0.5639
  128CHL1   C2215714   2.069   2.246   4.304 -0.3041  0.0504  0.5912
  128CHL1  H22A15715   2.027   2.318   4.377  0.1844  1.7463 -0.7443
  128CHL1  H22B15716   2.008   2.153   4.298  0.2230 -0.2507 -0.3923
  128CHL1   C2315717   2.212   2.210   4.344  0.4293  0.2728  0.5083
  128CHL1  H23A15718   2.276   2.196   4.254  0.2865 -0.0919  0.4595
  128CHL1  H23B15719   2.259   2.290   4.403  1.9619  0.4319 -0.8508
  128CHL1   C2415720   2.222   2.083   4.425  0.0327 -0.0039  0.0339
  128CHL1  H24A15721   2.184   2.103   4.527  0.7586  0.4996  0.2049
  128CHL1  H24B15722   2.160   2.003   4.377 -0.3506  0.3876 -0.1257
  128CHL1   C2515723   2.365   2.016   4.434  0.2928 -0.3288 -0.6058
  128CHL1   H2515724   2.436   2.086   4.482  0.0759 -0.0240 -0.7251
  128CHL1   C2615725   2.356   1.884   4.515  0.0156 -0.4814  0.0139
  128CHL1  H26A15726   2.457   1.845   4.542 -0.1613 -0.9446  0.0169
  128CHL1  H26B15727   2.314   1.912   4.614  0.0889 -0.5692  0.0697
  128CHL1  H26C15728   2.296   1.804   4.466  0.8193 -1.9442  1.3262
  128CHL1   C2715729   2.420   1.976   4.295 -0.4601 -0.7473 -0.3259
  128CHL1  H27A15730   2.517   1.923   4.309  0.6516  0.0878 -3.7003
  128CHL1  H27B15731   2.341   1.913   4.250 -1.8117  1.2661 -0.9368
  128CHL1  H27C15732   2.443   2.067   4.236  0.9431 -1.4018 -0.8362
  129CHL1    C315733   5.251   6.639   2.941  0.2892  0.3437  0.3779
  129CHL1    H315734   5.200   6.544   2.970 -0.5932  0.2824 -1.2426
  129CHL1    O315735   5.154   6.735   2.912  0.2791  0.1045 -0.6337
  129CHL1   H3'15736   5.070   6.689   2.907 -0.6507  1.4550  1.1721
  129CHL1    C415737   5.341   6.675   3.062 -0.8840  0.8435 -0.3758
  129CHL1   H4A15738   5.379   6.777   3.042  0.6441  0.5557  0.9194
  129CHL1   H4B15739   5.282   6.676   3.156  0.9535 -1.4390  0.9035
  129CHL1    C515740   5.468   6.595   3.087  0.6693  0.4859 -0.6237
  129CHL1    C615741   5.497   6.552   3.213 -0.6812 -0.2149 -0.2767
  129CHL1    H615742   5.426   6.560   3.296  0.4743 -0.8539  0.8035
  129CHL1    C715743   5.626   6.489   3.247 -0.1626 -0.6176 -0.5496
  129CHL1   H7A15744   5.670   6.560   3.321 -2.5054  1.3862 -0.9565
  129CHL1   H7B15745   5.617   6.394   3.304  1.4423 -0.5273 -0.0756
  129CHL1    C815746   5.722   6.470   3.123 -0.2526 -0.0232  0.2470
  129CHL1    H815747   5.793   6.555   3.113 -0.7095  0.4298  0.7772
  129CHL1   C1415748   5.810   6.350   3.140  0.3791  0.4343 -0.7231
  129CHL1   H1415749   5.734   6.269   3.137 -0.7163  1.4066  0.0061
  129CHL1   C1515750   5.895   6.338   3.269  0.0707  0.0587 -0.4756
  129CHL1  H15A15751   5.958   6.428   3.281  1.9565 -1.3842  1.0666
  129CHL1  H15B15752   5.833   6.325   3.361 -0.1027 -1.7720 -0.8117
  129CHL1   C1615753   5.992   6.224   3.243  0.1882 -0.4118 -1.2890
  129CHL1  H16A15754   6.098   6.251   3.264  0.3159 -1.5979 -0.3131
  129CHL1  H16B15755   5.969   6.139   3.310 -0.6197  1.1899  0.5503
  129CHL1   C1715756   5.975   6.188   3.093 -0.5257  0.0803 -0.2731
  129CHL1   H1715757   5.902   6.104   3.093  0.9667 -1.3033  1.3993
  129CHL1   C1315758   5.911   6.316   3.029 -0.5986  0.1674  0.5826
  129CHL1   C1815759   6.028   6.421   3.004 -0.2597  0.1026 -0.4334
  129CHL1  H18A15760   5.977   6.517   2.979  0.0316  0.0923 -1.1028
  129CHL1  H18B15761   6.081   6.434   3.100  1.6315 -2.6426 -0.9855
  129CHL1  H18C15762   6.109   6.393   2.933  0.5363 -0.9721  0.8676
  129CHL1   C1215763   5.823   6.286   2.903  0.3612 -0.0488  0.4735
  129CHL1  H12A15764   5.887   6.269   2.814 -2.4992 -0.7844 -1.5764
  129CHL1  H12B15765   5.767   6.191   2.915  0.2904 -0.0346  0.2555
  129CHL1   C1115766   5.730   6.406   2.876  0.3112 -0.0953 -0.1766
  129CHL1  H11A15767   5.794   6.487   2.837 -1.7418  1.5215 -0.3781
  129CHL1  H11B15768   5.663   6.370   2.795  2.6765 -0.4833 -2.0704
  129CHL1    C915769   5.647   6.446   2.997  0.5976  0.1076 -0.2311
  129CHL1    H915770   5.582   6.362   3.030  0.4809  1.1963  2.5590
  129CHL1   C1015771   5.544   6.560   2.961 -0.7214 -0.4539  0.7923
  129CHL1   C1915772   5.630   6.678   2.915 -0.0567 -0.5138  0.1606
  129CHL1  H19A15773   5.565   6.769   2.910  1.4066  0.5448 -0.1737
  129CHL1  H19B15774   5.706   6.703   2.992 -0.2145 -0.4102  0.2853
  129CHL1  H19C15775   5.677   6.658   2.816  0.7980  1.7948  0.0329
  129CHL1    C115776   5.452   6.515   2.844 -0.0147  0.2343  0.2101
  129CHL1   H1A15777   5.513   6.515   2.751  0.3166  3.3353  0.3353
  129CHL1   H1B15778   5.405   6.417   2.867 -0.5497  0.4312 -0.0245
  129CHL1    C215779   5.340   6.620   2.820 -0.2135 -0.1257  0.8701
  129CHL1   H2A15780   5.281   6.578   2.736  0.6195 -0.5255  0.4669
  129CHL1   H2B15781   5.385   6.718   2.795 -1.1998  0.3450  0.9124
  129CHL1   C2015782   6.099   6.131   3.027  0.2678  0.0334  0.0228
  129CHL1   H2015783   6.169   6.211   2.995 -2.2932  1.8080 -1.4515
  129CHL1   C2115784   6.065   6.050   2.903  0.5306 -0.1329  0.5005
  129CHL1  H21A15785   6.157   6.027   2.846  0.8728 -0.8872  1.3364
  129CHL1  H21B15786   6.000   6.104   2.831  1.4822  0.6924  0.2399
  129CHL1  H21C15787   6.015   5.952   2.920  0.6148 -0.1484  0.6534
  129CHL1   C2215788   6.184   6.033   3.122 -0.1607 -0.6863 -0.6439
  129CHL1  H22A15789   6.159   6.043   3.229  0.7721  2.9561 -0.6473
  129CHL1  H22B15790   6.144   5.932   3.099  0.8622 -0.7907 -2.1331
  129CHL1   C2315791   6.338   6.021   3.102  0.3199 -0.2469  0.2278
  129CHL1  H23A15792   6.375   6.005   2.998  1.6427  1.1768  0.4396
  129CHL1  H23B15793   6.389   6.116   3.129  1.9438 -0.5779 -1.4902
  129CHL1   C2415794   6.398   5.901   3.173  0.0721 -0.2123 -0.0764
  129CHL1  H24A15795   6.399   5.904   3.284 -0.4044  2.4550 -0.0858
  129CHL1  H24B15796   6.339   5.810   3.150 -0.8947  0.0920  1.1036
  129CHL1   C2515797   6.547   5.906   3.126 -0.8612 -0.0290  0.4399
  129CHL1   H2515798   6.555   5.892   3.016 -0.1612  1.2580  0.3084
  129CHL1   C2615799   6.619   6.024   3.176  0.3600  0.1767 -0.3788
  129CHL1  H26A15800   6.728   6.004   3.164  0.6484  1.5296 -0.1188
  129CHL1  H26B15801   6.603   6.111   3.109  0.6201  0.6954  0.2313
  129CHL1  H26C15802   6.594   6.041   3.282  0.3728  2.6624 -0.7329
  129CHL1   C2715803   6.627   5.787   3.179  0.1783  0.4902 -0.5167
  129CHL1  H27A15804   6.584   5.688   3.151 -0.2046 -0.0467  1.7570
  129CHL1  H27B15805   6.730   5.772   3.142  0.9466 -1.5065  2.1113
  129CHL1  H27C15806   6.632   5.796   3.289 -1.4861  1.4752 -0.4903
  130CHL1    C315807   2.736   6.913   3.120  0.4304  0.0530 -0.5584
  130CHL1    H315808   2.715   6.810   3.157  0.9981 -0.1166 -0.7036
  130CHL1    O315809   2.696   6.911   2.985  0.4206 -0.4839  0.0014
  130CHL1   H3'15810   2.728   6.824   2.960  0.8494 -0.6353  0.9934
  130CHL1    C415811   2.641   7.005   3.203 -0.4184 -0.5772 -0.2502
  130CHL1   H4A15812   2.654   7.106   3.158 -0.7335  0.4639  1.8419
  130CHL1   H4B15813   2.539   6.960   3.199 -0.4755 -0.4147 -0.7416
  130CHL1    C515814   2.689   7.020   3.349 -0.1702  0.3997  0.2431
  130CHL1    C615815   2.603   6.992   3.451  0.8774  0.0311 -0.5233
  130CHL1    H615816   2.498   6.970   3.427 -0.3501 -0.4267  4.2494
  130CHL1    C715817   2.633   7.017   3.598 -0.7901 -0.4334 -0.1019
  130CHL1   H7A15818   2.552   7.073   3.649  0.8901 -0.7121  3.1444
  130CHL1   H7B15819   2.658   6.920   3.646  0.8514  0.9248  1.9666
  130CHL1    C815820   2.763   7.096   3.623 -0.0732  0.4493 -0.3280
  130CHL1    H815821   2.750   7.202   3.593  1.3681  1.0286  0.9626
  130CHL1   C1415822   2.816   7.088   3.767  0.1890  0.0854 -0.0884
  130CHL1   H1415823   2.837   6.981   3.789 -0.5204  0.0205  0.2823
  130CHL1   C1515824   2.713   7.125   3.870 -0.0788 -0.5488 -0.7117
  130CHL1  H15A15825   2.664   7.219   3.836 -0.6435  0.1645  1.8670
  130CHL1  H15B15826   2.639   7.044   3.885  0.7387 -1.0313  1.0565
  130CHL1   C1615827   2.805   7.141   3.991 -0.8076 -0.8056 -0.1988
  130CHL1  H16A15828   2.791   7.236   4.046  1.4261  0.3336 -1.4536
  130CHL1  H16B15829   2.791   7.058   4.064  0.2255 -0.9907 -0.1879
  130CHL1   C1715830   2.957   7.142   3.950  0.4580 -0.2273 -0.0417
  130CHL1   H1715831   2.988   7.038   3.976 -1.5184 -0.2245  2.8474
  130CHL1   C1315832   2.942   7.163   3.799 -0.0137  0.6497  0.1911
  130CHL1   C1815833   2.932   7.310   3.765 -0.0683  0.2809  0.3716
  130CHL1  H18A15834   2.930   7.331   3.656  0.6395  2.2873  0.6931
  130CHL1  H18B15835   2.840   7.359   3.803  0.3075  1.4607 -0.1900
  130CHL1  H18C15836   3.018   7.368   3.804 -0.5087  0.8319  0.5449
  130CHL1   C1215837   3.049   7.085   3.717  0.3255 -0.7529  0.3373
  130CHL1  H12A15838   3.151   7.125   3.733  0.7100 -1.3976 -0.3868
  130CHL1  H12B15839   3.052   6.979   3.751  0.6535 -0.7578  0.3000
  130CHL1   C1115840   3.015   7.091   3.564 -0.0583  0.2887 -0.0269
  130CHL1  H11A15841   3.048   7.193   3.534 -0.2506  0.1419 -0.7675
  130CHL1  H11B15842   3.096   7.025   3.525  1.2242  0.7727  1.7209
  130CHL1    C915843   2.875   7.045   3.524  0.4756 -0.2504  0.3586
  130CHL1    H915844   2.875   6.937   3.551 -1.4920 -0.5367 -0.6200
  130CHL1   C1015845   2.841   7.054   3.373  0.2683 -0.1783  0.3476
  130CHL1   C1915846   2.857   7.203   3.340 -0.5856  0.2579  0.0379
  130CHL1  H19A15847   2.841   7.213   3.231  0.8571 -2.5802 -0.5323
  130CHL1  H19B15848   2.793   7.269   3.403  0.9012  0.7868  1.0307
  130CHL1  H19C15849   2.963   7.230   3.356 -1.0248  1.0534  1.9443
  130CHL1    C115850   2.924   6.962   3.289  0.0123  0.7944 -0.3079
  130CHL1   H1A15851   3.026   7.006   3.294 -0.2302  1.4695 -1.1192
  130CHL1   H1B15852   2.930   6.862   3.336 -0.5128  1.5450  1.4573
  130CHL1    C215853   2.887   6.945   3.137  0.8238  0.2341 -0.4414
  130CHL1   H2A15854   2.933   6.856   3.088  0.6822  0.3460 -0.7837
  130CHL1   H2B15855   2.909   7.042   3.088  0.9910  1.2844  1.6102
  130CHL1   C2015856   3.033   7.244   4.038  0.2305  0.0851  0.2092
  130CHL1   H2015857   3.002   7.347   4.012 -0.2707  0.3452  1.7336
  130CHL1   C2115858   3.185   7.228   4.017  0.0282  0.3734 -1.2529
  130CHL1  H21A15859   3.208   7.252   3.911 -0.3849  1.5904 -1.0844
  130CHL1  H21B15860   3.213   7.122   4.035  0.2962  0.9242  2.1949
  130CHL1  H21C15861   3.231   7.293   4.095 -0.1227  0.2935 -1.0979
  130CHL1   C2215862   2.998   7.217   4.181  0.2804  0.2931 -0.1677
  130CHL1  H22A15863   3.061   7.295   4.229  0.2590  0.5014 -0.4770
  130CHL1  H22B15864   2.905   7.261   4.222  0.2367 -0.8842  1.0855
  130CHL1   C2315865   3.036   7.078   4.241 -0.0857  0.3844  0.3090
  130CHL1  H23A15866   2.977   6.994   4.199 -1.9899  1.4215  0.8177
  130CHL1  H23B15867   3.144   7.060   4.223 -0.4264 -0.7824 -0.7417
  130CHL1   C2415868   3.009   7.080   4.391  0.0702  0.0132 -0.2244
  130CHL1  H24A15869   3.053   7.178   4.419 -1.6799  0.7405  0.0705
  130CHL1  H24B15870   2.903   7.098   4.420 -0.2696  0.1776 -1.5054
  130CHL1   C2515871   3.083   6.971   4.471 -0.1846 -0.1872  0.0411
  130CHL1   H2515872   3.189   6.970   4.438 -0.1260 -4.4062 -0.2788
  130CHL1   C2615873   3.078   7.008   4.618  0.4363  0.5772  0.2156
  130CHL1  H26A15874   3.108   7.114   4.635 -1.7253  0.7791  3.7668
  130CHL1  H26B15875   2.973   6.988   4.648  0.1051 -1.5566 -2.0190
  130CHL1  H26C15876   3.146   6.946   4.681  2.1179  1.9868 -0.1204
  130CHL1   C2715877   3.018   6.830   4.438  0.4657  0.1986 -0.0193
  130CHL1  H27A15878   3.076   6.754   4.495 -1.0949 -0.3974  0.8619
  130CHL1  H27B15879   2.909   6.832   4.461  0.5521  0.0321  0.4142
  130CHL1  H27C15880   3.037   6.811   4.330  0.7912 -1.2767  0.2698
  131CHL1    C315881   1.968   6.123   3.426 -0.2073  0.5878 -0.3369
  131CHL1    H315882   2.051   6.186   3.465  0.9060 -0.8500 -0.2958
  131CHL1    O315883   1.950   6.133   3.286  0.6190 -0.1613 -0.0522
  131CHL1   H3'15884   1.901   6.214   3.274  1.5013  0.0814 -2.7071
  131CHL1    C415885   2.007   5.977   3.455 -0.4586 -0.4879 -0.8898
  131CHL1   H4A15886   1.926   5.919   3.406 -1.3459  0.3553 -0.4573
  131CHL1   H4B15887   2.105   5.957   3.407  0.4449 -1.7974  1.3405
  131CHL1    C515888   2.022   5.942   3.603  0.6734  0.4649 -0.5791
  131CHL1    C615889   2.131   5.888   3.662 -0.5143  0.4318  0.2475
  131CHL1    H615890   2.218   5.858   3.602 -1.2359  2.3013 -1.8857
  131CHL1    C715891   2.140   5.845   3.799  0.3351 -0.2692 -0.8305
  131CHL1   H7A15892   2.201   5.754   3.820  0.6156  0.2960  0.9778
  131CHL1   H7B15893   2.205   5.918   3.852 -1.2484  0.3943  0.2516
  131CHL1    C815894   2.014   5.856   3.882  0.0709 -0.8591 -0.4884
  131CHL1    H815895   1.945   5.770   3.872 -2.5258  0.7512  2.1429
  131CHL1   C1415896   2.048   5.875   4.036  0.2660  0.2182 -0.2366
  131CHL1   H1415897   2.109   5.968   4.040  0.1623  0.2442  1.6320
  131CHL1   C1515898   2.140   5.767   4.099  0.6585 -0.5647  0.5659
  131CHL1  H15A15899   2.108   5.664   4.070 -0.4386  0.4782 -2.2355
  131CHL1  H15B15900   2.244   5.777   4.060 -0.1533  0.7319 -1.3855
  131CHL1   C1615901   2.115   5.781   4.246 -0.3640  0.4202 -0.2025
  131CHL1  H16A15902   2.073   5.687   4.287  0.0514  0.0864 -0.5368
  131CHL1  H16B15903   2.208   5.810   4.299 -0.3572 -0.3112  0.1880
  131CHL1   C1715904   2.002   5.885   4.265  0.2756  0.2725  0.0834
  131CHL1   H1715905   2.042   5.988   4.279 -0.6007  0.5490  0.6970
  131CHL1   C1315906   1.925   5.889   4.129  0.2918  0.0637  0.2482
  131CHL1   C1815907   1.829   5.766   4.126 -0.2521  0.2299  0.1371
  131CHL1  H18A15908   1.744   5.765   4.198 -1.8811 -0.1582 -1.6799
  131CHL1  H18B15909   1.789   5.756   4.023 -1.1636  2.8545  0.1618
  131CHL1  H18C15910   1.882   5.673   4.155  0.0998  0.2979 -0.2856
  131CHL1   C1215911   1.864   6.022   4.085  0.5986  0.5876 -0.0639
  131CHL1  H12A15912   1.778   6.043   4.153 -0.7689 -0.7348 -1.3007
  131CHL1  H12B15913   1.932   6.110   4.083  2.3147 -0.6895 -0.2388
  131CHL1   C1115914   1.820   6.008   3.936 -0.7383  0.0709  0.2782
  131CHL1  H11A15915   1.736   5.935   3.930 -0.3434 -0.5286  1.6352
  131CHL1  H11B15916   1.776   6.100   3.893  2.1715  1.7600  0.6929
  131CHL1    C915917   1.942   5.975   3.838 -0.0668  0.3824 -0.0922
  131CHL1    H915918   2.001   6.068   3.845 -0.6422  0.6819  1.0860
  131CHL1   C1015919   1.896   5.971   3.696 -0.3193  0.4963  1.1102
  131CHL1   C1915920   1.784   5.867   3.667 -0.3454 -0.0291  0.1700
  131CHL1  H19A15921   1.686   5.900   3.708  0.3487 -0.8780  2.6961
  131CHL1  H19B15922   1.776   5.846   3.558 -0.6509  0.9044  0.0031
  131CHL1  H19C15923   1.805   5.773   3.723 -1.1168  0.1993  0.8597
  131CHL1    C115924   1.844   6.112   3.649 -0.4006  0.1814  0.2385
  131CHL1   H1A15925   1.747   6.141   3.695  0.4398  1.6647  1.1497
  131CHL1   H1B15926   1.907   6.199   3.678 -0.0840  0.5057 -1.3070
  131CHL1    C215927   1.836   6.146   3.502 -0.2488  0.2505 -1.1815
  131CHL1   H2A15928   1.805   6.253   3.502 -2.2201 -0.2489  0.1046
  131CHL1   H2B15929   1.757   6.079   3.461 -1.5619  0.3172  1.0734
  131CHL1   C2015930   1.937   5.874   4.406  0.9862  0.1172 -0.3993
  131CHL1   H2015931   1.893   5.773   4.416  0.2738  0.4294 -0.2940
  131CHL1   C2115932   1.822   5.979   4.419  0.6391  0.4015  0.4760
  131CHL1  H21A15933   1.774   5.978   4.519 -2.2157 -1.4459 -0.7725
  131CHL1  H21B15934   1.740   5.951   4.349  2.2706  0.5024 -1.5995
  131CHL1  H21C15935   1.858   6.083   4.404  0.7490  0.3054  0.0442
  131CHL1   C2215936   2.038   5.892   4.519 -0.1870 -0.7029 -0.2979
  131CHL1  H22A15937   2.120   5.817   4.516 -0.6497 -1.3210  1.4426
  131CHL1  H22B15938   2.089   5.986   4.492  1.1127 -1.7225 -1.5881
  131CHL1   C2315939   1.967   5.890   4.660  0.9102 -0.1597 -0.3253
  131CHL1  H23A15940   2.054   5.871   4.727 -0.3425 -1.4417  0.9936
  131CHL1  H23B15941   1.921   5.991   4.674  2.4868  0.4051  1.1918
  131CHL1   C2415942   1.871   5.775   4.682  0.3458  0.1883 -0.4897
  131CHL1  H24A15943   1.779   5.781   4.621 -0.1758 -0.3442  0.2277
  131CHL1  H24B15944   1.921   5.683   4.647 -1.2205 -0.5397 -0.9030
  131CHL1   C2515945   1.823   5.764   4.822  0.5264 -0.4410  0.5189
  131CHL1   H2515946   1.811   5.868   4.858  1.1160 -0.2296  0.1236
  131CHL1   C2615947   1.692   5.683   4.837 -0.6867  0.4793  0.7795
  131CHL1  H26A15948   1.688   5.593   4.772 -1.6559  0.3294  1.0311
  131CHL1  H26B15949   1.679   5.647   4.941  2.0918  0.3729  1.1676
  131CHL1  H26C15950   1.604   5.740   4.801  0.5985  1.8832 -0.2937
  131CHL1   C2715951   1.931   5.699   4.899 -0.5187 -0.3662 -0.4286
  131CHL1  H27A15952   2.021   5.763   4.911  1.2282 -2.6471 -0.7428
  131CHL1  H27B15953   1.883   5.664   4.993 -1.5170  0.2676 -0.6820
  131CHL1  H27C15954   1.963   5.608   4.844 -1.0418  0.4848 -2.2329
  132CHL1    C315955   4.029   6.834   3.424 -0.6434 -0.1994 -0.1888
  132CHL1    H315956   3.981   6.931   3.448  3.4914  2.4533 -1.5224
  132CHL1    O315957   4.056   6.847   3.287  0.0606 -0.3492 -0.0759
  132CHL1   H3'15958   3.973   6.877   3.248 -0.0148  1.2700  1.2216
  132CHL1    C415959   4.164   6.826   3.497  0.0495  0.2919  0.1550
  132CHL1   H4A15960   4.228   6.744   3.460 -0.0833 -0.4242  1.4649
  132CHL1   H4B15961   4.215   6.921   3.469  2.2035 -0.9136 -0.2266
  132CHL1    C515962   4.140   6.814   3.646 -0.4836  0.3809 -0.4036
  132CHL1    C615963   4.201   6.903   3.723 -0.2910  0.0883 -0.3915
  132CHL1    H615964   4.266   6.984   3.685 -0.6000 -0.5284 -2.3521
  132CHL1    C715965   4.169   6.910   3.868  0.2345 -0.3279  0.1624
  132CHL1   H7A15966   4.270   6.906   3.915  2.0876 -0.6435 -3.4485
  132CHL1   H7B15967   4.123   7.008   3.893 -2.1320 -0.8751 -1.6571
  132CHL1    C815968   4.091   6.781   3.927  0.4654  0.2514 -0.1996
  132CHL1    H815969   4.163   6.698   3.917  1.3595  1.0147 -0.1993
  132CHL1   C1415970   4.048   6.809   4.074  0.0531 -0.5891  0.6530
  132CHL1   H1415971   3.982   6.898   4.068  1.8326  0.8558  1.4369
  132CHL1   C1515972   4.153   6.845   4.179  0.3521  0.5088 -0.7098
  132CHL1  H15A15973   4.245   6.784   4.175 -0.0606 -0.2010  0.2311
  132CHL1  H15B15974   4.194   6.948   4.177  2.1104 -0.1647 -1.8452
  132CHL1   C1615975   4.085   6.812   4.317 -0.7077 -1.0647  0.4882
  132CHL1  H16A15976   4.152   6.755   4.385 -0.0865 -2.0124 -0.8671
  132CHL1  H16B15977   4.071   6.910   4.365  2.7523 -0.5024  0.5565
  132CHL1   C1715978   3.952   6.745   4.287  0.3106 -0.1194  0.5675
  132CHL1   H1715979   3.880   6.830   4.283  1.6419  1.0234  0.1412
  132CHL1   C1315980   3.970   6.694   4.139  0.1040 -0.0076 -0.1462
  132CHL1   C1815981   4.048   6.557   4.145  0.1610  0.0456  0.1600
  132CHL1  H18A15982   4.086   6.532   4.043 -2.0172  1.4508 -1.0941
  132CHL1  H18B15983   4.129   6.547   4.220 -0.7635 -1.8012  0.9710
  132CHL1  H18C15984   3.979   6.471   4.154 -0.2650  0.3854  0.2085
  132CHL1   C1215985   3.836   6.671   4.054 -0.4939  0.2949  0.4188
  132CHL1  H12A15986   3.778   6.591   4.106 -1.4783  0.6596 -0.0860
  132CHL1  H12B15987   3.765   6.756   4.060 -1.0801 -0.0911 -0.6102
  132CHL1   C1115988   3.883   6.636   3.912  0.4052 -0.4399 -0.0156
  132CHL1  H11A15989   3.934   6.537   3.909  1.4609  0.1134 -1.8804
  132CHL1  H11B15990   3.787   6.636   3.856  0.4337  1.9925 -0.1826
  132CHL1    C915991   3.973   6.741   3.836 -0.1776  0.0155 -0.3272
  132CHL1    H915992   3.909   6.831   3.831  0.9287  0.7688 -1.8522
  132CHL1   C1015993   4.028   6.719   3.689  0.7460 -0.6790 -0.4093
  132CHL1   C1915994   4.074   6.575   3.679 -0.5854  0.0237 -0.0747
  132CHL1  H19A15995   4.160   6.550   3.744  0.6691  2.5472 -0.6601
  132CHL1  H19B15996   3.989   6.508   3.707 -1.5963  1.4707  0.4368
  132CHL1  H19C15997   4.097   6.535   3.578  3.1106  2.0346 -0.1948
  132CHL1    C115998   3.902   6.733   3.599  0.3617 -0.7649  0.0231
  132CHL1   H1A15999   3.823   6.661   3.627 -0.6394  0.6124  0.8800
  132CHL1   H1B16000   3.870   6.838   3.616  1.8268 -0.3941  0.6749
  132CHL1    C216001   3.937   6.718   3.447  0.3446  0.0886  0.5849
  132CHL1   H2A16002   3.845   6.734   3.387  1.4557 -1.0088 -1.5594
  132CHL1   H2B16003   3.968   6.614   3.421 -2.0655 -0.6342  0.4029
  132CHL1   C2016004   3.915   6.651   4.396  0.4052 -0.4098  0.1863
  132CHL1   H2016005   3.993   6.572   4.404 -0.5310 -1.2312  1.5245
  132CHL1   C2116006   3.774   6.591   4.379 -0.1743 -0.2529  0.0593
  132CHL1  H21A16007   3.778   6.526   4.289  0.4510  0.1022 -0.1759
  132CHL1  H21B16008   3.698   6.670   4.363 -0.9556 -1.2431 -1.2936
  132CHL1  H21C16009   3.735   6.524   4.459 -1.0293  0.5090  0.2992
  132CHL1   C2216010   3.923   6.717   4.537  0.0240  0.2887  0.3419
  132CHL1  H22A16011   3.879   6.640   4.605  0.5230 -0.1849  0.1409
  132CHL1  H22B16012   4.029   6.731   4.567  0.4793  0.6463 -1.3439
  132CHL1   C2316013   3.842   6.843   4.560  0.4340 -0.0595  0.0839
  132CHL1  H23A16014   3.881   6.926   4.496  2.7345 -1.3643 -0.3142
  132CHL1  H23B16015   3.734   6.831   4.540  0.3953 -1.0447  0.8268
  132CHL1   C2416016   3.857   6.894   4.713  0.8098 -0.0886  0.0467
  132CHL1  H24A16017   3.819   6.808   4.772  1.2166 -0.3423 -0.0549
  132CHL1  H24B16018   3.962   6.912   4.745  0.8653  1.7520 -1.0449
  132CHL1   C2516019   3.771   7.015   4.747  0.4870  0.3463  0.1388
  132CHL1   H2516020   3.796   7.046   4.851 -2.0943 -1.1398  1.3123
  132CHL1   C2616021   3.794   7.127   4.654 -0.3706  0.5000  0.3733
  132CHL1  H26A16022   3.730   7.214   4.679  1.5215  2.6549 -1.8120
  132CHL1  H26B16023   3.903   7.151   4.658  0.3476 -1.5729 -2.8925
  132CHL1  H26C16024   3.774   7.094   4.550  0.6802  0.3471  0.2092
  132CHL1   C2716025   3.624   6.970   4.745  0.3364 -0.1835  0.2021
  132CHL1  H27A16026   3.602   6.929   4.644  4.1389 -1.5203 -0.2354
  132CHL1  H27B16027   3.617   6.895   4.827 -0.5911 -0.6217 -0.2636
  132CHL1  H27C16028   3.566   7.060   4.773  1.0334 -0.2714  2.0955
  133CHL1    C316029   1.555   1.694   3.146 -0.0732 -0.4792  0.7743
  133CHL1    H316030   1.448   1.716   3.164  0.1674 -0.0809  1.8137
  133CHL1    O316031   1.579   1.648   3.011  0.4616 -0.4194  0.3179
  133CHL1   H3'16032   1.671   1.623   3.004  0.7143  0.5285  0.0970
  133CHL1    C416033   1.651   1.811   3.179  0.2518  0.7483 -0.3573
  133CHL1   H4A16034   1.754   1.777   3.154  0.9135  1.6618  1.0399
  133CHL1   H4B16035   1.626   1.893   3.108  0.7323 -0.8721 -2.4918
  133CHL1    C516036   1.636   1.855   3.326  0.7287  0.0213 -0.1805
  133CHL1    C616037   1.582   1.975   3.353 -0.3460  0.1060 -0.4375
  133CHL1    H616038   1.553   2.042   3.272 -1.5173  1.3841  0.9805
  133CHL1    C716039   1.550   2.023   3.496 -0.4922  0.0171  0.0519
  133CHL1   H7A16040   1.603   2.119   3.515 -0.3478 -0.0665  0.0740
  133CHL1   H7B16041   1.443   2.046   3.514 -0.2674  1.3734 -0.2424
  133CHL1    C816042   1.611   1.930   3.602 -0.5052  0.0679 -0.4536
  133CHL1    H816043   1.718   1.956   3.616  0.0012 -2.8102  2.0429
  133CHL1   C1416044   1.537   1.960   3.734 -0.1871 -0.5127  0.1274
  133CHL1   H1416045   1.428   1.936   3.727 -0.4040  0.5571 -0.2603
  133CHL1   C1516046   1.521   2.111   3.777  0.0181  0.4297 -0.4488
  133CHL1  H15A16047   1.618   2.151   3.742  0.1931 -1.5587 -2.4913
  133CHL1  H15B16048   1.437   2.157   3.720 -1.0931 -0.3738  0.4783
  133CHL1   C1616049   1.504   2.112   3.930  0.1976 -0.4750 -0.1851
  133CHL1  H16A16050   1.588   2.159   3.985  2.4930 -0.9934 -3.0425
  133CHL1  H16B16051   1.414   2.171   3.957 -0.6323 -0.2932 -2.9795
  133CHL1   C1716052   1.496   1.963   3.970  0.1327  0.4149  0.0450
  133CHL1   H1716053   1.391   1.938   3.944 -0.0204  2.3191 -1.4055
  133CHL1   C1316054   1.580   1.883   3.859  0.2604 -0.1074 -0.0143
  133CHL1   C1816055   1.734   1.910   3.893  0.6313 -0.0795 -0.0361
  133CHL1  H18A16056   1.795   1.865   3.812 -1.0109 -2.5667 -0.0469
  133CHL1  H18B16057   1.760   2.017   3.903 -0.6993  0.2224  0.4014
  133CHL1  H18C16058   1.761   1.856   3.986  2.0160  0.0229 -0.3665
  133CHL1   C1216059   1.557   1.733   3.829  0.7964 -0.2393  0.8380
  133CHL1  H12A16060   1.604   1.672   3.910  0.0140 -1.3839  0.4561
  133CHL1  H12B16061   1.447   1.721   3.830  0.7664 -0.1571  2.8314
  133CHL1   C1116062   1.623   1.697   3.693  0.4077  0.3345  0.6045
  133CHL1  H11A16063   1.733   1.706   3.704  0.8051 -0.9511 -1.6464
  133CHL1  H11B16064   1.606   1.588   3.673  1.4425  0.3295 -0.3415
  133CHL1    C916065   1.589   1.782   3.570  0.1131  0.2621  0.6084
  133CHL1    H916066   1.479   1.765   3.562  0.6135 -2.2794 -3.4429
  133CHL1   C1016067   1.652   1.747   3.428 -0.8364 -0.4103 -0.6260
  133CHL1   C1916068   1.808   1.730   3.443  0.3583 -0.1598 -0.0158
  133CHL1  H19A16069   1.824   1.641   3.508  1.4384  0.1245  0.1249
  133CHL1  H19B16070   1.856   1.718   3.344 -1.2299 -2.1343 -0.6256
  133CHL1  H19C16071   1.853   1.812   3.504  1.1451 -0.7266  0.1782
  133CHL1    C116072   1.577   1.609   3.383  0.8741 -0.2281  0.4121
  133CHL1   H1A16073   1.634   1.534   3.442  1.0092 -0.9538 -0.6294
  133CHL1   H1B16074   1.472   1.618   3.417  0.7336 -3.1889  0.9838
  133CHL1    C216075   1.579   1.571   3.236  0.4393  0.1147  0.0131
  133CHL1   H2A16076   1.503   1.494   3.213 -0.2444  0.5897  0.6461
  133CHL1   H2B16077   1.678   1.526   3.212  1.2302  0.9506  1.5758
  133CHL1   C2016078   1.517   1.935   4.115  0.4817 -0.2341 -0.8849
  133CHL1   H2016079   1.622   1.944   4.148 -0.4575 -0.5294  2.5463
  133CHL1   C2116080   1.471   1.794   4.131 -0.0676 -0.3529 -0.9283
  133CHL1  H21A16081   1.378   1.769   4.077  0.8448 -1.5571 -2.0263
  133CHL1  H21B16082   1.450   1.778   4.239  1.4059 -1.6383 -0.7900
  133CHL1  H21C16083   1.546   1.723   4.090  1.7428  0.6755  0.4548
  133CHL1   C2216084   1.442   2.037   4.214 -0.1458  0.5079  0.3545
  133CHL1  H22A16085   1.469   2.013   4.319  3.3253 -1.0317 -0.7509
  133CHL1  H22B16086   1.482   2.139   4.195  1.3966 -0.3580 -1.4199
  133CHL1   C2316087   1.292   2.039   4.186  0.4180 -0.5081 -0.3331
  133CHL1  H23A16088   1.274   2.065   4.080  0.4180  3.4255  0.4968
  133CHL1  H23B16089   1.250   1.938   4.208  0.3990  0.0235  2.4638
  133CHL1   C2416090   1.224   2.126   4.290  0.1286  1.6278  0.1565
  133CHL1  H24A16091   1.118   2.098   4.308 -0.2785  0.8960 -2.9038
  133CHL1  H24B16092   1.270   2.104   4.389  0.8673  3.0274  0.1442
  133CHL1   C2516093   1.226   2.281   4.264  0.1392  0.0174 -0.1943
  133CHL1   H2516094   1.327   2.310   4.229 -0.5554  3.7058  0.4266
  133CHL1   C2616095   1.134   2.331   4.152 -0.3295  0.0443 -0.0797
  133CHL1  H26A16096   1.165   2.425   4.100 -1.6179  0.1468 -0.6980
  133CHL1  H26B16097   1.121   2.258   4.069  0.4622 -1.0846  0.7502
  133CHL1  H26C16098   1.030   2.338   4.189  0.2867  1.6629  1.4322
  133CHL1   C2716099   1.199   2.366   4.386  0.5743 -0.9443 -0.3867
  133CHL1  H27A16100   1.202   2.474   4.362  0.5499 -0.0713  3.0644
  133CHL1  H27B16101   1.108   2.325   4.436  0.6140  0.7663  1.1687
  133CHL1  H27C16102   1.267   2.346   4.471 -1.7553  0.3366  1.9315
  134CHL1    C316103   6.932   2.299   2.956 -0.5851  0.0014 -0.0676
  134CHL1    H316104   7.014   2.227   2.933 -1.5265 -0.5793 -1.7639
  134CHL1    O316105   6.820   2.278   2.873 -0.0260 -0.6009  0.2365
  134CHL1   H3'16106   6.858   2.289   2.785 -0.0131 -1.2972  0.1475
  134CHL1    C416107   6.891   2.275   3.107 -0.5264 -0.2753  0.2925
  134CHL1   H4A16108   6.796   2.331   3.123  0.1350  0.7479  0.7967
  134CHL1   H4B16109   6.866   2.168   3.117 -1.3051 -0.0094  1.4343
  134CHL1    C516110   6.996   2.321   3.208 -0.1891 -0.0474  0.3938
  134CHL1    C616111   7.047   2.235   3.299  0.2224 -0.4419 -0.4374
  134CHL1    H616112   7.010   2.131   3.293 -0.3559 -0.3568  1.1899
  134CHL1    C716113   7.141   2.281   3.410 -0.1678 -0.1984  0.2742
  134CHL1   H7A16114   7.102   2.230   3.501  0.5008 -2.5802 -0.7013
  134CHL1   H7B16115   7.245   2.242   3.407  0.3319  1.0748  0.1432
  134CHL1    C816116   7.139   2.429   3.422 -0.2536 -0.1039 -0.1070
  134CHL1    H816117   7.041   2.458   3.465 -0.1608 -2.2711  1.7339
  134CHL1   C1416118   7.251   2.478   3.514  0.6866  0.1859  0.0824
  134CHL1   H1416119   7.344   2.441   3.465 -0.0787 -1.2964 -0.2957
  134CHL1   C1516120   7.249   2.422   3.656 -0.1180  0.6664 -0.6173
  134CHL1  H15A16121   7.146   2.423   3.698  0.7065 -0.8108  1.6632
  134CHL1  H15B16122   7.270   2.314   3.668 -2.4523  0.2709  0.4992
  134CHL1   C1616123   7.336   2.516   3.742 -0.0824  0.0303 -0.3487
  134CHL1  H16A16124   7.277   2.545   3.832 -2.6721  0.3374 -2.0447
  134CHL1  H16B16125   7.434   2.471   3.769 -1.0973 -1.6212  0.7943
  134CHL1   C1716126   7.367   2.633   3.639 -0.0022 -0.5849  0.6695
  134CHL1   H1716127   7.466   2.609   3.594 -0.4611  2.2953 -2.2470
  134CHL1   C1316128   7.262   2.632   3.531 -0.5781  0.9146  0.2411
  134CHL1   C1816129   7.131   2.687   3.581 -0.1994 -0.6364  0.0980
  134CHL1  H18A16130   7.135   2.795   3.606 -2.0360 -0.4796 -0.1588
  134CHL1  H18B16131   7.051   2.664   3.508  0.3046 -1.2979 -0.2623
  134CHL1  H18C16132   7.105   2.639   3.678  0.4894  0.0560  0.6404
  134CHL1   C1216133   7.304   2.692   3.395  0.1768  0.1427 -0.2967
  134CHL1  H12A16134   7.325   2.801   3.399 -1.0068  0.4534 -1.7654
  134CHL1  H12B16135   7.405   2.649   3.376  0.8102 -1.4316  5.0543
  134CHL1   C1116136   7.215   2.640   3.279 -0.7483  0.6855  0.2504
  134CHL1  H11A16137   7.123   2.700   3.294 -1.2191 -0.6755  4.1303
  134CHL1  H11B16138   7.259   2.668   3.181 -1.2484 -0.6181 -0.3816
  134CHL1    C916139   7.166   2.489   3.278  0.3967  0.1816  0.1161
  134CHL1    H916140   7.246   2.426   3.234 -1.1998 -0.5752 -1.8718
  134CHL1   C1016141   7.049   2.467   3.184  0.0456  0.3444 -0.5415
  134CHL1   C1916142   6.930   2.557   3.216  0.3723 -0.2265 -0.3949
  134CHL1  H19A16143   6.957   2.657   3.176  0.1254  1.0239  2.2890
  134CHL1  H19B16144   6.831   2.537   3.172 -0.2027  1.4094  0.0775
  134CHL1  H19C16145   6.916   2.560   3.327 -1.3300 -2.7426 -0.4593
  134CHL1    C116146   7.097   2.483   3.029 -0.1717  1.2177  0.2525
  134CHL1   H1A16147   7.125   2.589   3.013 -2.1798  2.1777  2.4467
  134CHL1   H1B16148   7.174   2.405   3.007  1.1022  2.8082 -1.2568
  134CHL1    C216149   6.980   2.451   2.939  0.1341  0.3886  0.0262
  134CHL1   H2A16150   7.001   2.478   2.833 -1.1415 -2.4376 -1.0452
  134CHL1   H2B16151   6.895   2.518   2.965 -1.3771 -0.9792 -1.1619
  134CHL1   C2016152   7.397   2.768   3.719 -0.1261  0.9755  0.0049
  134CHL1   H2016153   7.299   2.804   3.758 -0.4398  0.8628 -0.6617
  134CHL1   C2116154   7.432   2.891   3.627  0.2172 -0.5055 -0.3473
  134CHL1  H21A16155   7.506   2.862   3.550  2.8364 -1.3703  2.3010
  134CHL1  H21B16156   7.483   2.974   3.681 -2.1267 -1.3610  3.6517
  134CHL1  H21C16157   7.345   2.941   3.581 -0.2017 -0.3837  0.5611
  134CHL1   C2216158   7.487   2.755   3.844 -0.0471  0.7131  0.1110
  134CHL1  H22A16159   7.527   2.652   3.849  0.2260  0.7677 -0.7597
  134CHL1  H22B16160   7.576   2.820   3.829  0.2124  0.3752  0.1667
  134CHL1   C2316161   7.414   2.802   3.974  0.1110  0.4949  0.4040
  134CHL1  H23A16162   7.361   2.898   3.957  1.3529  1.0089 -0.7608
  134CHL1  H23B16163   7.337   2.728   4.005 -1.4245  1.0963 -1.7465
  134CHL1   C2416164   7.514   2.823   4.091 -0.1380 -0.5576 -0.1691
  134CHL1  H24A16165   7.575   2.730   4.102  3.1397  1.5837  1.1627
  134CHL1  H24B16166   7.574   2.914   4.069 -1.1516  0.2164  0.2115
  134CHL1   C2516167   7.432   2.869   4.220  0.5717  0.1816  0.1780
  134CHL1   H2516168   7.359   2.790   4.249 -0.6080  1.9595  2.4161
  134CHL1   C2616169   7.524   2.893   4.344  0.6007  0.6748  0.2787
  134CHL1  H26A16170   7.616   2.944   4.306  1.5006  0.5582  2.2118
  134CHL1  H26B16171   7.470   2.958   4.416  2.1880  0.5084  1.6881
  134CHL1  H26C16172   7.549   2.798   4.394  1.4699  0.3775 -0.6737
  134CHL1   C2716173   7.343   2.994   4.189 -0.1359 -0.2678 -0.0586
  134CHL1  H27A16174   7.404   3.076   4.144 -0.9312 -0.1988 -1.0680
  134CHL1  H27B16175   7.267   2.959   4.115 -1.4593 -1.7273  1.8782
  134CHL1  H27C16176   7.299   3.041   4.280  1.0181 -0.6417  0.7055
  135CHL1    C316177   7.245   2.907   2.540  0.6617  0.5298 -0.2464
  135CHL1    H316178   7.328   2.863   2.599 -0.8752  0.4407  1.9696
  135CHL1    O316179   7.228   2.850   2.410  0.7082  0.3421  0.3885
  135CHL1   H3'16180   7.134   2.840   2.394 -0.1131 -1.0758  4.6831
  135CHL1    C416181   7.115   2.885   2.622 -0.1825  0.1933  0.5420
  135CHL1   H4A16182   7.028   2.914   2.559  0.6974  0.5187 -0.5580
  135CHL1   H4B16183   7.108   2.778   2.650  0.4756  0.2282  0.8689
  135CHL1    C516184   7.118   2.966   2.750  0.1362  0.2043 -0.5583
  135CHL1    C616185   7.107   2.907   2.871  0.1976  0.2350 -0.9316
  135CHL1    H616186   7.086   2.802   2.895  2.3196  0.3252  1.7241
  135CHL1    C716187   7.102   2.992   2.996 -0.1715  0.4241  0.3060
  135CHL1   H7A16188   7.022   2.941   3.054 -0.5254  1.9721  1.2198
  135CHL1   H7B16189   7.192   2.978   3.060  1.1596 -0.1384 -1.5971
  135CHL1    C816190   7.089   3.145   2.972 -0.2689 -0.2449 -0.1964
  135CHL1    H816191   6.983   3.165   2.946 -0.2963 -0.9460 -0.6498
  135CHL1   C1416192   7.129   3.225   3.101  0.1104  0.6960  0.0129
  135CHL1   H1416193   7.239   3.209   3.102 -0.0673 -0.6512  0.4407
  135CHL1   C1516194   7.070   3.181   3.235  0.1911  0.3290 -0.2984
  135CHL1  H15A16195   6.959   3.176   3.234  0.1950 -3.5807  0.3813
  135CHL1  H15B16196   7.128   3.088   3.256  2.0295  2.1364  3.7241
  135CHL1   C1616197   7.116   3.300   3.322 -0.0321 -0.1552  0.3841
  135CHL1  H16A16198   7.035   3.342   3.385  0.3130  0.0256  0.7115
  135CHL1  H16B16199   7.201   3.269   3.386 -0.7007 -0.7952  0.9687
  135CHL1   C1716200   7.167   3.414   3.228  0.0090  0.9013  0.1755
  135CHL1   H1716201   7.278   3.406   3.224 -0.1078 -2.7853  0.5343
  135CHL1   C1316202   7.117   3.372   3.092 -0.0392 -0.1024  0.3252
  135CHL1   C1816203   6.969   3.404   3.077  0.2699 -0.3130  0.6295
  135CHL1  H18A16204   6.936   3.509   3.086 -1.3411 -0.8130  1.0444
  135CHL1  H18B16205   6.930   3.373   2.977  1.8907 -0.8363  0.1252
  135CHL1  H18C16206   6.904   3.350   3.149 -2.1479  2.7227  0.8955
  135CHL1   C1216207   7.200   3.414   2.969  0.3117 -0.5075  0.0124
  135CHL1  H12A16208   7.200   3.523   2.951  1.5719 -0.0158  2.5530
  135CHL1  H12B16209   7.308   3.397   2.991  0.7909  2.4194  0.3020
  135CHL1   C1116210   7.165   3.342   2.840  0.2760 -0.5089 -0.8707
  135CHL1  H11A16211   7.061   3.374   2.816 -0.1771 -0.1610  1.3433
  135CHL1  H11B16212   7.220   3.387   2.754 -0.8104  1.3921 -0.6305
  135CHL1    C916213   7.176   3.190   2.857 -1.1151  0.0890  0.1376
  135CHL1    H916214   7.282   3.172   2.885 -0.6056  2.2300 -0.2217
  135CHL1   C1016215   7.146   3.118   2.727 -0.0344  0.5043 -0.2430
  135CHL1   C1916216   7.025   3.175   2.652 -0.0975  0.9144  0.5928
  135CHL1  H19A16217   6.993   3.115   2.564  1.0104  0.2421  0.6367
  135CHL1  H19B16218   6.942   3.170   2.726 -0.7697  1.6703 -0.0855
  135CHL1  H19C16219   7.039   3.283   2.628 -0.6067  0.9466  0.4219
  135CHL1    C116220   7.269   3.137   2.634  0.6082  0.2690 -0.1239
  135CHL1   H1A16221   7.284   3.243   2.603  1.3562 -0.3341 -1.9368
  135CHL1   H1B16222   7.362   3.104   2.685 -0.1647  2.4388  2.9882
  135CHL1    C216223   7.261   3.054   2.505 -0.2432 -0.1415 -0.3778
  135CHL1   H2A16224   7.360   3.068   2.455 -0.9235 -0.4363 -1.8619
  135CHL1   H2B16225   7.181   3.096   2.439 -0.9127 -2.2156 -0.9409
  135CHL1   C2016226   7.126   3.554   3.279  0.0622 -0.7495  0.4642
  135CHL1   H2016227   7.016   3.570   3.282  0.3099  1.0272  1.9416
  135CHL1   C2116228   7.189   3.668   3.190  0.5030  0.4153  0.6638
  135CHL1  H21A16229   7.184   3.771   3.230 -0.5931  0.5965  0.1029
  135CHL1  H21B16230   7.128   3.661   3.097 -2.1069 -1.3871  2.3585
  135CHL1  H21C16231   7.296   3.642   3.173  0.4401 -0.5061  1.5455
  135CHL1   C2216232   7.173   3.579   3.423  0.3318 -0.5850 -0.1671
  135CHL1  H22A16233   7.140   3.501   3.494 -2.2372  1.9403  1.6489
  135CHL1  H22B16234   7.283   3.590   3.417  0.4230  0.0379  1.9678
  135CHL1   C2316235   7.119   3.711   3.487 -0.0547 -0.1920 -0.2678
  135CHL1  H23A16236   7.123   3.796   3.416 -1.2132 -1.8425 -2.4167
  135CHL1  H23B16237   7.010   3.695   3.504  0.2572  0.5313  3.0255
  135CHL1   C2416238   7.192   3.757   3.612 -0.2285  0.8207  0.0224
  135CHL1  H24A16239   7.170   3.674   3.683  0.2402 -2.3312 -3.1808
  135CHL1  H24B16240   7.298   3.747   3.582 -0.6344  1.4714 -1.7863
  135CHL1   C2516241   7.166   3.895   3.662 -0.3345  0.1032  0.2512
  135CHL1   H2516242   7.199   3.964   3.581 -0.2281  1.1545  1.1723
  135CHL1   C2616243   7.016   3.923   3.690 -0.1727 -0.1893 -0.6120
  135CHL1  H26A16244   6.971   3.832   3.735 -0.3651  0.6198  0.8808
  135CHL1  H26B16245   6.989   4.016   3.744  1.2205  0.8074 -1.5464
  135CHL1  H26C16246   6.971   3.927   3.588  1.3845 -0.2137 -1.3208
  135CHL1   C2716247   7.248   3.920   3.792  0.6117 -0.5245  0.2659
  135CHL1  H27A16248   7.230   4.024   3.825 -3.2808 -1.5806  2.0535
  135CHL1  H27B16249   7.206   3.856   3.872  1.1864 -1.2243  0.0228
  135CHL1  H27C16250   7.357   3.897   3.788  0.9163  0.7080  1.0771
  136CHL1    C316251   6.142   1.077   2.778  0.5038  0.3524  0.0244
  136CHL1    H316252   6.108   1.169   2.831 -0.6492 -0.1674  0.2166
  136CHL1    O316253   6.120   1.093   2.639 -0.2342  0.2937  0.5937
  136CHL1   H3'16254   6.144   1.007   2.606 -0.9456 -0.3114  1.5986
  136CHL1    C416255   6.295   1.059   2.799  0.2710 -0.9870  0.9234
  136CHL1   H4A16256   6.323   0.968   2.741  2.4791 -0.4015  0.9957
  136CHL1   H4B16257   6.339   1.155   2.765 -0.9363 -1.4237 -2.2205
  136CHL1    C516258   6.332   1.045   2.946 -0.9531 -0.2859 -0.9963
  136CHL1    C616259   6.423   1.123   3.006  0.1061  0.2149  0.0245
  136CHL1    H616260   6.478   1.199   2.947  0.1630  1.6989  1.8798
  136CHL1    C716261   6.473   1.114   3.146 -0.1455  0.5668 -0.1238
  136CHL1   H7A16262   6.583   1.127   3.150 -0.1584  0.3230  1.2856
  136CHL1   H7B16263   6.431   1.192   3.212  0.7987 -0.2945  1.5454
  136CHL1    C816264   6.425   0.974   3.206 -0.1340  0.0349  0.2710
  136CHL1    H816265   6.478   0.899   3.145 -0.6969  1.1862 -1.7056
  136CHL1   C1416266   6.451   0.980   3.353  0.2981  0.2782  0.2575
  136CHL1   H1416267   6.372   1.041   3.402  0.9002  0.6668  0.7606
  136CHL1   C1516268   6.583   1.023   3.407  0.2490 -0.3829 -0.1897
  136CHL1  H15A16269   6.661   0.979   3.341  2.2620  3.0600 -0.3228
  136CHL1  H15B16270   6.605   1.131   3.395 -1.6156 -0.1020 -1.7258
  136CHL1   C1616271   6.590   0.970   3.551 -0.3424  0.0838  0.1179
  136CHL1  H16A16272   6.684   0.913   3.569  0.1075  1.0624  0.9516
  136CHL1  H16B16273   6.579   1.054   3.622 -0.4906 -0.7854  1.1465
  136CHL1   C1716274   6.463   0.882   3.569  0.8181 -0.6008 -0.5357
  136CHL1   H1716275   6.383   0.951   3.605  0.7577 -1.2600  0.6389
  136CHL1   C1316276   6.413   0.848   3.427 -0.6032  0.3127 -0.7907
  136CHL1   C1816277   6.505   0.735   3.370 -0.5887  0.3857 -0.3260
  136CHL1  H18A16278   6.500   0.639   3.426  1.0986  0.9208  0.8274
  136CHL1  H18B16279   6.465   0.706   3.270 -2.2801  1.4482  0.0003
  136CHL1  H18C16280   6.614   0.758   3.371 -1.0496  2.9863 -1.1987
  136CHL1   C1216281   6.262   0.831   3.408  0.5003  1.3383 -0.2077
  136CHL1  H12A16282   6.232   0.737   3.460  2.5549  0.3199 -0.7779
  136CHL1  H12B16283   6.214   0.919   3.456 -0.2223  0.7310  0.2215
  136CHL1   C1116284   6.221   0.820   3.256  0.4151  0.1040 -0.3340
  136CHL1  H11A16285   6.267   0.724   3.223  0.0669 -0.1667 -0.0486
  136CHL1  H11B16286   6.110   0.815   3.252  0.3884  1.3545 -1.6743
  136CHL1    C916287   6.283   0.935   3.170  0.6450 -0.0992 -0.2027
  136CHL1    H916288   6.228   1.025   3.204  2.0579  0.6616  0.1252
  136CHL1   C1016289   6.253   0.931   3.018 -0.7171  0.6020  0.1814
  136CHL1   C1916290   6.311   0.796   2.962 -0.4786  0.2849 -0.3948
  136CHL1  H19A16291   6.288   0.776   2.855  0.8873 -2.0113 -0.3320
  136CHL1  H19B16292   6.420   0.782   2.980 -0.1924  1.5728 -0.9911
  136CHL1  H19C16293   6.257   0.715   3.016 -0.4282 -0.6945 -1.7331
  136CHL1    C116294   6.104   0.943   2.988  0.2978  0.2906  0.0456
  136CHL1   H1A16295   6.051   0.852   3.023  2.1778 -1.8910 -2.3975
  136CHL1   H1B16296   6.059   1.030   3.041 -0.2357 -0.0678  0.1816
  136CHL1    C216297   6.065   0.954   2.838  0.3630  0.0080  0.6849
  136CHL1   H2A16298   5.958   0.986   2.831  1.1736  3.0797  0.6958
  136CHL1   H2B16299   6.079   0.854   2.791  0.4463 -0.4265  1.6152
  136CHL1   C2016300   6.480   0.778   3.675  0.5205  0.0634 -0.3686
  136CHL1   H2016301   6.561   0.712   3.636 -1.3099 -2.0239 -0.8775
  136CHL1   C2116302   6.356   0.686   3.704  0.8327  0.0020 -0.6560
  136CHL1  H21A16303   6.260   0.735   3.730  0.4875 -0.5495 -0.8666
  136CHL1  H21B16304   6.388   0.619   3.787  0.4938 -0.8339 -1.1920
  136CHL1  H21C16305   6.339   0.624   3.613 -0.7895  2.1081 -1.8970
  136CHL1   C2216306   6.541   0.822   3.804 -0.9217 -0.1783 -0.7667
  136CHL1  H22A16307   6.555   0.738   3.875  1.8096  1.3749  0.7032
  136CHL1  H22B16308   6.640   0.872   3.791 -0.1922 -0.3679  3.0609
  136CHL1   C2316309   6.452   0.927   3.885  0.7271  0.3856  0.4998
  136CHL1  H23A16310   6.409   1.007   3.821  0.8500 -1.2427 -1.7203
  136CHL1  H23B16311   6.369   0.877   3.941  2.1472 -0.8376  1.6017
  136CHL1   C2416312   6.538   1.001   3.990 -0.4212 -0.3149 -0.3465
  136CHL1  H24A16313   6.585   0.931   4.062 -0.7911  2.9286  3.3429
  136CHL1  H24B16314   6.623   1.054   3.941 -0.3448 -1.8436 -1.9904
  136CHL1   C2516315   6.457   1.093   4.085  0.2550 -0.0370 -0.2093
  136CHL1   H2516316   6.403   1.167   4.021  0.6808  0.3215 -0.1612
  136CHL1   C2616317   6.366   1.015   4.175 -0.4934 -0.2471 -0.3037
  136CHL1  H26A16318   6.318   1.082   4.249 -1.9675  1.8268 -2.9514
  136CHL1  H26B16319   6.283   0.964   4.121 -1.9801  0.4396  1.2676
  136CHL1  H26C16320   6.431   0.938   4.223  2.7488  1.9449 -0.8349
  136CHL1   C2716321   6.563   1.168   4.165  0.4313 -0.3979 -0.1275
  136CHL1  H27A16322   6.510   1.230   4.241 -0.1768 -1.6630  0.5148
  136CHL1  H27B16323   6.626   1.094   4.218 -0.0160  0.1399  1.2197
  136CHL1  H27C16324   6.620   1.235   4.098  3.0709  1.1428  3.3457
  137CHL1    C316325   1.256   1.891   2.893 -1.0503 -0.0339 -0.0726
  137CHL1    H316326   1.359   1.859   2.918 -0.4432  0.9973 -1.1646
  137CHL1    O316327   1.232   1.910   2.755  0.2264  0.3630 -0.0173
  137CHL1   H3'16328   1.137   1.913   2.740 -0.3121 -0.5946  2.6183
  137CHL1    C416329   1.158   1.783   2.950  0.3442 -0.0861 -0.0402
  137CHL1   H4A16330   1.053   1.797   2.915  0.4630  0.6703 -0.1124
  137CHL1   H4B16331   1.192   1.688   2.904  0.5051  0.3573 -0.8592
  137CHL1    C516332   1.151   1.762   3.100 -0.1836 -0.5285 -0.3812
  137CHL1    C616333   1.161   1.643   3.160 -0.1348  0.1981  0.3027
  137CHL1    H616334   1.182   1.554   3.099 -2.2186 -0.3548  0.3105
  137CHL1    C716335   1.146   1.621   3.306 -0.2613 -0.6506 -0.3468
  137CHL1   H7A16336   1.070   1.546   3.335 -2.8445  2.4134  1.5282
  137CHL1   H7B16337   1.237   1.573   3.347  1.1801  0.7163 -1.7879
  137CHL1    C816338   1.097   1.750   3.379  0.2409  0.4659 -0.8248
  137CHL1    H816339   0.988   1.752   3.356  0.4325  0.1576 -1.7733
  137CHL1   C1416340   1.122   1.735   3.529  0.3615 -0.2572  0.0998
  137CHL1   H1416341   1.231   1.718   3.537  0.5465  0.4136 -0.8235
  137CHL1   C1516342   1.057   1.607   3.590  0.2457  0.6234 -0.0227
  137CHL1  H15A16343   0.955   1.589   3.550  1.2873 -2.1473 -1.7777
  137CHL1  H15B16344   1.124   1.520   3.569 -1.2084 -0.6564  0.4220
  137CHL1   C1616345   1.053   1.640   3.736 -0.3613 -0.3848 -0.2948
  137CHL1  H16A16346   0.948   1.636   3.770 -0.1896  2.7613  0.8746
  137CHL1  H16B16347   1.116   1.573   3.798 -0.4050  0.3754  0.5876
  137CHL1   C1716348   1.096   1.788   3.759 -0.8764  0.2246  0.0731
  137CHL1   H1716349   1.206   1.773   3.767 -0.5889  1.5545 -0.8187
  137CHL1   C1316350   1.074   1.849   3.613  0.3408 -0.2905  0.8097
  137CHL1   C1816351   0.920   1.874   3.583  0.1927 -0.6738  0.2064
  137CHL1  H18A16352   0.894   1.883   3.475 -1.1750  1.3285  0.6537
  137CHL1  H18B16353   0.846   1.795   3.609 -1.2357 -0.0621 -1.7602
  137CHL1  H18C16354   0.887   1.967   3.634  1.1281  0.2783 -0.8652
  137CHL1   C1216355   1.143   1.985   3.571 -0.3264 -0.2800 -0.8167
  137CHL1  H12A16356   1.103   2.078   3.615  0.6939 -0.5265  0.7001
  137CHL1  H12B16357   1.248   1.971   3.604 -1.4587 -1.9835  2.6384
  137CHL1   C1116358   1.126   2.005   3.418 -0.3493 -0.3746  0.3743
  137CHL1  H11A16359   1.021   2.033   3.395  0.1328  2.6223  1.3779
  137CHL1  H11B16360   1.184   2.092   3.379 -0.8015 -0.7214 -1.1679
  137CHL1    C916361   1.169   1.876   3.333 -0.3099 -0.3697  0.1861
  137CHL1    H916362   1.277   1.854   3.348  0.2204  1.5013 -0.5950
  137CHL1   C1016363   1.139   1.888   3.178  0.2264 -0.0759  0.0499
  137CHL1   C1916364   0.990   1.939   3.161 -0.1465  0.1657 -0.5203
  137CHL1  H19A16365   0.982   2.043   3.197  1.2517 -0.0961  0.6078
  137CHL1  H19B16366   0.969   1.944   3.052  0.9320 -0.0958 -0.7536
  137CHL1  H19C16367   0.920   1.866   3.207 -0.4820 -0.3347 -1.7633
  137CHL1    C116368   1.246   1.989   3.125 -0.1450  0.4041  0.5125
  137CHL1   H1A16369   1.253   2.086   3.179 -1.1575  0.3694  0.7306
  137CHL1   H1B16370   1.344   1.939   3.138 -0.1830  0.5030  1.2387
  137CHL1    C216371   1.231   2.020   2.971  0.2263  0.2444  0.3130
  137CHL1   H2A16372   1.304   2.099   2.941  3.1925 -2.5187 -0.2923
  137CHL1   H2B16373   1.130   2.065   2.967  0.1728  0.1470  0.5266
  137CHL1   C2016374   1.032   1.854   3.880  0.1937  0.4399 -0.1798
  137CHL1   H2016375   0.924   1.829   3.881  0.1894  0.4244 -0.6180
  137CHL1   C2116376   1.056   2.004   3.879  0.0252  0.1184  0.4388
  137CHL1  H21A16377   1.160   2.034   3.857 -0.4392  1.2629 -0.2964
  137CHL1  H21B16378   1.034   2.048   3.979 -0.4318 -0.5868  0.6570
  137CHL1  H21C16379   1.000   2.051   3.796  0.2370  1.1466  0.8624
  137CHL1   C2216380   1.079   1.793   4.019 -0.3015 -0.0683  0.4577
  137CHL1  H22A16381   1.093   1.683   4.016  0.5553  0.0027  1.3414
  137CHL1  H22B16382   1.179   1.838   4.036 -0.4583 -0.1684  1.7623
  137CHL1   C2316383   0.994   1.822   4.145 -0.3359  0.0013 -0.7243
  137CHL1  H23A16384   1.004   1.929   4.173 -1.4236 -0.2360  0.6834
  137CHL1  H23B16385   0.884   1.809   4.132 -0.1293 -2.4004 -0.4296
  137CHL1   C2416386   1.039   1.732   4.258  0.4086  0.5842 -0.2590
  137CHL1  H24A16387   1.045   1.626   4.225 -0.0611  0.4958 -0.0596
  137CHL1  H24B16388   1.145   1.752   4.286 -0.1052  2.1129  0.7275
  137CHL1   C2516389   0.951   1.745   4.399  0.1025  0.8677 -0.1389
  137CHL1   H2516390   0.971   1.853   4.414  2.0450  0.7682 -1.5882
  137CHL1   C2616391   0.804   1.728   4.373  0.4166 -0.3445 -0.2473
  137CHL1  H26A16392   0.798   1.652   4.292 -0.1115  0.9645 -1.4842
  137CHL1  H26B16393   0.748   1.694   4.463  2.0400  0.4896  1.1392
  137CHL1  H26C16394   0.761   1.824   4.336  0.1771 -0.3376  0.0440
  137CHL1   C2716395   1.010   1.657   4.515 -0.3155  0.6453 -0.5107
  137CHL1  H27A16396   0.978   1.697   4.614  1.0005 -0.8368  0.5742
  137CHL1  H27B16397   0.973   1.554   4.496  2.1694 -0.8061  1.7226
  137CHL1  H27C16398   1.121   1.654   4.509 -0.1725 -2.1968  1.3737
  138CHL1    C316399   7.477   1.584   2.873 -0.5687  0.0002 -0.0690
  138CHL1    H316400   7.474   1.684   2.922  0.5175  0.2734 -0.5291
  138CHL1    O316401   7.551   1.597   2.755  0.1809  0.3222  0.9608
  138CHL1   H3'16402   7.500   1.651   2.695 -0.0023 -1.6589 -0.7865
  138CHL1    C416403   7.549   1.500   2.969  0.5097 -0.3627  0.4860
  138CHL1   H4A16404   7.563   1.397   2.929 -1.3169 -0.5658  0.2546
  138CHL1   H4B16405   7.642   1.557   2.989  0.0963  0.4377  0.1777
  138CHL1    C516406   7.480   1.480   3.103 -0.1090 -0.4160  0.5231
  138CHL1    C616407   7.542   1.517   3.214 -0.0007  0.1091  0.2288
  138CHL1    H616408   7.643   1.560   3.214 -0.3379  1.0112 -1.7604
  138CHL1    C716409   7.462   1.513   3.345  0.1202  0.2934  0.3774
  138CHL1   H7A16410   7.533   1.473   3.421  0.1244  0.1231  0.2842
  138CHL1   H7B16411   7.430   1.615   3.376 -3.4011  0.1893 -2.3406
  138CHL1    C816412   7.333   1.425   3.340  0.5699  0.6534  0.3229
  138CHL1    H816413   7.360   1.317   3.338  0.9777  0.7658 -1.4812
  138CHL1   C1416414   7.250   1.435   3.473  0.2753 -0.4426  0.7776
  138CHL1   H1416415   7.234   1.544   3.478  0.0768 -0.2208 -2.5827
  138CHL1   C1516416   7.328   1.412   3.603 -0.8945  0.1520 -0.5471
  138CHL1  H15A16417   7.397   1.328   3.580  0.6636  1.3778 -0.5157
  138CHL1  H15B16418   7.379   1.508   3.629 -1.1518  0.6385 -1.7537
  138CHL1   C1616419   7.219   1.385   3.703  0.1643 -0.9158 -1.0555
  138CHL1  H16A16420   7.220   1.286   3.753 -0.9124 -0.9845 -1.1532
  138CHL1  H16B16421   7.222   1.466   3.780 -1.6731 -1.6853 -0.1205
  138CHL1   C1716422   7.082   1.387   3.627  0.6971 -0.0402 -0.0330
  138CHL1   H1716423   7.045   1.492   3.630  2.1422  0.5693 -1.6912
  138CHL1   C1316424   7.122   1.355   3.479 -0.4493 -0.5044  0.6425
  138CHL1   C1816425   7.150   1.206   3.446  0.4932 -0.1248 -0.7092
  138CHL1  H18A16426   7.192   1.191   3.344 -0.1365  0.9755 -1.1471
  138CHL1  H18B16427   7.220   1.169   3.524  0.3394  2.1781  0.6105
  138CHL1  H18C16428   7.057   1.146   3.449  1.2621 -1.3095  1.4173
  138CHL1   C1216429   7.037   1.407   3.359 -0.0953  0.2158  0.3412
  138CHL1  H12A16430   6.941   1.351   3.348 -0.1462  0.7263 -2.4869
  138CHL1  H12B16431   7.015   1.511   3.393  1.1939  0.6566 -0.1302
  138CHL1   C1116432   7.107   1.398   3.224  0.3428  0.3811  0.5722
  138CHL1  H11A16433   7.110   1.295   3.184  0.6111  1.2528 -1.7790
  138CHL1  H11B16434   7.044   1.454   3.153 -1.1042  2.3350  3.2352
  138CHL1    C916435   7.251   1.466   3.218  0.3782 -0.3098 -0.7267
  138CHL1    H916436   7.237   1.576   3.230  1.4946 -0.2567  0.2522
  138CHL1   C1016437   7.334   1.436   3.093 -0.4255 -0.3159  0.3110
  138CHL1   C1916438   7.345   1.287   3.066  0.1616  0.1603 -0.2067
  138CHL1  H19A16439   7.401   1.245   3.153 -1.0792  0.4970  0.7811
  138CHL1  H19B16440   7.248   1.233   3.064 -0.6196  1.5525 -0.7233
  138CHL1  H19C16441   7.403   1.271   2.973  0.8653 -0.0599  0.2560
  138CHL1    C116442   7.258   1.508   2.971 -0.4734  0.0376 -0.1895
  138CHL1   H1A16443   7.157   1.464   2.953 -1.4411  1.5622  1.2532
  138CHL1   H1B16444   7.235   1.610   3.006 -0.5480 -0.8183  2.4409
  138CHL1    C216445   7.344   1.523   2.843 -0.1364  0.5307  0.2337
  138CHL1   H2A16446   7.288   1.584   2.768  1.0646  0.4790 -0.7418
  138CHL1   H2B16447   7.351   1.420   2.803 -0.9425  0.6316 -0.1879
  138CHL1   C2016448   6.971   1.287   3.685 -0.1163  0.1215  0.2246
  138CHL1   H2016449   7.018   1.186   3.683  3.0712  1.4899 -0.0358
  138CHL1   C2116450   6.841   1.277   3.603  0.3951  0.6397 -0.2998
  138CHL1  H21A16451   6.864   1.247   3.498  1.7148 -1.6622  0.5777
  138CHL1  H21B16452   6.785   1.373   3.602  0.2132  0.6032 -3.0639
  138CHL1  H21C16453   6.779   1.199   3.652 -0.2454  2.4926  2.0368
  138CHL1   C2216454   6.938   1.319   3.828 -0.0004 -0.5950  0.2613
  138CHL1  H22A16455   6.855   1.247   3.846  0.4298 -1.0253  0.5368
  138CHL1  H22B16456   7.023   1.287   3.891  0.3411 -0.7888 -0.2886
  138CHL1   C2316457   6.899   1.463   3.863  0.1291 -0.0168  0.1017
  138CHL1  H23A16458   6.994   1.518   3.879  1.1989 -0.4064 -3.7238
  138CHL1  H23B16459   6.852   1.518   3.778  1.4404  0.1681 -0.5328
  138CHL1   C2416460   6.800   1.467   3.984 -0.0878  0.1398 -0.3254
  138CHL1  H24A16461   6.697   1.438   3.953  0.4099 -1.6887 -0.3383
  138CHL1  H24B16462   6.824   1.388   4.058 -0.2973 -0.1326 -0.5484
  138CHL1   C2516463   6.784   1.606   4.051 -0.8240  0.3538  0.4019
  138CHL1   H2516464   6.739   1.670   3.972 -0.2899  0.7505  0.4126
  138CHL1   C2616465   6.690   1.592   4.165  0.7950 -0.0439 -0.5904
  138CHL1  H26A16466   6.714   1.525   4.250 -2.4837 -0.0175  0.4960
  138CHL1  H26B16467   6.679   1.689   4.218  0.3256 -0.3782 -0.0578
  138CHL1  H26C16468   6.589   1.559   4.132  0.5210 -0.0856  0.2598
  138CHL1   C2716469   6.907   1.667   4.106 -0.1670 -0.5633 -0.2070
  138CHL1  H27A16470   6.923   1.652   4.214  3.2482 -2.0975 -0.8004
  138CHL1  H27B16471   6.997   1.638   4.048  0.3976  1.5655 -0.4973
  138CHL1  H27C16472   6.910   1.778   4.096  1.3920 -0.3253  2.1669
  139CHL1    C316473   1.147   7.178   3.176  0.2427 -0.3701 -0.3026
  139CHL1    H316474   1.057   7.238   3.198  0.5610 -0.5841  1.7911
  139CHL1    O316475   1.196   7.190   3.046 -0.7157  0.2650  0.7287
  139CHL1   H3'16476   1.181   7.284   3.029 -1.6043  0.2914  1.5271
  139CHL1    C416477   1.242   7.217   3.288 -1.1193  0.0399 -0.0943
  139CHL1   H4A16478   1.340   7.167   3.269 -1.4843 -1.2917  1.3749
  139CHL1   H4B16479   1.262   7.326   3.278 -2.2386  0.2671  0.0950
  139CHL1    C516480   1.191   7.176   3.426 -0.3690 -0.1582 -1.1326
  139CHL1    C616481   1.199   7.263   3.525 -0.2325  0.4207 -0.2143
  139CHL1    H616482   1.229   7.366   3.499 -1.7669  0.8994 -0.2102
  139CHL1    C716483   1.158   7.235   3.671  0.4887 -0.5685 -0.4498
  139CHL1   H7A16484   1.237   7.269   3.741 -2.0005  1.0888  1.7212
  139CHL1   H7B16485   1.068   7.296   3.695  2.0631  2.3902 -1.4980
  139CHL1    C816486   1.126   7.088   3.699  0.1094  0.6083 -0.1274
  139CHL1    H816487   1.219   7.038   3.732 -0.8507 -3.2384 -2.6386
  139CHL1   C1416488   1.031   7.081   3.819 -0.5939  0.3397 -0.5626
  139CHL1   H1416489   0.935   7.125   3.786 -1.7697 -2.1189 -0.6320
  139CHL1   C1516490   1.085   7.151   3.943 -0.2748  0.3957 -0.3370
  139CHL1  H15A16491   1.196   7.148   3.957 -0.4234 -0.7296  0.7350
  139CHL1  H15B16492   1.047   7.255   3.951 -1.7276 -0.0472 -1.2169
  139CHL1   C1616493   1.014   7.074   4.057 -0.2469 -0.4426  0.4826
  139CHL1  H16A16494   1.093   7.020   4.115  2.1789  0.1105 -2.0734
  139CHL1  H16B16495   0.948   7.139   4.119  1.0949 -0.0144  1.5117
  139CHL1   C1716496   0.934   6.957   3.989 -0.1758  0.6807  0.0824
  139CHL1   H1716497   0.833   7.000   3.971  0.8817  2.4927 -2.0810
  139CHL1   C1316498   1.000   6.937   3.854  0.1877 -0.0200  0.2784
  139CHL1   C1816499   1.121   6.846   3.868 -0.5121 -0.5556 -0.3266
  139CHL1  H18A16500   1.201   6.897   3.926  0.2605 -1.6086 -0.4237
  139CHL1  H18B16501   1.101   6.755   3.929 -2.5579  0.2085  0.2332
  139CHL1  H18C16502   1.163   6.824   3.767  0.2359  0.0526 -0.1583
  139CHL1   C1216503   0.909   6.869   3.745 -0.3458  0.1551  0.0633
  139CHL1  H12A16504   0.884   6.762   3.759  1.7815 -0.3369  0.3444
  139CHL1  H12B16505   0.814   6.927   3.751  0.1839  1.0212  0.2886
  139CHL1   C1116506   0.978   6.885   3.606  0.4769  0.2569 -0.2825
  139CHL1  H11A16507   1.064   6.815   3.602  1.3655  1.2997 -0.0810
  139CHL1  H11B16508   0.907   6.863   3.523  0.3584 -0.8912  0.1087
  139CHL1    C916509   1.047   7.021   3.573 -0.0362  0.3548 -0.8916
  139CHL1    H916510   0.959   7.088   3.560 -0.2891 -0.0118 -1.0825
  139CHL1   C1016511   1.130   7.036   3.438 -0.4988  0.5476  0.8911
  139CHL1   C1916512   1.254   6.934   3.438 -0.1393  0.3699 -0.1257
  139CHL1  H19A16513   1.306   6.961   3.533 -1.3296  2.6879 -0.0666
  139CHL1  H19B16514   1.231   6.826   3.442  0.6707  0.1737 -0.5867
  139CHL1  H19C16515   1.326   6.946   3.354  3.1023 -0.6680  2.2831
  139CHL1    C116516   1.044   6.999   3.316  0.4171  0.0326 -0.3666
  139CHL1   H1A16517   1.019   6.891   3.322 -2.6212  0.7224  0.8437
  139CHL1   H1B16518   0.947   7.050   3.329  0.1441 -0.8502  1.4877
  139CHL1    C216519   1.104   7.033   3.182 -0.4262 -0.3945 -1.3647
  139CHL1   H2A16520   1.025   7.026   3.105 -0.3427 -1.7387 -1.3470
  139CHL1   H2B16521   1.192   6.970   3.158 -0.0995 -1.0518  1.2282
  139CHL1   C2016522   0.913   6.837   4.082  0.0503 -0.3169  0.6448
  139CHL1   H2016523   1.013   6.800   4.113  0.5793 -0.1685 -0.8172
  139CHL1   C2116524   0.836   6.717   4.020 -0.2680 -0.5350 -0.3072
  139CHL1  H21A16525   0.899   6.661   3.948 -1.9816 -2.6348 -0.2821
  139CHL1  H21B16526   0.744   6.750   3.967 -0.4424  1.4237  1.0969
  139CHL1  H21C16527   0.808   6.641   4.096  1.2264 -0.5749  0.2317
  139CHL1   C2216528   0.842   6.871   4.219  0.2599  0.1380  0.3050
  139CHL1  H22A16529   0.909   6.949   4.261  0.4017  0.8470 -1.1772
  139CHL1  H22B16530   0.750   6.927   4.193 -0.1503 -0.9400 -0.6611
  139CHL1   C2316531   0.820   6.758   4.326  0.2770 -0.0587  0.2483
  139CHL1  H23A16532   0.736   6.691   4.299  1.1244 -0.1383 -2.4396
  139CHL1  H23B16533   0.910   6.694   4.335 -1.2965 -2.9284 -2.6158
  139CHL1   C2416534   0.775   6.824   4.453 -0.7537  0.7500 -0.7004
  139CHL1  H24A16535   0.843   6.902   4.494 -0.9480  0.7584 -0.3891
  139CHL1  H24B16536   0.682   6.871   4.415 -0.2989  0.6989 -1.9297
  139CHL1   C2516537   0.752   6.729   4.568 -0.0095  0.5477 -0.1872
  139CHL1   H2516538   0.686   6.644   4.541  1.9690 -1.1372  0.0455
  139CHL1   C2616539   0.886   6.665   4.616  0.1742  0.0524  0.8666
  139CHL1  H26A16540   0.930   6.601   4.536 -2.1601  1.7875 -2.0278
  139CHL1  H26B16541   0.968   6.738   4.629  1.5709 -1.4276  0.7824
  139CHL1  H26C16542   0.876   6.617   4.716 -2.7850  1.4568  1.3469
  139CHL1   C2716543   0.695   6.817   4.681  0.5432 -0.0239 -0.2861
  139CHL1  H27A16544   0.679   6.758   4.774  0.4224  0.5744  0.0734
  139CHL1  H27B16545   0.767   6.897   4.709  1.3291 -0.8472  0.1040
  139CHL1  H27C16546   0.598   6.861   4.649 -0.3075 -0.6768  1.2835
  140CHL1    C316547   0.194   1.096   2.821 -0.0502 -0.3086 -1.3377
  140CHL1    H316548   0.288   1.038   2.815  2.1108  2.7477  0.2363
  140CHL1    O316549   0.127   1.105   2.696  0.1582  0.1429 -0.3281
  140CHL1   H3'16550   0.039   1.134   2.719 -0.3543 -0.8072 -1.0150
  140CHL1    C416551   0.113   1.009   2.917  0.7938  0.8850  0.1825
  140CHL1   H4A16552   0.008   1.047   2.920  0.6228  0.3452  1.6331
  140CHL1   H4B16553   0.119   0.909   2.868 -1.4556  0.7864 -0.0152
  140CHL1    C516554   0.155   1.011   3.059 -0.2267 -0.2404  0.5761
  140CHL1    C616555   0.171   0.901   3.128  0.8333 -0.1545 -0.4955
  140CHL1    H616556   0.153   0.802   3.084  1.3545 -1.7772  2.6041
  140CHL1    C716557   0.197   0.888   3.279  0.0308 -0.5026  0.2809
  140CHL1   H7A16558   0.107   0.841   3.324 -0.9538  0.4128 -0.6758
  140CHL1   H7B16559   0.294   0.838   3.301  0.5304  0.0306 -0.6550
  140CHL1    C816560   0.199   1.037   3.346 -0.2737 -0.3242 -0.0818
  140CHL1    H816561   0.090   1.052   3.354  0.0475  2.5089 -0.1742
  140CHL1   C1416562   0.252   1.040   3.488  0.6048  0.2242  1.2723
  140CHL1   H1416563   0.361   1.025   3.474  0.4443 -0.2529  0.4639
  140CHL1   C1516564   0.210   0.934   3.590  0.2853  0.3745  0.7994
  140CHL1  H15A16565   0.103   0.908   3.603 -0.0535  1.9336  1.3619
  140CHL1  H15B16566   0.270   0.844   3.566 -1.9385 -0.7943 -0.7061
  140CHL1   C1616567   0.239   0.990   3.734  0.0599 -0.6609  0.7274
  140CHL1  H16A16568   0.141   1.006   3.784 -0.7404  1.8518 -1.4009
  140CHL1  H16B16569   0.306   0.918   3.785 -0.3023 -2.2235 -0.9333
  140CHL1   C1716570   0.298   1.142   3.708  0.2801  0.5069  0.4131
  140CHL1   H1716571   0.405   1.125   3.684  0.0158  1.0276 -1.2748
  140CHL1   C1316572   0.241   1.172   3.563  0.1738 -0.0178  0.0675
  140CHL1   C1816573   0.098   1.214   3.585 -0.0548  0.2261 -0.5541
  140CHL1  H18A16574   0.044   1.241   3.491 -2.1333  0.4691  0.6362
  140CHL1  H18B16575   0.042   1.132   3.636  2.1652 -0.5248  0.8098
  140CHL1  H18C16576   0.106   1.305   3.649  1.7083  0.6399 -1.3165
  140CHL1   C1216577   0.319   1.274   3.478 -0.3383  0.7403 -0.6422
  140CHL1  H12A16578   0.324   1.374   3.525 -0.4692 -0.1579  1.4061
  140CHL1  H12B16579   0.423   1.235   3.469 -1.2853 -1.8157 -1.3704
  140CHL1   C1116580   0.276   1.281   3.333 -0.1937  0.5824  0.0835
  140CHL1  H11A16581   0.173   1.323   3.334 -0.3852  0.1461 -0.5042
  140CHL1  H11B16582   0.344   1.355   3.285  0.7032  0.2061  0.7626
  140CHL1    C916583   0.259   1.150   3.257 -0.4833  0.0019  0.2937
  140CHL1    H916584   0.362   1.117   3.231 -0.8233  0.1862 -1.4405
  140CHL1   C1016585   0.186   1.157   3.119  0.5141  0.1306  0.2591
  140CHL1   C1916586   0.048   1.220   3.143 -0.2722  0.2599  0.2908
  140CHL1  H19A16587  -0.011   1.174   3.226  0.6185  0.0389  0.8129
  140CHL1  H19B16588   0.074   1.326   3.164  0.6664 -0.0161  0.5453
  140CHL1  H19C16589  -0.016   1.222   3.052  3.9691  0.7077 -3.0168
  140CHL1    C116590   0.276   1.230   3.020 -0.0728 -0.1688 -1.2154
  140CHL1   H1A16591   0.291   1.335   3.054 -0.6492 -0.7712  1.1375
  140CHL1   H1B16592   0.379   1.189   3.019  0.5300  0.9633  1.7026
  140CHL1    C216593   0.224   1.239   2.880  0.2766  0.5343 -0.2574
  140CHL1   H2A16594   0.285   1.297   2.808  0.6652 -0.1761 -0.5131
  140CHL1   H2B16595   0.128   1.294   2.892 -0.5511 -0.8723 -0.1602
  140CHL1   C2016596   0.299   1.239   3.817  0.3018 -0.0819 -0.8299
  140CHL1   H2016597   0.361   1.179   3.888  0.3819 -1.0773 -1.7212
  140CHL1   C2116598   0.165   1.261   3.901  0.8212  0.0039  0.2503
  140CHL1  H21A16599   0.096   1.335   3.855  0.0032  0.9073  2.7968
  140CHL1  H21B16600   0.183   1.302   4.002  1.7310  0.4957 -0.0921
  140CHL1  H21C16601   0.113   1.166   3.927  0.7035  0.3676  1.3949
  140CHL1   C2216602   0.392   1.364   3.802  0.3256  0.1554  0.0834
  140CHL1  H22A16603   0.497   1.342   3.773  0.4289  0.7301  0.0037
  140CHL1  H22B16604   0.343   1.434   3.731  1.3482 -0.8216 -1.6650
  140CHL1   C2316605   0.395   1.449   3.929 -0.1070  0.0714  0.0401
  140CHL1  H23A16606   0.297   1.496   3.951 -0.1394  1.2406 -2.3749
  140CHL1  H23B16607   0.413   1.387   4.020  0.0968 -1.1633 -0.8036
  140CHL1   C2416608   0.507   1.557   3.909 -0.3225  0.3827 -1.0558
  140CHL1  H24A16609   0.603   1.509   3.882 -0.8805 -1.9905  0.8419
  140CHL1  H24B16610   0.474   1.611   3.818  0.7242  3.0740  0.0374
  140CHL1   C2516611   0.530   1.667   4.022  0.4954  0.1978  0.0479
  140CHL1   H2516612   0.553   1.614   4.117  0.4032 -0.8807 -0.5223
  140CHL1   C2616613   0.401   1.749   4.042 -0.5663  0.3547  0.6834
  140CHL1  H26A16614   0.371   1.794   3.945  0.1751  1.0093  0.7479
  140CHL1  H26B16615   0.309   1.688   4.054 -1.5779  1.1256 -2.2024
  140CHL1  H26C16616   0.404   1.815   4.131 -1.0828 -0.6485  1.4593
  140CHL1   C2716617   0.650   1.755   3.998  0.2141 -0.2273  0.3912
  140CHL1  H27A16618   0.652   1.812   3.903  3.5087  0.4544  0.7215
  140CHL1  H27B16619   0.663   1.831   4.078  0.2301 -0.8450  0.9887
  140CHL1  H27C16620   0.738   1.687   3.997 -0.3665 -1.0430 -2.1344
  141DOPC     N16621   1.959   2.381   7.409 -0.1019 -0.1897 -0.5030
  141DOPC   C1216622   1.992   2.399   7.263 -0.2024  0.1897  0.0521
  141DOPC  H12A16623   2.088   2.447   7.255  0.6580 -1.7221 -2.3304
  141DOPC  H12B16624   1.925   2.466   7.211  0.3014 -0.6518 -1.7718
  141DOPC   C1316625   1.950   2.516   7.478  0.2802  0.0947  0.4165
  141DOPC  H13A16626   1.890   2.586   7.422  0.2175 -0.4331 -0.1979
  141DOPC  H13B16627   1.902   2.511   7.575 -0.3903  0.6418  0.1182
  141DOPC  H13C16628   2.050   2.555   7.489  0.9910 -1.6787  0.7236
  141DOPC   C1416629   2.060   2.300   7.482  0.4645 -0.3326 -1.2799
  141DOPC  H14A16630   2.016   2.258   7.572  2.5756 -1.7498 -0.8427
  141DOPC  H14B16631   2.090   2.225   7.410  0.4789  0.0994 -1.7274
  141DOPC  H14C16632   2.155   2.346   7.504  0.4040  0.0366 -1.7840
  141DOPC   C1516633   1.821   2.311   7.419  0.2217 -0.0890  0.1238
  141DOPC  H15A16634   1.746   2.354   7.354  0.2989  0.7932  0.6025
  141DOPC  H15B16635   1.770   2.315   7.514  0.0255  0.1127  0.0124
  141DOPC  H15C16636   1.835   2.206   7.397 -2.8421 -0.4729 -0.4217
  141DOPC   C1116637   2.018   2.272   7.178 -0.0732 -0.1385  0.7432
  141DOPC  H11A16638   1.934   2.200   7.184 -1.1778  1.0570  0.0871
  141DOPC  H11B16639   2.032   2.301   7.072 -0.9180  3.3547  1.4345
  141DOPC     P16640   2.285   2.263   7.211 -0.0955  0.0923  0.0522
  141DOPC   O1316641   2.369   2.143   7.234 -0.4145  0.1327 -0.0851
  141DOPC   O1416642   2.299   2.371   7.312  0.2948 -0.1078  0.2199
  141DOPC   O1216643   2.134   2.202   7.228  0.3032 -0.3496 -0.1134
  141DOPC   O1116644   2.293   2.316   7.067  0.8518  0.6203  0.8176
  141DOPC    C116645   2.255   2.229   6.961 -0.3727  0.0765 -1.1217
  141DOPC    HA16646   2.214   2.296   6.882 -2.2674  2.8572  1.9899
  141DOPC    HB16647   2.190   2.142   6.984 -0.6511  0.2749 -1.1503
  141DOPC    C216648   2.377   2.166   6.896 -0.5075  0.1664 -0.2705
  141DOPC    HS16649   2.423   2.102   6.974  0.4623  1.6609  0.4278
  141DOPC   O2116650   2.473   2.265   6.862 -0.0366 -0.2205 -1.0881
  141DOPC   C2116651   2.602   2.225   6.835  0.0656  0.3480  0.0336
  141DOPC   O2216652   2.642   2.114   6.841  0.0089 -0.0947  0.5902
  141DOPC   C2216653   2.685   2.349   6.803 -0.3351  0.0549 -0.1613
  141DOPC   H2R16654   2.742   2.385   6.891 -1.2717  0.3854  0.3242
  141DOPC   H2S16655   2.626   2.440   6.778  1.0082  1.5972  1.9906
  141DOPC    C316656   2.334   2.083   6.777 -0.9988 -0.4308 -0.5717
  141DOPC    HX16657   2.248   2.017   6.802 -0.7401 -0.2503  0.8941
  141DOPC    HY16658   2.413   2.018   6.734 -0.7249 -0.5492  0.0979
  141DOPC   O3116659   2.292   2.177   6.673 -0.3847 -0.5307  0.5073
  141DOPC   C3116660   2.212   2.126   6.581 -0.1274 -0.0379  0.1633
  141DOPC   O3216661   2.170   2.010   6.583 -0.0421 -0.0450  0.3871
  141DOPC   C3216662   2.182   2.237   6.477 -0.1345  0.2227  0.1686
  141DOPC   H2X16663   2.205   2.336   6.523  2.8666 -0.1250 -0.3958
  141DOPC   H2Y16664   2.257   2.207   6.401  1.5946 -3.6868  3.0928
  141DOPC   C2316665   2.785   2.331   6.691 -0.4527  0.9293  0.3759
  141DOPC   H3R16666   2.829   2.228   6.694  1.6529  1.7789  0.6041
  141DOPC   H3S16667   2.858   2.414   6.687  2.1839 -1.2582 -1.1722
  141DOPC   C2416668   2.715   2.333   6.551  0.1740 -0.1111 -0.4582
  141DOPC   H4R16669   2.644   2.247   6.552  0.9207 -0.7510 -1.2290
  141DOPC   H4S16670   2.783   2.309   6.466 -1.0340  0.6706 -1.6794
  141DOPC   C2516671   2.646   2.464   6.518  0.2499 -0.1271  0.6576
  141DOPC   H5R16672   2.718   2.546   6.542 -1.0183  0.5964  2.1662
  141DOPC   H5S16673   2.553   2.468   6.578 -0.2394  0.0426 -0.1022
  141DOPC   C2616674   2.601   2.465   6.372 -0.0473  0.6613 -0.2586
  141DOPC   H6R16675   2.498   2.505   6.381  0.0431  0.5123  2.1034
  141DOPC   H6S16676   2.583   2.359   6.342  0.8496  0.6650 -0.8421
  141DOPC   C2716677   2.679   2.559   6.285  0.5283 -0.3927 -0.2803
  141DOPC   H7R16678   2.685   2.657   6.337 -1.0076 -0.9804  1.1122
  141DOPC   H7S16679   2.619   2.582   6.195 -1.2052 -1.3473  0.5717
  141DOPC   C2816680   2.822   2.524   6.252 -0.5197 -0.6394 -0.0501
  141DOPC   H8R16681   2.859   2.498   6.353 -1.5817 -0.3209  0.4429
  141DOPC   H8S16682   2.862   2.622   6.216 -0.9016 -0.2899  0.4510
  141DOPC   C2916683   2.860   2.415   6.162 -0.1361  0.7351 -0.0827
  141DOPC   H9R16684   2.807   2.320   6.175 -1.0243  1.1722 -0.3649
  141DOPC  C21016685   2.957   2.425   6.063  0.2950  0.0970 -0.2618
  141DOPC  H10R16686   2.968   2.342   5.992 -0.7232 -0.8407  0.6411
  141DOPC  C21116687   3.045   2.541   6.026  0.0254 -0.8811 -0.2970
  141DOPC  H11R16688   3.147   2.505   6.001  0.5272 -0.9435  1.6895
  141DOPC  H11S16689   3.059   2.615   6.107 -0.5802 -0.6845 -0.3656
  141DOPC  C21216690   2.978   2.603   5.900 -0.1733  0.5612  0.8007
  141DOPC  H12R16691   3.015   2.708   5.895 -2.2574  1.2840 -1.0361
  141DOPC  H12S16692   2.868   2.618   5.910 -0.0939  1.9478 -0.0948
  141DOPC  C21316693   3.011   2.527   5.766  0.5048 -0.8579  0.1093
  141DOPC  H13R16694   2.940   2.442   5.764  0.9020 -1.1967  0.3269
  141DOPC  H13S16695   3.114   2.489   5.784  1.2113 -0.2636 -2.3152
  141DOPC  C21416696   3.004   2.627   5.649 -0.1796 -0.2454 -0.3287
  141DOPC  H14R16697   3.052   2.718   5.692  1.7426 -1.0282 -0.7228
  141DOPC  H14S16698   2.900   2.650   5.617 -0.1317 -0.2233 -0.4673
  141DOPC  C21516699   3.082   2.588   5.527  0.4645 -0.2632 -0.4982
  141DOPC  H15R16700   3.185   2.567   5.563 -0.0255 -1.3595  0.3623
  141DOPC  H15S16701   3.097   2.684   5.474  1.1026  1.5425  2.6768
  141DOPC  C21616702   3.026   2.463   5.454 -0.4465 -0.6995 -0.0693
  141DOPC  H16R16703   2.916   2.467   5.467 -0.4888 -1.9195  0.0833
  141DOPC  H16S16704   3.061   2.377   5.516 -1.3191 -0.4181  0.8525
  141DOPC  C21716705   3.063   2.443   5.311  0.7379  0.1167 -0.2113
  141DOPC  H17R16706   3.169   2.474   5.292  0.3564  1.0189 -0.9409
  141DOPC  H17S16707   2.998   2.510   5.251  0.9883 -0.5571 -1.2593
  141DOPC  C21816708   3.056   2.302   5.262  0.3662 -0.2781 -0.7502
  141DOPC  H18R16709   2.958   2.258   5.292  0.0520  0.2538 -0.9912
  141DOPC  H18S16710   3.132   2.233   5.304 -0.1251  0.8564  2.2882
  141DOPC  H18T16711   3.063   2.296   5.152  1.0787  2.2616 -0.8814
  141DOPC   C3316712   2.041   2.217   6.420 -0.1509 -0.3266 -0.2146
  141DOPC   H3X16713   1.964   2.204   6.500  0.6171 -2.0196  0.3040
  141DOPC   H3Y16714   2.034   2.117   6.373  0.0194 -0.4721  0.0651
  141DOPC   C3416715   2.002   2.320   6.315  0.1706 -0.3289  0.0845
  141DOPC   H4X16716   2.074   2.311   6.231 -0.0258  1.9492 -0.4008
  141DOPC   H4Y16717   2.018   2.421   6.358 -0.0398  0.0798 -0.7669
  141DOPC   C3516718   1.858   2.305   6.263 -1.0469  0.1667 -0.4049
  141DOPC   H5X16719   1.793   2.275   6.347 -1.3877  2.2611  0.1551
  141DOPC   H5Y16720   1.847   2.223   6.189 -2.3453  0.3916 -0.4875
  141DOPC   C3616721   1.810   2.437   6.196 -0.5641  0.4361 -0.9462
  141DOPC   H6X16722   1.773   2.510   6.271 -1.1915  0.4937 -1.2951
  141DOPC   H6Y16723   1.887   2.493   6.140  0.4490  0.3322  0.3066
  141DOPC   C3716724   1.698   2.410   6.090 -0.1773  0.6474  0.4017
  141DOPC   H7X16725   1.618   2.344   6.128  0.6283 -1.4469 -1.3366
  141DOPC   H7Y16726   1.650   2.506   6.063  0.1475  0.1562 -2.2760
  141DOPC   C3816727   1.751   2.347   5.959  0.1960  0.2682  0.0277
  141DOPC   H8X16728   1.797   2.252   5.994  0.6721  0.0759 -1.0832
  141DOPC   H8Y16729   1.834   2.410   5.921  0.8216 -1.1264 -1.0166
  141DOPC   C3916730   1.646   2.312   5.847 -0.2700 -0.7227 -0.2927
  141DOPC   H9X16731   1.566   2.248   5.888  0.4634 -0.8867  0.9439
  141DOPC  C31016732   1.635   2.366   5.727 -0.6556  0.6444 -0.5145
  141DOPC  H10X16733   1.556   2.327   5.660 -0.0164  1.6892 -1.9188
  141DOPC  C31116734   1.727   2.466   5.660  1.0312 -0.6776  0.1415
  141DOPC  H11X16735   1.833   2.433   5.662  1.2794  0.1450  1.6210
  141DOPC  H11Y16736   1.726   2.552   5.729 -2.6938  0.7005 -1.3422
  141DOPC  C31216737   1.688   2.501   5.515  0.1711 -0.5884 -0.5693
  141DOPC  H12X16738   1.751   2.586   5.480  0.4302  0.5552  2.4420
  141DOPC  H12Y16739   1.583   2.538   5.514  0.7317  1.1578  0.5824
  141DOPC  C31316740   1.685   2.384   5.411 -0.2815 -0.4190  0.4650
  141DOPC  H13X16741   1.771   2.318   5.436  0.0456  0.4601  1.7510
  141DOPC  H13Y16742   1.590   2.330   5.434 -0.2048 -1.0123 -0.5532
  141DOPC  C31416743   1.706   2.449   5.270 -0.3146 -0.5909  0.3241
  141DOPC  H14X16744   1.631   2.528   5.251  1.2392  0.8572 -0.0546
  141DOPC  H14Y16745   1.806   2.498   5.271  0.7122 -2.5616  1.9737
  141DOPC  C31516746   1.681   2.340   5.166  0.5169 -0.1511  0.0816
  141DOPC  H15X16747   1.573   2.324   5.151 -0.2291  0.5486  3.7419
  141DOPC  H15Y16748   1.704   2.242   5.214  0.1545  0.5878  1.8150
  141DOPC  C31616749   1.749   2.375   5.033 -0.2608  0.3055  0.2914
  141DOPC  H16X16750   1.859   2.371   5.046 -0.0050  0.2019 -1.5971
  141DOPC  H16Y16751   1.722   2.298   4.957  2.1074 -0.8237  0.4988
  141DOPC  C31716752   1.707   2.509   4.969  0.2803 -0.0877 -0.0892
  141DOPC  H17X16753   1.596   2.518   4.965  0.4235  2.9518  0.7779
  141DOPC  H17Y16754   1.733   2.588   5.042  0.0815  0.5896 -0.7292
  141DOPC  C31816755   1.768   2.548   4.832  0.2908  0.3131 -0.1435
  141DOPC  H18X16756   1.706   2.631   4.793  3.6095  2.6557 -0.8457
  141DOPC  H18Y16757   1.871   2.589   4.842  0.4809  0.0473 -0.9403
  141DOPC  H18Z16758   1.768   2.454   4.773  0.0504  0.6636 -0.7030
  142DOPC     N16759   2.910   2.902   7.159  0.5605  0.0282  0.4297
  142DOPC   C1216760   2.897   2.786   7.062 -0.9592  0.2339  0.3911
  142DOPC  H12A16761   2.792   2.767   7.043 -1.2665  0.3676  1.8704
  142DOPC  H12B16762   2.951   2.702   7.103  1.0218  0.7394 -1.0076
  142DOPC   C1316763   3.054   2.912   7.211  0.0049  0.1473 -1.0517
  142DOPC  H13A16764   3.063   2.989   7.286  1.0010 -0.4455 -0.5419
  142DOPC  H13B16765   3.076   2.821   7.264 -1.1413  0.0261 -0.7438
  142DOPC  H13C16766   3.128   2.938   7.136 -0.1322  3.0832 -0.2989
  142DOPC   C1416767   2.818   2.874   7.275  0.2995 -0.3204 -0.1757
  142DOPC  H14A16768   2.861   2.782   7.313 -0.1543 -0.8338 -0.9043
  142DOPC  H14B16769   2.830   2.945   7.356 -2.1945 -1.1177  1.0061
  142DOPC  H14C16770   2.714   2.866   7.248 -0.3814 -0.0973  2.1670
  142DOPC   C1516771   2.867   3.036   7.111 -0.0584  0.6447 -0.2841
  142DOPC  H15A16772   2.761   3.023   7.096 -0.1874  1.8082 -0.4677
  142DOPC  H15B16773   2.910   3.056   7.015 -0.2029  1.2298 -0.2304
  142DOPC  H15C16774   2.895   3.112   7.183 -0.2966 -0.5196  1.0909
  142DOPC   C1116775   2.975   2.799   6.928  0.0942  0.1386 -0.1354
  142DOPC  H11A16776   3.086   2.796   6.933  0.1383  0.8491 -0.5824
  142DOPC  H11B16777   2.954   2.708   6.867 -0.8900  0.3472 -0.1129
  142DOPC     P16778   2.806   2.906   6.761 -0.1223 -0.0194 -0.0948
  142DOPC   O1316779   2.766   3.040   6.714  0.6938  0.5818 -0.0526
  142DOPC   O1416780   2.701   2.819   6.813 -0.6797  0.3887 -0.1468
  142DOPC   O1216781   2.927   2.916   6.862  0.2053  0.3056  0.3632
  142DOPC   O1116782   2.877   2.832   6.643 -0.0200  0.2058 -0.6602
  142DOPC    C116783   2.824   2.819   6.510  0.2642 -0.0096 -0.2826
  142DOPC    HA16784   2.735   2.884   6.495  0.4769  0.2387 -0.4633
  142DOPC    HB16785   2.816   2.710   6.491  3.0492 -0.1075 -1.3232
  142DOPC    C216786   2.940   2.870   6.419  0.1637 -0.9710 -0.0772
  142DOPC    HS16787   2.961   2.976   6.441  0.6418 -1.0113 -0.3143
  142DOPC   O2116788   2.899   2.841   6.285  0.0956 -0.1090 -0.3724
  142DOPC   C2116789   2.840   2.947   6.232  0.5276  0.7631 -0.2742
  142DOPC   O2216790   2.832   3.055   6.285 -0.0988  0.0558 -0.2870
  142DOPC   C2216791   2.765   2.901   6.102 -0.3486 -0.5426 -0.2808
  142DOPC   H2R16792   2.664   2.946   6.113 -0.8153 -1.9313  1.7147
  142DOPC   H2S16793   2.756   2.791   6.087 -1.5761 -0.5825  0.5881
  142DOPC    C316794   3.066   2.789   6.452  0.1688 -0.1237  0.2916
  142DOPC    HX16795   3.036   2.682   6.458 -3.1605  0.5885 -1.4765
  142DOPC    HY16796   3.100   2.834   6.547  2.7058 -0.3068 -0.4345
  142DOPC   O3116797   3.168   2.792   6.349 -0.0531 -0.2812  0.2242
  142DOPC   C3116798   3.243   2.906   6.348  0.1985 -0.4013  0.3296
  142DOPC   O3216799   3.211   3.007   6.414 -0.1044 -0.5432 -0.3026
  142DOPC   C3216800   3.372   2.892   6.273 -0.0713  0.4715  0.4777
  142DOPC   H2X16801   3.420   2.992   6.265  0.5891  0.2671  1.6654
  142DOPC   H2Y16802   3.440   2.827   6.332 -0.8711 -1.6885 -0.8538
  142DOPC   C2316803   2.820   2.966   5.972 -0.1114  0.4064  0.2227
  142DOPC   H3R16804   2.914   2.913   5.947 -0.9856 -1.0797 -0.0222
  142DOPC   H3S16805   2.839   3.073   5.996  3.3179 -0.0909  0.1809
  142DOPC   C2416806   2.722   2.948   5.853  0.5180  0.2090  0.3577
  142DOPC   H4R16807   2.676   3.047   5.833  0.9785  0.2024 -0.7992
  142DOPC   H4S16808   2.638   2.880   5.878 -0.0355  0.7745  0.0393
  142DOPC   C2516809   2.792   2.881   5.723  0.3275 -0.3425  0.2284
  142DOPC   H5R16810   2.851   2.794   5.761 -1.0878 -1.6230 -0.3804
  142DOPC   H5S16811   2.870   2.954   5.694  1.6259 -1.2483  1.2730
  142DOPC   C2616812   2.697   2.824   5.622 -0.1157 -0.0206  0.3086
  142DOPC   H6R16813   2.640   2.745   5.676  0.9158 -0.2007  1.1694
  142DOPC   H6S16814   2.743   2.763   5.542 -1.3422 -0.7843  0.1610
  142DOPC   C2716815   2.600   2.924   5.561 -0.7949 -0.4291  0.4991
  142DOPC   H7R16816   2.663   3.003   5.515  0.7622 -0.8276  1.8466
  142DOPC   H7S16817   2.550   2.980   5.642  0.5906  0.6414  0.6542
  142DOPC   C2816818   2.498   2.864   5.470  0.8118 -0.4251  0.2317
  142DOPC   H8R16819   2.422   2.796   5.514  0.3821 -0.0987  0.0022
  142DOPC   H8S16820   2.558   2.808   5.395  0.8562 -0.9554  0.6628
  142DOPC   C2916821   2.422   2.967   5.389  0.0162 -0.0997 -0.1540
  142DOPC   H9R16822   2.356   3.033   5.448  1.3508  1.4181 -0.3015
  142DOPC  C21016823   2.444   2.986   5.255 -0.1638  0.2382  0.2652
  142DOPC  H10R16824   2.383   3.061   5.203 -0.3766  0.5255  0.9126
  142DOPC  C21116825   2.541   2.917   5.151  0.1760 -0.3365  0.1502
  142DOPC  H11R16826   2.583   2.823   5.191  0.7918 -0.3212 -0.4432
  142DOPC  H11S16827   2.634   2.977   5.144  0.9119 -1.3698  0.8091
  142DOPC  C21216828   2.498   2.892   5.004 -0.9166 -0.3748 -0.3385
  142DOPC  H12R16829   2.426   2.807   5.003 -0.2081 -0.9825 -1.3789
  142DOPC  H12S16830   2.585   2.855   4.945  0.5387  1.6529  0.4138
  142DOPC  C21316831   2.436   3.015   4.944 -0.2520  0.3930 -0.1703
  142DOPC  H13R16832   2.508   3.099   4.950  1.1913 -0.5844 -2.5475
  142DOPC  H13S16833   2.350   3.040   5.010  0.2499 -0.2083  0.7212
  142DOPC  C21416834   2.400   3.003   4.801 -0.3866 -0.2052  0.6541
  142DOPC  H14R16835   2.315   2.932   4.801  0.1182 -0.8207  1.1366
  142DOPC  H14S16836   2.481   2.952   4.744 -0.6176 -1.0670  1.0718
  142DOPC  C21516837   2.355   3.136   4.736  0.0027 -0.4342  0.5567
  142DOPC  H15R16838   2.444   3.201   4.718 -0.1109 -0.7494 -1.3570
  142DOPC  H15S16839   2.291   3.187   4.810  0.3364  0.8652 -0.0315
  142DOPC  C21616840   2.275   3.130   4.602 -0.2259  0.3089  0.0264
  142DOPC  H16R16841   2.178   3.077   4.612  0.2688 -1.2986 -2.6282
  142DOPC  H16S16842   2.340   3.093   4.520 -0.9734 -2.4083  0.5724
  142DOPC  C21716843   2.253   3.269   4.538  0.7096  0.0245  0.4445
  142DOPC  H17R16844   2.227   3.341   4.619 -0.1687  2.5684 -1.9251
  142DOPC  H17S16845   2.166   3.261   4.470  1.8476  0.8132 -1.1617
  142DOPC  C21816846   2.373   3.324   4.461  0.2460 -0.8570  0.7310
  142DOPC  H18R16847   2.359   3.429   4.427 -1.9132 -1.2924  0.0607
  142DOPC  H18S16848   2.390   3.275   4.362 -0.9657 -2.3242  1.2050
  142DOPC  H18T16849   2.463   3.318   4.525  1.8975  0.5449 -1.3327
  142DOPC   C3316850   3.364   2.818   6.138  0.4998 -0.2360 -0.0080
  142DOPC   H3X16851   3.300   2.728   6.151  0.0484 -0.2068 -1.7764
  142DOPC   H3Y16852   3.466   2.790   6.102  0.6911  0.7198 -0.2363
  142DOPC   C3416853   3.296   2.901   6.026 -0.0990 -0.7536 -0.3732
  142DOPC   H4X16854   3.331   3.006   6.032  0.9564 -1.1183  0.2433
  142DOPC   H4Y16855   3.185   2.903   6.030 -0.0673  0.0141  0.3897
  142DOPC   C3516856   3.333   2.849   5.884  0.3470 -0.0344 -0.1930
  142DOPC   H5X16857   3.295   2.745   5.877  2.3455 -0.9236  1.1388
  142DOPC   H5Y16858   3.444   2.850   5.881  0.3286  2.1824 -1.7517
  142DOPC   C3616859   3.272   2.940   5.774 -0.1425 -0.2576  0.2213
  142DOPC   H6X16860   3.162   2.935   5.789 -0.0458  1.4394  1.8736
  142DOPC   H6Y16861   3.290   3.048   5.787 -1.9121  0.3210 -1.6369
  142DOPC   C3716862   3.308   2.887   5.631 -0.6652 -0.1683  0.0855
  142DOPC   H7X16863   3.418   2.891   5.616 -0.3072  2.0995  2.4757
  142DOPC   H7Y16864   3.281   2.780   5.620  0.5926 -0.3143 -2.0510
  142DOPC   C3816865   3.254   2.980   5.518 -0.2029 -0.5634  0.5687
  142DOPC   H8X16866   3.269   3.087   5.545 -0.2576 -0.2884 -0.4624
  142DOPC   H8Y16867   3.145   2.960   5.529 -0.1589 -1.9662 -1.1228
  142DOPC   C3916868   3.298   2.936   5.382  0.3372 -0.1163  0.8834
  142DOPC   H9X16869   3.403   2.907   5.369  0.2163 -0.8017  1.4157
  142DOPC  C31016870   3.216   2.924   5.272  0.0417  0.1446 -0.0117
  142DOPC  H10X16871   3.272   2.898   5.181 -1.0381 -2.3166 -0.0787
  142DOPC  C31116872   3.075   2.969   5.269  0.0188 -0.2384  0.0090
  142DOPC  H11X16873   3.065   3.044   5.188  0.3259 -1.3881 -1.1157
  142DOPC  H11Y16874   3.044   3.018   5.364  1.0608  0.6358 -0.0897
  142DOPC  C31216875   2.978   2.851   5.242 -0.2900  0.3197  1.1253
  142DOPC  H12X16876   2.876   2.896   5.236  0.3635  1.6391 -2.6919
  142DOPC  H12Y16877   2.965   2.776   5.323 -2.7498 -0.8999 -0.2704
  142DOPC  C31316878   2.990   2.781   5.104 -0.6144 -0.2723  0.0758
  142DOPC  H13X16879   2.983   2.865   5.031  0.1393  0.2138  0.5526
  142DOPC  H13Y16880   3.095   2.747   5.108 -0.4887  0.0512 -0.3251
  142DOPC  C31416881   2.881   2.678   5.060 -0.5895  0.1816 -0.0998
  142DOPC  H14X16882   2.859   2.598   5.134 -0.1912  0.7415  0.6339
  142DOPC  H14Y16883   2.784   2.732   5.058 -0.7388 -0.0987 -0.5872
  142DOPC  C31516884   2.915   2.613   4.919 -0.0334  0.3674  0.1017
  142DOPC  H15X16885   2.874   2.510   4.912  0.3155  0.3003 -1.1396
  142DOPC  H15Y16886   3.025   2.597   4.908  0.0580  1.3876 -0.5375
  142DOPC  C31616887   2.864   2.705   4.800  0.1596  0.7679 -0.2398
  142DOPC  H16X16888   2.754   2.696   4.807 -0.0381  2.4175 -0.8465
  142DOPC  H16Y16889   2.904   2.806   4.821 -0.4683  1.2015 -1.0883
  142DOPC  C31716890   2.889   2.643   4.664  0.3976  0.5857  0.5979
  142DOPC  H17X16891   2.998   2.643   4.641  0.7934  1.1396  2.3351
  142DOPC  H17Y16892   2.856   2.537   4.661  1.0771  0.3922 -2.1732
  142DOPC  C31816893   2.826   2.701   4.544  0.5050  0.1326  0.2111
  142DOPC  H18X16894   2.871   2.655   4.454  0.1490  0.8697 -0.3525
  142DOPC  H18Y16895   2.716   2.687   4.549  0.5817 -0.8125 -0.3972
  142DOPC  H18Z16896   2.842   2.811   4.543  0.6241  0.1302  0.8717
  143DOPC     N16897   1.479   3.609   7.398  0.1367  0.1510  0.2655
  143DOPC   C1216898   1.573   3.640   7.286  0.1894  1.0520 -0.4114
  143DOPC  H12A16899   1.655   3.571   7.291  1.4364  2.5695  3.7088
  143DOPC  H12B16900   1.612   3.741   7.290 -1.1024  1.6147 -1.1977
  143DOPC   C1316901   1.559   3.625   7.529 -0.0115 -0.5977  0.0879
  143DOPC  H13A16902   1.651   3.569   7.535  1.2919  0.9541 -2.9412
  143DOPC  H13B16903   1.593   3.727   7.532 -1.5792  0.0412 -1.4687
  143DOPC  H13C16904   1.487   3.602   7.605  0.0840 -0.0466  0.3491
  143DOPC   C1416905   1.417   3.469   7.383  0.0818 -1.2924  0.7159
  143DOPC  H14A16906   1.488   3.388   7.378  1.6188 -0.0522  1.2476
  143DOPC  H14B16907   1.345   3.454   7.461 -1.9766 -0.0129 -0.8132
  143DOPC  H14C16908   1.362   3.463   7.290  0.1997  1.4121  0.3944
  143DOPC   C1516909   1.364   3.707   7.404 -0.0994 -0.0653 -0.0654
  143DOPC  H15A16910   1.313   3.710   7.309 -1.9451 -1.4358  0.8187
  143DOPC  H15B16911   1.397   3.809   7.421  1.4609 -0.9220  2.7633
  143DOPC  H15C16912   1.296   3.683   7.484 -0.5847  0.6349 -0.2554
  143DOPC   C1116913   1.514   3.624   7.143 -0.0330  0.3306 -0.1140
  143DOPC  H11A16914   1.592   3.642   7.066 -1.3026 -0.7041 -1.7083
  143DOPC  H11B16915   1.463   3.525   7.131 -0.6957  0.2791  2.5304
  143DOPC     P16916   1.447   3.870   7.101  0.0108  0.0096 -0.5700
  143DOPC   O1316917   1.585   3.894   7.155 -0.0595 -0.2294 -0.2942
  143DOPC   O1416918   1.335   3.955   7.145 -0.6310 -0.0844  0.8306
  143DOPC   O1216919   1.417   3.720   7.123 -0.0178  0.5311  0.1217
  143DOPC   O1116920   1.458   3.882   6.943  0.0937 -0.4672 -0.0671
  143DOPC    C116921   1.339   3.862   6.856  0.3461  0.1023 -0.3424
  143DOPC    HA16922   1.242   3.896   6.900 -0.2809 -1.4670 -0.4570
  143DOPC    HB16923   1.333   3.755   6.829  2.9270 -0.0273 -0.5899
  143DOPC    C216924   1.352   3.948   6.729 -0.1559  0.3801  0.8088
  143DOPC    HS16925   1.255   3.942   6.676  0.8892  0.6550 -1.2728
  143DOPC   O2116926   1.461   3.898   6.642  0.3608  0.1573 -0.0577
  143DOPC   C2116927   1.437   3.790   6.581  0.2603 -0.5932  0.6772
  143DOPC   O2216928   1.336   3.721   6.597 -0.8811  0.1487  0.1547
  143DOPC   C2216929   1.561   3.759   6.491 -0.6256  0.2920 -0.2960
  143DOPC   H2R16930   1.646   3.756   6.564 -1.0734 -1.3214  0.2068
  143DOPC   H2S16931   1.580   3.844   6.422 -1.7699 -1.4249 -2.8810
  143DOPC    C316932   1.355   4.100   6.762  0.8576  0.0266  0.7815
  143DOPC    HX16933   1.442   4.111   6.829  1.8944 -1.1256 -0.3102
  143DOPC    HY16934   1.271   4.132   6.827 -1.2049 -1.5295 -0.9387
  143DOPC   O3116935   1.355   4.195   6.647 -0.2423  0.0891 -0.4173
  143DOPC   C3116936   1.472   4.204   6.589 -0.6395  0.1414  0.8695
  143DOPC   O3216937   1.579   4.154   6.627 -0.0501 -0.1193 -0.4136
  143DOPC   C3216938   1.460   4.307   6.480  0.0343 -0.4793 -0.4715
  143DOPC   H2X16939   1.354   4.294   6.448  0.0014  0.8037 -0.9429
  143DOPC   H2Y16940   1.462   4.409   6.524 -1.2310  0.2677 -2.0267
  143DOPC   C2316941   1.555   3.633   6.401 -0.9846  0.1168  0.2071
  143DOPC   H3R16942   1.526   3.547   6.466  0.6346 -0.0927  0.7017
  143DOPC   H3S16943   1.656   3.610   6.362 -1.7575 -1.9664 -0.7051
  143DOPC   C2416944   1.466   3.655   6.276 -0.2240  0.4393 -1.2888
  143DOPC   H4R16945   1.494   3.743   6.215 -0.7302  1.8709  0.4665
  143DOPC   H4S16946   1.363   3.670   6.315  0.2727  1.1778 -0.1994
  143DOPC   C2516947   1.464   3.535   6.180 -0.0188  0.1774  0.3852
  143DOPC   H5R16948   1.408   3.454   6.231 -1.9674  1.4973  0.4138
  143DOPC   H5S16949   1.569   3.497   6.178 -0.1528 -0.2875  1.6933
  143DOPC   C2616950   1.404   3.566   6.043  0.1055 -0.1619 -0.1008
  143DOPC   H6R16951   1.452   3.656   5.999  0.7989 -1.7371 -2.7500
  143DOPC   H6S16952   1.299   3.598   6.058 -0.8956 -2.8572 -0.7432
  143DOPC   C2716953   1.421   3.455   5.944 -0.2850  0.2253  0.0907
  143DOPC   H7R16954   1.352   3.369   5.960  2.1357 -2.2080 -1.6727
  143DOPC   H7S16955   1.524   3.418   5.962  0.0302  0.9671 -0.1511
  143DOPC   C2816956   1.409   3.504   5.801  0.0115  0.1556 -0.0384
  143DOPC   H8R16957   1.477   3.590   5.781  0.1418  0.1997  0.5924
  143DOPC   H8S16958   1.309   3.552   5.788  0.2427  0.0476 -2.8009
  143DOPC   C2916959   1.428   3.395   5.697  0.7261  0.3316 -0.8676
  143DOPC   H9R16960   1.531   3.373   5.665  0.3971  0.0654 -1.7742
  143DOPC  C21016961   1.341   3.308   5.651  0.2146  0.2734  0.2857
  143DOPC  H10R16962   1.364   3.228   5.579 -1.6116 -0.9081  0.9318
  143DOPC  C21116963   1.194   3.302   5.689  0.3398 -0.2789 -0.0988
  143DOPC  H11R16964   1.143   3.270   5.596  0.7188  0.5791 -0.6198
  143DOPC  H11S16965   1.160   3.406   5.708  1.1594  0.1793 -1.0353
  143DOPC  C21216966   1.154   3.212   5.803  0.2274 -0.3104  0.3689
  143DOPC  H12R16967   1.205   3.244   5.896  0.2703 -0.0121  0.2452
  143DOPC  H12S16968   1.181   3.106   5.781  0.0648 -0.8754  2.6660
  143DOPC  C21316969   1.002   3.212   5.845  0.2508 -0.4236  0.2763
  143DOPC  H13R16970   0.970   3.316   5.865 -0.7360 -0.7617  0.5040
  143DOPC  H13S16971   0.992   3.161   5.943  0.5282  1.3430  1.2540
  143DOPC  C21416972   0.910   3.151   5.740  0.2457 -0.2493  0.1617
  143DOPC  H14R16973   0.949   3.168   5.638  2.0589 -1.8684  0.5218
  143DOPC  H14S16974   0.807   3.193   5.741  0.7234  0.9373  0.2684
  143DOPC  C21516975   0.895   2.995   5.766 -0.5047  0.0951  0.5634
  143DOPC  H15R16976   0.866   2.986   5.873  0.9963  1.6641  1.1347
  143DOPC  H15S16977   0.996   2.953   5.746  0.0479  1.9257 -0.6801
  143DOPC  C21616978   0.781   2.920   5.693  0.6283 -0.0954 -0.2466
  143DOPC  H16R16979   0.706   3.001   5.702  1.4853  0.8308 -1.1895
  143DOPC  H16S16980   0.751   2.828   5.747 -1.9022  0.7230 -0.1474
  143DOPC  C21716981   0.804   2.905   5.543  0.1748  0.2661 -0.0452
  143DOPC  H17R16982   0.889   2.834   5.532  0.0154 -0.0407  0.6550
  143DOPC  H17S16983   0.831   3.000   5.492 -2.4011  0.5646 -0.9710
  143DOPC  C21816984   0.682   2.849   5.469 -0.1504 -0.4362  0.3428
  143DOPC  H18R16985   0.649   2.760   5.527  3.0224 -0.3655  2.5767
  143DOPC  H18S16986   0.708   2.816   5.367 -1.0354  1.0153 -0.3805
  143DOPC  H18T16987   0.604   2.927   5.459  0.0817 -0.4693 -2.5025
  143DOPC   C3316988   1.563   4.283   6.366  0.3580 -0.5243 -0.4790
  143DOPC   H3X16989   1.539   4.189   6.311  1.1997 -0.9990 -0.0504
  143DOPC   H3Y16990   1.660   4.273   6.419 -1.4525 -2.6595  2.8488
  143DOPC   C3416991   1.567   4.394   6.259 -0.1613 -0.3555  0.5635
  143DOPC   H4X16992   1.575   4.494   6.305  1.9787 -0.3476  0.3022
  143DOPC   H4Y16993   1.478   4.392   6.193  0.8251 -0.6467 -0.7999
  143DOPC   C3516994   1.680   4.369   6.166 -0.1019  0.2297  0.3469
  143DOPC   H5X16995   1.652   4.277   6.109 -0.5915  0.3980  0.3139
  143DOPC   H5Y16996   1.774   4.350   6.221  0.2439  2.7411  0.7312
  143DOPC   C3616997   1.702   4.486   6.070 -0.2763  0.8845 -0.0383
  143DOPC   H6X16998   1.603   4.509   6.027  0.1328 -0.3980 -1.7671
  143DOPC   H6Y16999   1.745   4.572   6.127 -1.1321  1.4758 -0.2623
  143DOPC   C3717000   1.802   4.449   5.954 -0.4795 -0.3105 -0.3731
  143DOPC   H7X17001   1.849   4.543   5.918  0.3167 -0.1815  0.9424
  143DOPC   H7Y17002   1.889   4.394   5.995 -0.7357  0.0687  0.7403
  143DOPC   C3817003   1.722   4.386   5.835 -0.7355 -0.2999 -0.1844
  143DOPC   H8X17004   1.619   4.425   5.824 -0.6411 -0.0797 -0.2962
  143DOPC   H8Y17005   1.697   4.285   5.873 -0.6471  0.1512  1.1569
  143DOPC   C3917006   1.813   4.388   5.709 -0.5426 -0.4005  0.6886
  143DOPC   H9X17007   1.876   4.298   5.698 -1.1597 -0.6667 -1.0166
  143DOPC  C31017008   1.795   4.463   5.603  0.3694 -0.3270  0.6391
  143DOPC  H10X17009   1.864   4.456   5.518 -0.5005  1.1655 -0.2395
  143DOPC  C31117010   1.689   4.567   5.582 -0.3092 -0.3171  0.5262
  143DOPC  H11X17011   1.610   4.559   5.660  0.5112 -5.2333  1.1713
  143DOPC  H11Y17012   1.631   4.550   5.489 -0.1760 -4.3142  1.0087
  143DOPC  C31217013   1.755   4.704   5.589 -0.1932 -0.0761 -0.2564
  143DOPC  H12X17014   1.813   4.723   5.682 -1.5001 -0.4221  0.6669
  143DOPC  H12Y17015   1.680   4.786   5.595 -1.9722 -1.6516  0.1592
  143DOPC  C31317016   1.856   4.744   5.481 -0.1946 -0.2872  0.3228
  143DOPC  H13X17017   1.889   4.848   5.504 -1.1276 -0.2983  1.8555
  143DOPC  H13Y17018   1.943   4.674   5.479  0.5064  0.4129 -3.9806
  143DOPC  C31417019   1.791   4.741   5.342  0.3041  0.8688  0.8015
  143DOPC  H14X17020   1.751   4.640   5.316  0.6674  1.0286 -0.4381
  143DOPC  H14Y17021   1.710   4.817   5.345  1.8455  2.5502  0.9344
  143DOPC  C31517022   1.902   4.777   5.231  0.0791  1.3116  0.5925
  143DOPC  H15X17023   1.954   4.686   5.195 -2.5321  0.2746 -0.9019
  143DOPC  H15Y17024   1.968   4.848   5.285 -0.7627  0.3784  3.0088
  143DOPC  C31617025   1.827   4.834   5.111 -0.4955 -1.0274  0.1358
  143DOPC  H16X17026   1.748   4.767   5.069 -0.7463 -0.3044 -0.5731
  143DOPC  H16Y17027   1.775   4.928   5.135 -0.6044 -0.5121 -1.9369
  143DOPC  C31717028   1.916   4.878   4.989  0.0185  0.8401 -0.2560
  143DOPC  H17X17029   2.005   4.936   5.022  0.5913 -1.0763  1.7720
  143DOPC  H17Y17030   1.964   4.794   4.934  1.9867  2.0854 -0.5409
  143DOPC  C31817031   1.837   4.960   4.884 -0.3809  0.2074  0.1103
  143DOPC  H18X17032   1.892   4.966   4.788 -0.2809  2.6498  0.2723
  143DOPC  H18Y17033   1.732   4.924   4.875  0.2608 -1.5722 -0.8116
  143DOPC  H18Z17034   1.826   5.066   4.915 -0.3830 -0.0986  1.2051
  144DOPC     N17035   2.051   2.994   7.392  0.0264 -0.1808  0.0232
  144DOPC   C1217036   2.098   2.962   7.256 -0.3921 -0.3825  0.1108
  144DOPC  H12A17037   2.171   3.037   7.229 -0.9836 -0.2950 -1.3125
  144DOPC  H12B17038   2.024   2.982   7.180  0.6003 -0.6085 -0.9360
  144DOPC   C1317039   1.935   2.910   7.427 -0.8258  0.5364 -0.1227
  144DOPC  H13A17040   1.913   2.919   7.532 -2.0898 -0.1002 -0.3106
  144DOPC  H13B17041   1.849   2.932   7.365 -0.5851 -0.2052 -0.7293
  144DOPC  H13C17042   1.950   2.806   7.404 -1.8743  0.2079  0.5999
  144DOPC   C1417043   2.014   3.140   7.404 -0.4037 -0.3413  0.0269
  144DOPC  H14A17044   2.096   3.202   7.373  0.5622 -0.5340  2.0240
  144DOPC  H14B17045   1.923   3.159   7.349 -0.5047 -2.3432 -0.5697
  144DOPC  H14C17046   2.006   3.164   7.509 -1.2758  1.1103 -0.3462
  144DOPC   C1517047   2.163   2.975   7.490 -0.4378 -0.4770  0.2042
  144DOPC  H15A17048   2.248   3.034   7.461 -0.6240 -0.1366  0.3349
  144DOPC  H15B17049   2.196   2.873   7.501 -1.3003 -0.6787  1.1072
  144DOPC  H15C17050   2.136   3.008   7.590 -0.7646  0.2079 -0.1004
  144DOPC   C1117051   2.170   2.829   7.218  0.6235 -0.0418 -0.2563
  144DOPC  H11A17052   2.236   2.825   7.128  1.3211 -0.5169  0.2687
  144DOPC  H11B17053   2.238   2.793   7.297 -0.9903  0.6600  1.5380
  144DOPC     P17054   1.960   2.741   7.089 -0.2420 -0.0742  0.2541
  144DOPC   O1317055   1.902   2.874   7.074  0.1935  0.2191  0.9176
  144DOPC   O1417056   1.866   2.631   7.112  0.2058  0.0188 -0.0027
  144DOPC   O1217057   2.061   2.739   7.210  0.3200 -0.1943  0.0499
  144DOPC   O1117058   2.039   2.708   6.957  0.1420  0.6465 -0.4678
  144DOPC    C117059   2.120   2.805   6.888 -0.2542  0.5190  0.0035
  144DOPC    HA17060   2.213   2.755   6.854 -0.3428  1.2217 -1.3096
  144DOPC    HB17061   2.162   2.879   6.959  0.3654  0.2602 -0.0848
  144DOPC    C217062   2.052   2.871   6.771 -0.7135  0.6112 -0.1282
  144DOPC    HS17063   1.969   2.931   6.814 -2.2028 -2.2301  1.2314
  144DOPC   O2117064   1.980   2.765   6.695  0.0407  0.4234  0.4363
  144DOPC   C2117065   1.881   2.812   6.623 -0.1918  0.3672 -0.0460
  144DOPC   O2217066   1.830   2.922   6.628 -0.8249 -0.0193  0.3382
  144DOPC   C2217067   1.840   2.695   6.526  0.3844 -0.9888 -0.2363
  144DOPC   H2R17068   1.894   2.601   6.554 -0.0023 -1.0211  0.4422
  144DOPC   H2S17069   1.876   2.709   6.422 -0.3952 -2.3439 -0.7037
  144DOPC    C317070   2.145   2.967   6.693  0.2450  0.0107  0.7954
  144DOPC    HX17071   2.185   3.036   6.770 -2.2644  0.3116  1.9220
  144DOPC    HY17072   2.095   3.033   6.619 -0.6255 -1.9930 -0.4682
  144DOPC   O3117073   2.243   2.884   6.631 -0.1605 -0.0537  0.0694
  144DOPC   C3117074   2.355   2.951   6.597  0.0382 -0.0722  0.6268
  144DOPC   O3217075   2.379   3.066   6.626  0.5696 -0.1692 -0.2214
  144DOPC   C3217076   2.440   2.868   6.514 -0.0918  0.7653  0.0050
  144DOPC   H2X17077   2.540   2.861   6.563 -0.5218  1.5828  1.0309
  144DOPC   H2Y17078   2.404   2.763   6.513  0.1017  0.6597  1.8899
  144DOPC   C2317079   1.689   2.658   6.538  0.2952 -0.3093  0.6124
  144DOPC   H3R17080   1.653   2.579   6.469  1.8427  1.1476 -2.0711
  144DOPC   H3S17081   1.648   2.753   6.498  1.2466  0.2579  0.9518
  144DOPC   C2417082   1.638   2.634   6.683 -0.6269  0.0005  0.9859
  144DOPC   H4R17083   1.653   2.724   6.746  1.5349 -0.3834  1.1085
  144DOPC   H4S17084   1.702   2.550   6.717 -1.5266 -1.4842 -0.8417
  144DOPC   C2517085   1.484   2.594   6.676  0.2932  0.0542  0.3540
  144DOPC   H5R17086   1.424   2.685   6.656 -0.5464 -0.5438  0.1069
  144DOPC   H5S17087   1.465   2.569   6.782  2.5173 -1.9613  0.3616
  144DOPC   C2617088   1.449   2.482   6.584  0.6151  0.8879  0.0306
  144DOPC   H6R17089   1.450   2.516   6.479  0.8984  1.3383  0.1786
  144DOPC   H6S17090   1.350   2.444   6.618  1.9260 -0.2553  2.9588
  144DOPC   C2717091   1.545   2.359   6.609  0.2768 -0.0601  0.3868
  144DOPC   H7R17092   1.551   2.338   6.718 -1.9541  1.1294  0.8088
  144DOPC   H7S17093   1.638   2.374   6.551  1.0031 -2.4127  0.8347
  144DOPC   C2817094   1.483   2.224   6.549  0.0051  0.2348 -0.0364
  144DOPC   H8R17095   1.484   2.235   6.439 -2.3933  1.0193 -0.0332
  144DOPC   H8S17096   1.381   2.237   6.590  0.2453 -0.7602  0.9366
  144DOPC   C2917097   1.539   2.093   6.602  0.7032 -1.4458  0.0156
  144DOPC   H9R17098   1.520   2.081   6.709 -3.2271 -1.7057 -0.5798
  144DOPC  C21017099   1.578   1.993   6.527  0.0017 -0.0707 -0.0535
  144DOPC  H10R17100   1.606   1.902   6.582 -1.2191 -0.0650  0.6236
  144DOPC  C21117101   1.607   1.990   6.378 -0.2370 -0.5454  0.3562
  144DOPC  H11R17102   1.610   2.087   6.326 -1.9682  0.2309  1.6333
  144DOPC  H11S17103   1.531   1.935   6.318 -0.7114 -0.0449  0.4964
  144DOPC  C21217104   1.744   1.922   6.350 -0.5831 -0.0094  0.4277
  144DOPC  H12R17105   1.754   1.820   6.395  2.1553 -0.4807 -1.0337
  144DOPC  H12S17106   1.828   1.984   6.388 -0.3670 -1.0897  1.8089
  144DOPC  C21317107   1.772   1.899   6.201 -0.4295 -0.5049 -0.0288
  144DOPC  H13R17108   1.879   1.868   6.201 -0.1804  0.1696 -2.2522
  144DOPC  H13S17109   1.769   1.990   6.138 -0.1354 -0.5455 -0.1005
  144DOPC  C21417110   1.692   1.785   6.138  0.5918  0.0481 -0.5752
  144DOPC  H14R17111   1.587   1.801   6.170  0.4601  0.5295 -1.2335
  144DOPC  H14S17112   1.726   1.697   6.196 -0.6102 -0.0706 -0.0222
  144DOPC  C21517113   1.718   1.767   5.992 -0.0926 -0.7238  0.8858
  144DOPC  H15R17114   1.680   1.668   5.960 -2.7506  0.2950  0.6444
  144DOPC  H15S17115   1.822   1.772   5.955 -1.1204  0.7191 -2.0778
  144DOPC  C21617116   1.660   1.871   5.906 -0.0612 -0.0111 -0.3965
  144DOPC  H16R17117   1.713   1.966   5.926 -1.2966  0.5972  0.0780
  144DOPC  H16S17118   1.552   1.885   5.930  0.0251  1.1965 -0.7015
  144DOPC  C21717119   1.660   1.842   5.755  0.2338  0.4094 -0.9396
  144DOPC  H17R17120   1.607   1.746   5.736  1.5370 -1.1323  2.4505
  144DOPC  H17S17121   1.763   1.804   5.737 -0.5847 -2.6044  0.1381
  144DOPC  C21817122   1.631   1.952   5.652  0.5485  0.4110 -0.5449
  144DOPC  H18R17123   1.678   2.047   5.684 -3.2039  2.4279 -0.4038
  144DOPC  H18S17124   1.524   1.979   5.663  0.6423  0.3263  0.6945
  144DOPC  H18T17125   1.669   1.936   5.549  1.1058  0.9758 -0.4350
  144DOPC   C3317126   2.460   2.927   6.366 -0.5486 -0.0683  0.2556
  144DOPC   H3X17127   2.532   2.866   6.308 -0.0789 -0.5301  1.3021
  144DOPC   H3Y17128   2.499   3.031   6.366 -1.2449  0.1993  0.1896
  144DOPC   C3417129   2.331   2.914   6.270  0.0349 -0.1673 -0.4073
  144DOPC   H4X17130   2.251   2.985   6.301  0.5512 -0.7097  2.4990
  144DOPC   H4Y17131   2.292   2.812   6.290 -2.2905  1.1497  2.6378
  144DOPC   C3517132   2.351   2.926   6.122  0.5303  0.1754  0.7783
  144DOPC   H5X17133   2.264   2.888   6.065  0.7655 -0.9044  1.1015
  144DOPC   H5Y17134   2.438   2.863   6.092 -1.8471 -2.0511 -2.0285
  144DOPC   C3617135   2.380   3.074   6.083 -1.1421  0.3096 -0.4365
  144DOPC   H6X17136   2.309   3.139   6.139 -0.4508 -0.4690  1.4219
  144DOPC   H6Y17137   2.473   3.109   6.133 -1.1856 -0.4428  0.1890
  144DOPC   C3717138   2.366   3.106   5.936 -0.0065  0.7433 -0.2512
  144DOPC   H7X17139   2.437   3.045   5.875 -1.9516 -0.2946 -1.6015
  144DOPC   H7Y17140   2.261   3.082   5.909 -0.2880  2.7653 -1.1509
  144DOPC   C3817141   2.372   3.253   5.889  0.4141  0.2833 -0.4506
  144DOPC   H8X17142   2.313   3.312   5.963  1.9265  1.5326 -0.1819
  144DOPC   H8Y17143   2.324   3.248   5.789 -0.9972 -2.1442  0.2588
  144DOPC   C3917144   2.516   3.298   5.893  0.1985  0.1920 -0.1085
  144DOPC   H9X17145   2.555   3.314   5.994  0.3373  3.2484 -0.5513
  144DOPC  C31017146   2.589   3.331   5.789 -0.6696  0.4052 -0.1695
  144DOPC  H10X17147   2.689   3.374   5.806 -0.4581 -0.2763  0.3335
  144DOPC  C31117148   2.552   3.325   5.642  0.8369  0.0534  0.8464
  144DOPC  H11X17149   2.502   3.421   5.620  0.0562 -0.2012  1.4726
  144DOPC  H11Y17150   2.478   3.245   5.620  1.2454  0.2273 -1.3954
  144DOPC  C31217151   2.678   3.302   5.561  0.5875  0.0149  0.4444
  144DOPC  H12X17152   2.733   3.205   5.571  0.5632 -0.2258 -1.3880
  144DOPC  H12Y17153   2.746   3.386   5.584 -0.0835  0.9438 -0.8096
  144DOPC  C31317154   2.643   3.323   5.416 -0.1906  0.4195  0.0224
  144DOPC  H13X17155   2.569   3.243   5.395 -2.7278  2.2280  1.4922
  144DOPC  H13Y17156   2.603   3.425   5.395  0.9995  0.7355 -0.8195
  144DOPC  C31417157   2.765   3.304   5.320  0.5570 -0.1751 -0.0670
  144DOPC  H14X17158   2.837   3.389   5.318  0.9674 -0.5261 -1.6906
  144DOPC  H14Y17159   2.803   3.203   5.350 -0.3306 -0.0165  1.7349
  144DOPC  C31517160   2.715   3.292   5.167  0.3510 -0.5849 -0.4413
  144DOPC  H15X17161   2.712   3.394   5.125  1.0903 -0.2175  0.3630
  144DOPC  H15Y17162   2.613   3.248   5.173  0.5945 -1.0900  0.2082
  144DOPC  C31617163   2.799   3.211   5.067  0.0291  0.5796  0.1728
  144DOPC  H16X17164   2.786   3.104   5.094 -1.3890  0.0567 -2.3422
  144DOPC  H16Y17165   2.748   3.222   4.969  0.8955  0.5372 -0.2937
  144DOPC  C31717166   2.952   3.240   5.059  0.3036  0.2073  0.3104
  144DOPC  H17X17167   2.990   3.253   5.162  1.3361 -0.2504  0.0050
  144DOPC  H17Y17168   3.013   3.158   5.014  1.1784  1.6263 -1.2030
  144DOPC  C31817169   2.981   3.360   4.977  0.0948 -0.5181 -0.0184
  144DOPC  H18X17170   2.938   3.452   5.021  0.5223 -0.2172 -0.2294
  144DOPC  H18Y17171   3.090   3.379   4.983  0.0666 -0.7940  1.8746
  144DOPC  H18Z17172   2.957   3.356   4.868  2.6573 -0.3425 -0.6700
  145DOPC     N17173   4.161   4.908   7.677  0.1174 -0.6489 -0.0456
  145DOPC   C1217174   4.183   5.025   7.587  0.5261  0.1025  0.0885
  145DOPC  H12A17175   4.205   5.108   7.654  2.7035 -0.2262 -0.1466
  145DOPC  H12B17176   4.088   5.043   7.539 -1.3999 -3.7341  2.0128
  145DOPC   C1317177   4.037   4.941   7.767 -0.1635  0.1633  0.1402
  145DOPC  H13A17178   3.955   4.968   7.702 -2.0819 -3.0250  1.0211
  145DOPC  H13B17179   4.004   4.856   7.824  0.0040  0.2352  0.3467
  145DOPC  H13C17180   4.043   5.028   7.832 -0.1840  0.2002  0.0933
  145DOPC   C1417181   4.275   4.879   7.773 -0.1489 -0.0043 -0.5262
  145DOPC  H14A17182   4.359   4.843   7.715  0.3910 -1.4933  1.1060
  145DOPC  H14B17183   4.293   4.964   7.838  0.7409 -0.1042 -0.6321
  145DOPC  H14C17184   4.254   4.791   7.830  1.5460 -0.7520 -0.9887
  145DOPC   C1517185   4.135   4.787   7.601  0.2148 -0.2112 -0.1739
  145DOPC  H15A17186   4.062   4.803   7.522  1.7028 -1.3193 -1.8553
  145DOPC  H15B17187   4.102   4.709   7.668 -1.9819  0.7719 -0.0320
  145DOPC  H15C17188   4.230   4.763   7.555  0.7733  1.0735  0.2470
  145DOPC   C1117189   4.285   5.010   7.472 -0.9588  0.3502 -0.0199
  145DOPC  H11A17190   4.272   4.913   7.421  3.0501 -0.9284  1.0168
  145DOPC  H11B17191   4.269   5.091   7.398 -0.4834 -1.1641 -1.8601
  145DOPC     P17192   4.516   5.112   7.554  0.2948 -0.3503 -0.3510
  145DOPC   O1317193   4.601   5.071   7.666 -0.1426 -0.0746 -0.1609
  145DOPC   O1417194   4.441   5.231   7.599  0.4636 -0.0693 -0.1919
  145DOPC   O1217195   4.423   4.988   7.509 -0.1022 -0.1184 -0.1975
  145DOPC   O1117196   4.597   5.146   7.422 -0.1253  0.1331 -0.4418
  145DOPC    C117197   4.551   5.096   7.293  0.3462  0.1950  0.7259
  145DOPC    HA17198   4.452   5.047   7.285 -0.2659  1.6144 -1.2164
  145DOPC    HB17199   4.612   5.008   7.261 -2.7384 -2.0723  0.6253
  145DOPC    C217200   4.545   5.213   7.189 -0.0717  0.5794  0.0898
  145DOPC    HS17201   4.523   5.167   7.090  1.8950  2.4194 -1.3173
  145DOPC   O2117202   4.671   5.285   7.179  0.0085  0.1751 -0.3996
  145DOPC   C2117203   4.771   5.223   7.125 -0.0219  0.0452  0.4023
  145DOPC   O2217204   4.759   5.109   7.077  0.3146  0.1730 -0.5169
  145DOPC   C2217205   4.889   5.310   7.121 -0.1901 -0.0842 -0.0013
  145DOPC   H2R17206   4.976   5.248   7.091 -0.9254 -1.1066 -0.0596
  145DOPC   H2S17207   4.916   5.347   7.222 -1.7690 -1.1232  0.8475
  145DOPC    C317208   4.437   5.315   7.222  0.0783 -0.7603  0.2979
  145DOPC    HX17209   4.477   5.390   7.293  1.6882  0.0620 -1.3980
  145DOPC    HY17210   4.345   5.267   7.262 -0.2489  0.6781  1.3179
  145DOPC   O3117211   4.405   5.376   7.098 -0.2964  0.2319  0.0923
  145DOPC   C3117212   4.425   5.503   7.074  0.3642  0.6495 -0.3121
  145DOPC   O3217213   4.485   5.582   7.139 -0.7574 -0.1075 -0.2825
  145DOPC   C3217214   4.342   5.541   6.946 -0.3451  0.3097 -0.0145
  145DOPC   H2X17215   4.324   5.448   6.889  0.1796  0.7632 -0.9397
  145DOPC   H2Y17216   4.239   5.572   6.974 -0.4992 -1.2967  1.3254
  145DOPC   C2317217   4.867   5.433   7.034 -0.2533 -0.6273 -0.2228
  145DOPC   H3R17218   4.801   5.502   7.090  0.4451 -1.4173  1.6498
  145DOPC   H3S17219   4.811   5.411   6.941 -0.3255 -1.4295  0.0081
  145DOPC   C2417220   4.994   5.518   7.025 -0.0864  0.0551 -0.3477
  145DOPC   H4R17221   5.028   5.548   7.127  0.5585  1.7459 -1.0197
  145DOPC   H4S17222   4.972   5.617   6.979  0.8179 -0.5112 -2.0484
  145DOPC   C2517223   5.106   5.449   6.950  0.1300  0.1305 -0.5375
  145DOPC   H5R17224   5.155   5.370   7.011  0.5972 -0.4720 -1.6443
  145DOPC   H5S17225   5.180   5.529   6.931  0.5641  0.3040  1.6604
  145DOPC   C2617226   5.066   5.390   6.820  0.1189 -0.2515  0.0230
  145DOPC   H6R17227   4.986   5.442   6.762  0.9018 -0.6394 -1.4457
  145DOPC   H6S17228   5.028   5.286   6.829  1.4897 -0.6450  1.7605
  145DOPC   C2717229   5.183   5.389   6.717 -0.1867 -0.2610  0.3812
  145DOPC   H7R17230   5.281   5.362   6.761  0.9824  0.1839 -1.8112
  145DOPC   H7S17231   5.200   5.494   6.683 -0.5553  0.1727  1.4714
  145DOPC   C2817232   5.162   5.304   6.592  0.2234  0.6609  0.4559
  145DOPC   H8R17233   5.250   5.317   6.525 -0.6114 -1.3019 -1.1192
  145DOPC   H8S17234   5.068   5.341   6.545  1.5084  0.4661 -2.5382
  145DOPC   C2917235   5.139   5.160   6.606 -0.0389  0.0005 -0.0228
  145DOPC   H9R17236   5.121   5.132   6.711  2.8597  1.6727  1.0558
  145DOPC  C21017237   5.156   5.059   6.519  0.1594  0.2355 -0.1333
  145DOPC  H10R17238   5.154   4.958   6.562 -3.2097  0.6258  0.9324
  145DOPC  C21117239   5.220   5.070   6.382  0.0742  0.9852  0.1375
  145DOPC  H11R17240   5.245   5.176   6.362  1.3490  1.0429  1.8437
  145DOPC  H11S17241   5.148   5.045   6.301  0.2271 -0.0173  0.2878
  145DOPC  C21217242   5.350   4.984   6.364 -0.0264  0.2329  0.0322
  145DOPC  H12R17243   5.414   5.002   6.454  1.0318 -0.4611 -0.5620
  145DOPC  H12S17244   5.404   5.013   6.272  1.6081 -2.1569  0.1379
  145DOPC  C21317245   5.329   4.828   6.353  0.0131 -0.3250 -0.1219
  145DOPC  H13R17246   5.271   4.810   6.260 -0.2318  1.8363 -0.4413
  145DOPC  H13S17247   5.262   4.789   6.433 -1.5949  0.7458 -0.8685
  145DOPC  C21417248   5.455   4.746   6.356 -0.3385 -0.5184  0.1788
  145DOPC  H14R17249   5.523   4.783   6.276 -0.2160 -1.8444 -0.3583
  145DOPC  H14S17250   5.436   4.642   6.323 -0.1254 -0.1393 -1.1907
  145DOPC  C21517251   5.521   4.739   6.496  0.1806 -0.4609  0.0797
  145DOPC  H15R17252   5.461   4.683   6.572  2.4299 -1.3107  1.3255
  145DOPC  H15S17253   5.531   4.844   6.531  0.7221  0.0575 -1.5545
  145DOPC  C21617254   5.663   4.680   6.483  0.5839 -1.0143  0.1320
  145DOPC  H16R17255   5.723   4.726   6.401  0.1654 -1.2702 -0.3175
  145DOPC  H16S17256   5.655   4.572   6.457  2.3515 -1.3083  0.6309
  145DOPC  C21717257   5.744   4.702   6.612  0.0884  0.1658 -0.3709
  145DOPC  H17R17258   5.824   4.626   6.629 -0.9294 -0.7459  0.4562
  145DOPC  H17S17259   5.666   4.678   6.687 -0.9378  0.9911 -1.1491
  145DOPC  C21817260   5.788   4.850   6.630  0.5405  0.5594  0.1063
  145DOPC  H18R17261   5.839   4.869   6.727 -1.2784 -2.0455  1.6842
  145DOPC  H18S17262   5.702   4.921   6.624 -0.1252 -0.0371  1.8950
  145DOPC  H18T17263   5.854   4.883   6.547  0.2178  2.5225  0.5833
  145DOPC   C3317264   4.424   5.639   6.855  0.0748  0.7130  0.0269
  145DOPC   H3X17265   4.443   5.734   6.910 -0.1917 -0.3931  2.1093
  145DOPC   H3Y17266   4.357   5.671   6.771  2.1537  1.4077 -1.4405
  145DOPC   C3417267   4.540   5.562   6.782 -0.1551 -0.3164 -0.0439
  145DOPC   H4X17268   4.514   5.460   6.747 -0.5699  0.4151 -2.0329
  145DOPC   H4Y17269   4.623   5.551   6.856 -0.8309  0.2115  0.8117
  145DOPC   C3517270   4.608   5.642   6.671 -0.0425  0.3347  0.0815
  145DOPC   H5X17271   4.615   5.752   6.689  0.8240  0.4281 -0.7280
  145DOPC   H5Y17272   4.546   5.625   6.580 -0.3527  0.2978  0.2978
  145DOPC   C3617273   4.734   5.575   6.617  0.3905  0.5167 -0.1586
  145DOPC   H6X17274   4.802   5.556   6.702  0.4194  1.1957 -0.0303
  145DOPC   H6Y17275   4.713   5.473   6.577 -3.2703  1.5002 -1.2144
  145DOPC   C3717276   4.802   5.662   6.517 -0.1156 -0.0762  0.4479
  145DOPC   H7X17277   4.738   5.684   6.429  0.3859  1.2157  0.3883
  145DOPC   H7Y17278   4.816   5.760   6.568  0.5144 -0.1930  0.5059
  145DOPC   C3817279   4.938   5.614   6.461  0.3846 -0.5865  0.7337
  145DOPC   H8X17280   4.988   5.581   6.555  0.5196 -2.0301  0.1720
  145DOPC   H8Y17281   4.996   5.700   6.421 -0.9699  1.5766  3.1175
  145DOPC   C3917282   4.938   5.496   6.363  0.6734 -0.6028 -0.6474
  145DOPC   H9X17283   4.838   5.453   6.352  0.1649  0.5754 -0.7535
  145DOPC  C31017284   5.050   5.446   6.306 -0.5174 -0.4140  0.7882
  145DOPC  H10X17285   5.036   5.357   6.243 -1.6042 -0.8294  1.5769
  145DOPC  C31117286   5.195   5.484   6.302 -0.2165  0.1433  1.0530
  145DOPC  H11X17287   5.262   5.398   6.322 -1.5395 -1.3293 -0.4916
  145DOPC  H11Y17288   5.218   5.562   6.378  0.6571 -0.0732  1.0259
  145DOPC  C31217289   5.235   5.517   6.154 -0.2709  0.8369  0.1117
  145DOPC  H12X17290   5.164   5.594   6.118 -0.3823  0.2759 -0.8819
  145DOPC  H12Y17291   5.224   5.424   6.095 -0.2585  1.2182 -0.4959
  145DOPC  C31317292   5.383   5.555   6.138 -0.5555  0.4859 -0.1959
  145DOPC  H13X17293   5.407   5.546   6.030 -0.7231  3.0531 -0.5028
  145DOPC  H13Y17294   5.389   5.664   6.158 -0.9531  0.3949  0.4591
  145DOPC  C31417295   5.483   5.462   6.217 -0.3637  0.6935  0.2575
  145DOPC  H14X17296   5.585   5.505   6.225 -0.0574 -0.0141  0.2181
  145DOPC  H14Y17297   5.455   5.460   6.325 -1.3310 -0.0810  0.0119
  145DOPC  C31517298   5.510   5.318   6.166 -0.1813  0.0851  0.2304
  145DOPC  H15X17299   5.531   5.332   6.058 -1.2078  1.0696  0.1321
  145DOPC  H15Y17300   5.415   5.261   6.161  0.2200 -0.4452 -2.5606
  145DOPC  C31617301   5.620   5.247   6.247 -0.4482  0.3628 -0.1488
  145DOPC  H16X17302   5.702   5.319   6.268  0.9351 -1.6619  1.8880
  145DOPC  H16Y17303   5.588   5.212   6.347  0.4001  0.4326  0.1538
  145DOPC  C31717304   5.676   5.116   6.178  0.0947  0.1227 -0.3268
  145DOPC  H17X17305   5.611   5.028   6.159 -0.3643  0.2465  0.6316
  145DOPC  H17Y17306   5.723   5.153   6.084 -1.2478  3.5860  0.2108
  145DOPC  C31817307   5.790   5.063   6.267  0.1819  0.4466 -0.8093
  145DOPC  H18X17308   5.875   5.134   6.280  1.9155 -1.7013  0.1575
  145DOPC  H18Y17309   5.749   5.029   6.364  2.5723  1.2329  0.5670
  145DOPC  H18Z17310   5.829   4.974   6.213 -0.6666 -0.0410 -0.6445
  146DOPC     N17311   4.115   2.553   7.588 -0.7369 -0.0617 -0.3741
  146DOPC   C1217312   4.265   2.591   7.599  0.3470  0.5517  0.3635
  146DOPC  H12A17313   4.321   2.499   7.601  0.3100  0.5287  0.3548
  146DOPC  H12B17314   4.282   2.636   7.695  0.4371 -0.9130  1.0635
  146DOPC   C1317315   4.026   2.677   7.567 -0.2936  0.0195  0.0636
  146DOPC  H13A17316   4.070   2.736   7.488 -2.8320  1.2594 -0.5109
  146DOPC  H13B17317   3.932   2.630   7.542 -0.9429  0.3158  1.8331
  146DOPC  H13C17318   4.021   2.727   7.663  0.9910  0.7461 -0.2184
  146DOPC   C1417319   4.072   2.493   7.719  0.0360  0.3384  0.7300
  146DOPC  H14A17320   4.093   2.556   7.804 -2.9180 -1.0869  2.6757
  146DOPC  H14B17321   3.964   2.484   7.715 -0.0630  1.4026 -2.3752
  146DOPC  H14C17322   4.129   2.403   7.732  0.3026  0.0663 -1.7762
  146DOPC   C1517323   4.103   2.450   7.484  0.3925 -0.1577 -0.0783
  146DOPC  H15A17324   4.001   2.426   7.461  0.0931  1.1898 -0.2121
  146DOPC  H15B17325   4.137   2.356   7.525 -0.7469 -0.8696 -0.7268
  146DOPC  H15C17326   4.154   2.481   7.394  1.7683  2.4869  1.4761
  146DOPC   C1117327   4.313   2.686   7.489 -0.1745  0.5339 -0.2615
  146DOPC  H11A17328   4.267   2.779   7.530 -1.0058 -0.6345  1.6325
  146DOPC  H11B17329   4.423   2.693   7.505 -0.1828  2.4401 -0.8635
  146DOPC     P17330   4.235   2.741   7.253 -0.2407  0.1345  0.2520
  146DOPC   O1317331   4.343   2.839   7.222  0.1358 -0.0917 -0.0874
  146DOPC   O1417332   4.105   2.792   7.297 -0.3005  0.1580  0.0384
  146DOPC   O1217333   4.287   2.639   7.353  0.3193  0.0742  0.3536
  146DOPC   O1117334   4.206   2.641   7.133 -0.1315  0.1779  0.9274
  146DOPC    C117335   4.309   2.553   7.080 -0.2285 -0.8681 -0.5666
  146DOPC    HA17336   4.248   2.474   7.031 -2.7285  0.6324 -0.0667
  146DOPC    HB17337   4.347   2.497   7.168 -0.5099  0.9532  0.7812
  146DOPC    C217338   4.409   2.614   6.983  0.0228  0.0816 -0.2583
  146DOPC    HS17339   4.446   2.711   7.023  0.9366  0.4356 -1.8933
  146DOPC   O2117340   4.329   2.639   6.864  0.3489 -1.0898  0.9858
  146DOPC   C2117341   4.369   2.749   6.798 -0.3966  0.3897 -0.0372
  146DOPC   O2217342   4.444   2.836   6.835 -0.7035 -1.0390 -0.0129
  146DOPC   C2217343   4.304   2.753   6.664  0.5061  0.2518  0.3676
  146DOPC   H2R17344   4.220   2.825   6.660  0.4799  0.2098  0.1617
  146DOPC   H2S17345   4.254   2.655   6.646  2.1177 -0.7023  0.8501
  146DOPC    C317346   4.532   2.522   6.947 -0.3579  0.3790 -0.7757
  146DOPC    HX17347   4.496   2.428   6.900  1.4879  0.6249 -2.8551
  146DOPC    HY17348   4.561   2.504   7.052 -0.2941  1.6695 -0.5530
  146DOPC   O3117349   4.622   2.591   6.859  0.1983 -0.1089 -0.4028
  146DOPC   C3117350   4.722   2.655   6.915  0.4256 -0.1378 -0.0164
  146DOPC   O3217351   4.731   2.677   7.034  0.3607 -0.6640  0.0822
  146DOPC   C3217352   4.823   2.704   6.812  0.6348  0.1726  0.6154
  146DOPC   H2X17353   4.819   2.815   6.818 -0.4345  0.2031 -0.2896
  146DOPC   H2Y17354   4.925   2.677   6.848  0.8578  0.4149  0.1809
  146DOPC   C2317355   4.396   2.789   6.547  0.1072  0.1844 -0.4591
  146DOPC   H3R17356   4.490   2.736   6.574  1.0060  1.5823 -0.7195
  146DOPC   H3S17357   4.408   2.899   6.557  0.0269 -0.0078  2.8969
  146DOPC   C2417358   4.351   2.740   6.406  0.6647 -0.6035 -0.2589
  146DOPC   H4R17359   4.314   2.636   6.411 -1.1713  0.0123 -0.1586
  146DOPC   H4S17360   4.442   2.739   6.342  2.7397 -1.6546  2.5334
  146DOPC   C2517361   4.245   2.839   6.345 -0.4749 -0.6194 -0.1614
  146DOPC   H5R17362   4.292   2.937   6.324  0.8076 -1.0195  0.7206
  146DOPC   H5S17363   4.164   2.861   6.418  0.6918 -0.2725  1.0665
  146DOPC   C2617364   4.171   2.786   6.222 -0.0914  0.2643 -0.0446
  146DOPC   H6R17365   4.096   2.709   6.252  0.3713 -0.0323  0.3660
  146DOPC   H6S17366   4.252   2.741   6.162 -0.9348  0.7606 -1.6075
  146DOPC   C2717367   4.108   2.895   6.130  0.4371 -0.0883 -0.5845
  146DOPC   H7R17368   4.184   2.960   6.082 -0.5509  0.3328 -1.6338
  146DOPC   H7S17369   4.058   2.961   6.205  0.9755 -0.9370  0.5549
  146DOPC   C2817370   4.011   2.848   6.024 -0.1558 -0.3220  0.3496
  146DOPC   H8R17371   3.972   2.936   5.968 -0.3364  0.0826  1.0922
  146DOPC   H8S17372   3.921   2.805   6.073  0.0017  1.0203  1.9299
  146DOPC   C2917373   4.081   2.758   5.930  0.1127 -0.2120 -0.0728
  146DOPC   H9R17374   4.110   2.664   5.980  1.1746  0.7039  1.1103
  146DOPC  C21017375   4.097   2.765   5.797 -0.5158  0.1301 -0.3042
  146DOPC  H10R17376   4.151   2.684   5.747 -1.5772 -1.4044  0.9236
  146DOPC  C21117377   4.043   2.875   5.711  0.1017  0.1913 -0.1906
  146DOPC  H11R17378   4.113   2.961   5.711  0.1480  0.3253 -3.9484
  146DOPC  H11S17379   3.944   2.917   5.743 -0.1601  0.4763 -1.3468
  146DOPC  C21217380   4.032   2.845   5.555 -0.1051  0.7864 -0.7572
  146DOPC  H12R17381   3.926   2.825   5.527 -0.1453  1.5627 -1.1842
  146DOPC  H12S17382   4.097   2.759   5.530 -0.2300  0.4643 -0.0082
  146DOPC  C21317383   4.078   2.964   5.464 -0.0482  0.3199  0.6164
  146DOPC  H13R17384   4.036   3.066   5.478  0.0508  0.6638 -1.2494
  146DOPC  H13S17385   4.044   2.940   5.360 -0.9196  0.2571  0.9052
  146DOPC  C21417386   4.226   2.983   5.471 -0.3939 -0.3994  0.0599
  146DOPC  H14R17387   4.277   2.885   5.476  0.3337  0.0233  3.3923
  146DOPC  H14S17388   4.245   3.033   5.569  1.2098  0.5776 -0.7038
  146DOPC  C21517389   4.289   3.079   5.368  0.1272  0.3635 -0.1722
  146DOPC  H15R17390   4.398   3.088   5.389  0.0250 -2.2991  1.9683
  146DOPC  H15S17391   4.252   3.180   5.398 -0.3568 -0.2956  1.6185
  146DOPC  C21617392   4.250   3.051   5.224 -0.7377 -0.6102  0.4246
  146DOPC  H16R17393   4.141   3.045   5.200 -0.8747 -3.4023  1.4034
  146DOPC  H16S17394   4.296   2.953   5.198  1.9419  0.3916  1.0890
  146DOPC  C21717395   4.316   3.156   5.135 -0.0895 -0.5349 -0.1605
  146DOPC  H17R17396   4.423   3.172   5.159 -0.0052 -0.7806 -0.3615
  146DOPC  H17S17397   4.259   3.249   5.157  0.1585 -0.4659  0.2050
  146DOPC  C21817398   4.299   3.126   4.986 -0.4418  0.2783  0.3348
  146DOPC  H18R17399   4.351   3.031   4.961  0.3167  0.8780 -0.3815
  146DOPC  H18S17400   4.347   3.204   4.925 -1.4403 -0.1238 -1.0163
  146DOPC  H18T17401   4.192   3.128   4.955 -0.2992  1.2961 -0.0947
  146DOPC   C3317402   4.805   2.645   6.663 -0.1871  1.0049  0.2839
  146DOPC   H3X17403   4.708   2.681   6.624 -0.0164 -0.2802 -1.4679
  146DOPC   H3Y17404   4.796   2.534   6.662 -2.1029  1.0013 -4.3149
  146DOPC   C3417405   4.920   2.685   6.574  0.6530 -0.1889 -0.3722
  146DOPC   H4X17406   5.010   2.626   6.602  0.0686  0.4087  3.1759
  146DOPC   H4Y17407   4.942   2.792   6.596  0.1122 -0.0867 -0.3012
  146DOPC   C3517408   4.863   2.665   6.431 -0.4054 -0.1598 -0.0342
  146DOPC   H5X17409   4.768   2.723   6.423 -1.4609 -1.6598  1.1731
  146DOPC   H5Y17410   4.847   2.558   6.409  2.2089 -0.6743  0.2257
  146DOPC   C3617411   4.959   2.712   6.328  0.4748 -0.4047  0.4933
  146DOPC   H6X17412   5.011   2.802   6.365  1.2162 -0.0919 -1.1872
  146DOPC   H6Y17413   5.051   2.650   6.316  1.2445  0.6746  0.6291
  146DOPC   C3717414   4.895   2.741   6.191  0.7718  0.0844 -0.2353
  146DOPC   H7X17415   4.844   2.647   6.163 -1.0289  1.3266 -1.2966
  146DOPC   H7Y17416   4.814   2.815   6.204  1.2567  0.8377 -1.3984
  146DOPC   C3817417   4.988   2.782   6.084 -0.1472  0.0268  1.0338
  146DOPC   H8X17418   5.042   2.692   6.050  0.1997  0.8365 -0.6477
  146DOPC   H8Y17419   5.054   2.862   6.123 -2.2149  0.9138  2.9844
  146DOPC   C3917420   4.910   2.830   5.962  0.0047 -0.0822  0.2035
  146DOPC   H9X17421   4.860   2.926   5.979  0.0688 -0.4443  3.0109
  146DOPC  C31017422   4.917   2.780   5.831  0.0112  0.0268 -0.5043
  146DOPC  H10X17423   4.838   2.812   5.761 -0.4741  2.1673  0.9245
  146DOPC  C31117424   4.994   2.661   5.783 -0.4089 -0.6351  0.1594
  146DOPC  H11X17425   5.085   2.640   5.844 -0.0743  0.0556 -0.0885
  146DOPC  H11Y17426   5.032   2.689   5.683  1.1236  0.3218  0.9679
  146DOPC  C31217427   4.908   2.534   5.771 -0.2189 -0.3910 -0.4194
  146DOPC  H12X17428   4.837   2.549   5.687 -0.8382  0.3580  0.2196
  146DOPC  H12Y17429   4.851   2.520   5.866  1.0152 -0.4516  0.3366
  146DOPC  C31317430   5.001   2.412   5.746  0.2690  0.1985  0.3057
  146DOPC  H13X17431   5.078   2.424   5.667 -0.6979 -1.9131 -1.0542
  146DOPC  H13Y17432   5.058   2.403   5.840 -0.6486  1.4355  1.0077
  146DOPC  C31417433   4.930   2.275   5.714  0.8241 -0.4943  0.9863
  146DOPC  H14X17434   4.881   2.298   5.616  1.4105 -1.0962  0.5414
  146DOPC  H14Y17435   5.006   2.196   5.697  0.0793 -1.3341  1.4732
  146DOPC  C31517436   4.823   2.230   5.812  0.3016 -0.0240 -0.0384
  146DOPC  H15X17437   4.738   2.298   5.789  0.8524  1.6931  2.5754
  146DOPC  H15Y17438   4.863   2.254   5.912 -1.5639 -1.1820  1.0461
  146DOPC  C31617439   4.777   2.090   5.796  0.4463  0.5588  0.0050
  146DOPC  H16X17440   4.749   2.067   5.692  0.3119 -0.4655  0.2533
  146DOPC  H16Y17441   4.856   2.018   5.826  0.8386  0.8092 -0.4251
  146DOPC  C31717442   4.655   2.070   5.888  0.3905  0.2394 -0.0558
  146DOPC  H17X17443   4.687   2.097   5.991 -0.2554  1.5195 -0.1624
  146DOPC  H17Y17444   4.585   2.154   5.868  0.8434  0.4415 -0.8203
  146DOPC  C31817445   4.589   1.940   5.895  0.3168 -0.9125  0.0917
  146DOPC  H18X17446   4.497   1.956   5.956 -0.3375  0.5095 -1.1892
  146DOPC  H18Y17447   4.540   1.915   5.798  1.3434  1.2017 -1.0377
  146DOPC  H18Z17448   4.658   1.861   5.933  3.6476  1.7301  0.0001
  147DOPC     N17449   0.739   3.398   8.043  0.2780  0.4732  0.5069
  147DOPC   C1217450   0.784   3.402   7.892 -0.3262  0.1159 -0.5776
  147DOPC  H12A17451   0.766   3.302   7.856 -0.8656 -0.8639  2.1470
  147DOPC  H12B17452   0.890   3.421   7.881 -0.3643 -1.0938 -4.3677
  147DOPC   C1317453   0.773   3.524   8.114 -0.8657 -0.6817  0.2653
  147DOPC  H13A17454   0.727   3.609   8.064  0.1887  0.5051  1.2341
  147DOPC  H13B17455   0.739   3.530   8.217 -0.2049  0.5130  0.4312
  147DOPC  H13C17456   0.877   3.551   8.106 -1.0837 -0.0840 -0.7743
  147DOPC   C1417457   0.808   3.281   8.107 -0.2991  0.0320  0.3255
  147DOPC  H14A17458   0.912   3.280   8.078 -0.3519 -0.2861  0.1429
  147DOPC  H14B17459   0.789   3.291   8.213 -1.4815  0.2536  0.1144
  147DOPC  H14C17460   0.768   3.185   8.080 -0.5960 -0.8188  3.3401
  147DOPC   C1517461   0.590   3.382   8.046 -0.3303  0.5635 -0.4925
  147DOPC  H15A17462   0.537   3.471   8.017 -2.2034  0.3307  1.9645
  147DOPC  H15B17463   0.559   3.362   8.147  0.2221  0.1795 -0.3920
  147DOPC  H15C17464   0.564   3.296   7.986 -1.2911  0.9090 -0.5773
  147DOPC   C1117465   0.697   3.491   7.804  0.1143  0.2395 -0.6205
  147DOPC  H11A17466   0.669   3.587   7.852 -2.0089 -0.1654 -0.9422
  147DOPC  H11B17467   0.763   3.515   7.718  0.0633 -0.5984 -0.9032
  147DOPC     P17468   0.598   3.298   7.660  0.2489 -0.0295  0.0598
  147DOPC   O1317469   0.481   3.215   7.688  0.3686 -0.0040  0.0779
  147DOPC   O1417470   0.724   3.219   7.670  0.0444 -0.2158 -0.2089
  147DOPC   O1217471   0.585   3.421   7.755 -0.2926  0.0959 -0.5163
  147DOPC   O1117472   0.588   3.363   7.516 -0.2703 -0.4333 -0.1262
  147DOPC    C117473   0.636   3.492   7.480 -0.6218 -0.4837 -0.2882
  147DOPC    HA17474   0.746   3.499   7.496 -0.7094 -0.7752  0.4726
  147DOPC    HB17475   0.573   3.566   7.534 -0.0157 -0.2874  0.1573
  147DOPC    C217476   0.609   3.522   7.325  0.6291 -0.6438 -0.4747
  147DOPC    HS17477   0.498   3.523   7.320  0.5831  0.4126  0.4932
  147DOPC   O2117478   0.657   3.418   7.245  0.1034 -0.5057 -0.8225
  147DOPC   C2117479   0.587   3.307   7.249 -0.7559  0.1728  0.4060
  147DOPC   O2217480   0.471   3.286   7.273 -0.0547 -0.6565 -0.6781
  147DOPC   C2217481   0.687   3.209   7.176  0.4245 -0.0553  0.4561
  147DOPC   H2R17482   0.634   3.112   7.161 -2.0059  1.2135  0.4602
  147DOPC   H2S17483   0.779   3.195   7.236  0.7495  0.2849  0.0403
  147DOPC    C317484   0.655   3.661   7.287  0.9648 -0.2231  0.8596
  147DOPC    HX17485   0.763   3.663   7.314  1.8556  2.2647 -2.2920
  147DOPC    HY17486   0.605   3.742   7.344  0.5320 -0.9876  1.5958
  147DOPC   O3117487   0.656   3.679   7.145  0.9223 -0.2648  0.4142
  147DOPC   C3117488   0.692   3.801   7.106  0.0085 -0.4306 -0.2076
  147DOPC   O3217489   0.716   3.892   7.178 -0.0544 -1.0882  0.3626
  147DOPC   C3217490   0.719   3.808   6.956 -0.3438  0.0284  0.4868
  147DOPC   H2X17491   0.755   3.910   6.933  0.1284 -0.0471  0.8807
  147DOPC   H2Y17492   0.809   3.748   6.932 -1.0506  0.2483 -3.2319
  147DOPC   C2317493   0.725   3.240   7.037  0.4820 -0.9194 -0.6095
  147DOPC   H3R17494   0.778   3.337   7.021 -1.9445  0.5211 -0.5138
  147DOPC   H3S17495   0.635   3.241   6.971 -1.2463  0.5581  1.5942
  147DOPC   C2417496   0.834   3.142   6.987 -0.0621  0.2680 -0.3759
  147DOPC   H4R17497   0.778   3.047   6.972  0.4091 -0.1268  0.2652
  147DOPC   H4S17498   0.911   3.138   7.067 -1.4841 -1.3443  1.0340
  147DOPC   C2517499   0.908   3.167   6.847  0.2442  0.4963 -0.0271
  147DOPC   H5R17500   0.970   3.078   6.822 -0.9976 -0.6494  0.8100
  147DOPC   H5S17501   0.968   3.259   6.862 -2.2385  2.2339 -0.1425
  147DOPC   C2617502   0.810   3.187   6.731  0.4470  0.1629 -0.8698
  147DOPC   H6R17503   0.762   3.286   6.744  0.6567  0.4324 -2.0799
  147DOPC   H6S17504   0.730   3.110   6.732 -0.4790  1.1078  0.1216
  147DOPC   C2717505   0.875   3.192   6.597 -0.0630 -0.6248 -0.5034
  147DOPC   H7R17506   0.952   3.271   6.612 -1.0087  0.0834  0.7624
  147DOPC   H7S17507   0.798   3.225   6.524  0.0936 -1.4136 -1.0370
  147DOPC   C2817508   0.943   3.061   6.537  0.3919 -0.0805 -0.1550
  147DOPC   H8R17509   0.863   2.984   6.540 -1.2584  1.6025  0.8009
  147DOPC   H8S17510   1.014   3.024   6.614 -0.7583  0.9471  1.4769
  147DOPC   C2917511   1.006   3.091   6.405  0.6730  0.1823  0.0729
  147DOPC   H9R17512   1.075   3.177   6.403 -2.1610  2.6031 -0.5974
  147DOPC  C21017513   0.965   3.051   6.280  0.1026 -0.1833 -0.4670
  147DOPC  H10R17514   1.026   3.090   6.197  2.9670 -0.4300  1.3949
  147DOPC  C21117515   0.853   2.961   6.248 -0.6366  0.3953 -0.3704
  147DOPC  H11R17516   0.774   3.018   6.194 -1.4008 -1.0516 -0.8345
  147DOPC  H11S17517   0.800   2.921   6.337 -2.3304  1.2003 -0.9788
  147DOPC  C21217518   0.881   2.847   6.151 -0.9776  0.1588  0.0748
  147DOPC  H12R17519   0.958   2.782   6.198 -1.3331 -2.3294 -2.5446
  147DOPC  H12S17520   0.933   2.894   6.065  0.3031 -0.4477  0.4975
  147DOPC  C21317521   0.757   2.753   6.119  0.1643 -0.2045 -0.4559
  147DOPC  H13R17522   0.670   2.804   6.072 -0.9788 -0.3895  1.3548
  147DOPC  H13S17523   0.723   2.729   6.222  2.6795  1.4021  0.8575
  147DOPC  C21417524   0.794   2.628   6.043 -0.1121  0.3626  0.0966
  147DOPC  H14R17525   0.883   2.579   6.088 -1.4544 -1.5931  0.7376
  147DOPC  H14S17526   0.827   2.670   5.945 -1.7555 -1.8328 -1.4773
  147DOPC  C21517527   0.685   2.522   6.034 -0.4578  0.1374  0.3880
  147DOPC  H15R17528   0.676   2.474   6.134 -1.0906 -0.1482  0.2003
  147DOPC  H15S17529   0.715   2.431   5.977 -1.1718  0.7783 -1.0806
  147DOPC  C21617530   0.550   2.572   5.982  0.0208  0.5039  0.6099
  147DOPC  H16R17531   0.573   2.637   5.895 -1.5875  0.2439 -0.0544
  147DOPC  H16S17532   0.486   2.632   6.049 -2.1064  0.2824 -1.0998
  147DOPC  C21717533   0.462   2.464   5.926  0.2217 -0.0486  0.8649
  147DOPC  H17R17534   0.519   2.418   5.843 -1.7134  2.4718 -2.0970
  147DOPC  H17S17535   0.373   2.509   5.876  0.2621  0.3809  1.1751
  147DOPC  C21817536   0.416   2.355   6.018  0.1054 -0.1444 -0.0027
  147DOPC  H18R17537   0.348   2.277   5.977 -0.3179  0.2089  0.0229
  147DOPC  H18S17538   0.362   2.404   6.102  0.6589 -0.2951  0.4444
  147DOPC  H18T17539   0.511   2.314   6.058  0.4319 -0.1382 -0.7634
  147DOPC   C3317540   0.593   3.771   6.858 -0.5626 -0.2640 -0.1492
  147DOPC   H3X17541   0.597   3.815   6.756 -1.5970 -2.1612 -1.0593
  147DOPC   H3Y17542   0.505   3.811   6.913  0.7321 -0.9920  2.6248
  147DOPC   C3417543   0.562   3.622   6.862 -1.0058  0.4387 -0.1461
  147DOPC   H4X17544   0.457   3.593   6.846 -1.1851 -0.0272  1.6071
  147DOPC   H4Y17545   0.566   3.591   6.969  2.4379  0.6557 -0.0948
  147DOPC   C3517546   0.660   3.529   6.782  0.6868 -0.1006 -0.0184
  147DOPC   H5X17547   0.589   3.451   6.748  2.1330 -1.2662 -0.5063
  147DOPC   H5Y17548   0.739   3.476   6.840  1.6275  1.6660  0.3851
  147DOPC   C3617549   0.725   3.588   6.650  0.5628 -0.0243 -0.5687
  147DOPC   H6X17550   0.784   3.672   6.693  0.4919 -0.1802 -0.1602
  147DOPC   H6Y17551   0.796   3.512   6.610 -1.5271 -1.9558 -0.8287
  147DOPC   C3717552   0.630   3.640   6.545 -0.6916  0.5973  0.1044
  147DOPC   H7X17553   0.589   3.547   6.501  0.0253  0.8916 -1.2474
  147DOPC   H7Y17554   0.545   3.694   6.592  1.4857  1.9196  2.8210
  147DOPC   C3817555   0.694   3.722   6.444 -0.3125 -0.4108 -0.5919
  147DOPC   H8X17556   0.782   3.680   6.391 -0.9317  0.0765 -2.0487
  147DOPC   H8Y17557   0.721   3.823   6.481 -1.6378 -0.9029  1.9673
  147DOPC   C3917558   0.588   3.744   6.340  0.2215  0.4845 -0.6007
  147DOPC   H9X17559   0.517   3.824   6.364  0.2695  0.3301  0.0793
  147DOPC  C31017560   0.592   3.694   6.215  0.5245 -0.7641 -0.2128
  147DOPC  H10X17561   0.511   3.713   6.143  0.5949 -0.0473 -0.1094
  147DOPC  C31117562   0.698   3.600   6.161 -0.3123  0.0876  0.0007
  147DOPC  H11X17563   0.661   3.528   6.085 -0.2519  0.0545  0.0034
  147DOPC  H11Y17564   0.731   3.537   6.246 -2.0614 -0.3548  0.3962
  147DOPC  C31217565   0.832   3.658   6.097 -0.0278 -0.3475 -0.5545
  147DOPC  H12X17566   0.886   3.712   6.178  1.6367 -2.4858 -0.1606
  147DOPC  H12Y17567   0.797   3.732   6.022 -2.2023  0.7400  1.3939
  147DOPC  C31317568   0.917   3.557   6.024 -0.0388  0.0780  0.2535
  147DOPC  H13X17569   0.950   3.486   6.102  1.1601 -0.5657 -0.8003
  147DOPC  H13Y17570   0.855   3.502   5.950 -2.3907  0.7319  1.6262
  147DOPC  C31417571   1.041   3.612   5.948  0.2350 -0.4705  0.0830
  147DOPC  H14X17572   1.114   3.660   6.016 -1.7160 -0.3181  2.1752
  147DOPC  H14Y17573   1.097   3.531   5.897  3.3258  3.1419 -2.9096
  147DOPC  C31517574   1.008   3.711   5.836  0.4517  0.5722  0.1903
  147DOPC  H15X17575   0.950   3.797   5.877 -1.7578 -1.7101  2.1208
  147DOPC  H15Y17576   0.941   3.658   5.765 -0.7963  0.1358  1.6398
  147DOPC  C31617577   1.130   3.762   5.770 -0.3704  0.4114 -0.4721
  147DOPC  H16X17578   1.209   3.794   5.842  0.9285 -0.1490 -1.6023
  147DOPC  H16Y17579   1.168   3.672   5.718 -0.4862  0.3540 -0.4590
  147DOPC  C31717580   1.127   3.882   5.681 -0.1094 -0.4623 -0.0275
  147DOPC  H17X17581   1.040   3.876   5.613 -1.2205  3.3749  0.8017
  147DOPC  H17Y17582   1.091   3.969   5.741 -0.2698 -1.1567  0.9147
  147DOPC  C31817583   1.258   3.912   5.598  0.2025 -0.3662  0.0422
  147DOPC  H18X17584   1.292   3.819   5.549  1.1674  0.6636 -1.3256
  147DOPC  H18Y17585   1.251   3.991   5.520 -2.7609 -0.1257  0.4461
  147DOPC  H18Z17586   1.340   3.939   5.669 -0.6092  2.2834  0.1027
  148DOPC     N17587   3.807   5.583   6.731  0.3440  0.2608 -0.1250
  148DOPC   C1217588   3.702   5.473   6.721 -1.2242  0.2543 -0.1874
  148DOPC  H12A17589   3.606   5.513   6.750 -1.8288 -1.0582 -0.3005
  148DOPC  H12B17590   3.727   5.391   6.786  0.7816 -0.6022 -1.9078
  148DOPC   C1317591   3.798   5.674   6.605  0.5935  0.4915 -0.2226
  148DOPC  H13A17592   3.872   5.753   6.601 -1.4105  2.4145 -0.8942
  148DOPC  H13B17593   3.811   5.612   6.517 -1.0362 -2.0138  1.1657
  148DOPC  H13C17594   3.699   5.716   6.602  0.7734  0.9573  0.2638
  148DOPC   C1417595   3.947   5.522   6.740 -0.0581 -0.6392  0.3483
  148DOPC  H14A17596   3.964   5.452   6.821  0.9488  1.6170  2.1750
  148DOPC  H14B17597   3.970   5.475   6.645  0.9390 -0.5455  0.5332
  148DOPC  H14C17598   4.019   5.603   6.741  0.4405 -1.0136 -1.4084
  148DOPC   C1517599   3.781   5.669   6.849 -0.3044  0.2663 -0.2958
  148DOPC  H15A17600   3.684   5.714   6.836 -0.8786 -1.3377 -1.9266
  148DOPC  H15B17601   3.847   5.754   6.854 -1.7807  1.3932  1.0342
  148DOPC  H15C17602   3.797   5.616   6.942  0.9048  0.8854 -0.1386
  148DOPC   C1117603   3.684   5.415   6.583 -0.4114  0.2312  0.5209
  148DOPC  H11A17604   3.634   5.489   6.517  0.9533  0.1091 -0.6744
  148DOPC  H11B17605   3.778   5.385   6.534 -1.9385 -0.1104 -2.4028
  148DOPC     P17606   3.648   5.160   6.662 -0.2926 -0.0791 -0.4538
  148DOPC   O1317607   3.526   5.098   6.723 -0.0534 -0.0566  0.1676
  148DOPC   O1417608   3.762   5.172   6.754  0.9554  0.0972  0.6093
  148DOPC   O1217609   3.604   5.297   6.596 -0.2821 -0.0315 -0.3466
  148DOPC   O1117610   3.678   5.060   6.546  0.1470  0.4663  0.4348
  148DOPC    C117611   3.800   5.002   6.512 -0.1395 -0.5458 -0.1441
  148DOPC    HA17612   3.791   4.920   6.438 -1.5702  0.5026 -1.2034
  148DOPC    HB17613   3.850   4.955   6.599 -0.4891 -1.1369 -0.2537
  148DOPC    C217614   3.898   5.104   6.441 -0.0742  1.0259  0.1834
  148DOPC    HS17615   3.898   5.204   6.490 -0.1138  1.1837 -0.1382
  148DOPC   O2117616   3.848   5.122   6.303 -0.5078  0.2340  0.0813
  148DOPC   C2117617   3.892   5.238   6.247 -0.1611 -0.0177 -0.2575
  148DOPC   O2217618   3.942   5.330   6.309  0.0817  0.4817 -0.2432
  148DOPC   C2217619   3.874   5.237   6.095  0.0214 -0.3741 -0.3309
  148DOPC   H2R17620   3.770   5.260   6.063 -0.4156  0.8297  1.7861
  148DOPC   H2S17621   3.902   5.134   6.062  3.1315  0.4751 -0.6187
  148DOPC    C317622   4.041   5.044   6.447  0.3734  0.4808  0.6363
  148DOPC    HX17623   4.041   4.949   6.389 -0.3354  1.7609 -1.5641
  148DOPC    HY17624   4.066   5.010   6.550 -0.4041 -3.8432 -0.3849
  148DOPC   O3117625   4.134   5.140   6.393 -0.3755 -0.4036 -0.3454
  148DOPC   C3117626   4.181   5.225   6.484  0.1675 -0.0561 -0.2754
  148DOPC   O3217627   4.139   5.232   6.603  0.0854  0.3922  0.2016
  148DOPC   C3217628   4.281   5.322   6.413 -0.0155 -0.5905 -0.3005
  148DOPC   H2X17629   4.372   5.267   6.381  0.7071 -0.3913  1.3403
  148DOPC   H2Y17630   4.231   5.354   6.319  1.9723  0.4635 -1.0457
  148DOPC   C2317631   3.986   5.319   6.030 -0.5786  0.1981  0.4873
  148DOPC   H3R17632   3.987   5.422   6.072 -1.3618 -0.4864  2.2729
  148DOPC   H3S17633   3.959   5.327   5.923 -0.8261  4.3773  0.7083
  148DOPC   C2417634   4.126   5.257   6.034  0.0670 -0.2902  0.5085
  148DOPC   H4R17635   4.107   5.148   6.024  1.3305 -0.4977  0.2347
  148DOPC   H4S17636   4.176   5.280   6.131  2.2602 -1.7861 -0.1891
  148DOPC   C2517637   4.210   5.298   5.913 -0.1777 -0.7395  0.2584
  148DOPC   H5R17638   4.241   5.404   5.917 -1.5269 -0.3447  0.8021
  148DOPC   H5S17639   4.138   5.299   5.828  0.5572  1.2430 -0.3946
  148DOPC   C2617640   4.326   5.205   5.895 -0.3107  0.4510 -0.5098
  148DOPC   H6R17641   4.361   5.198   5.789  0.6391 -0.2390 -0.1635
  148DOPC   H6S17642   4.294   5.102   5.918  1.7713 -0.2443 -0.4517
  148DOPC   C2717643   4.451   5.240   5.986 -0.6638  0.0045 -0.1624
  148DOPC   H7R17644   4.418   5.218   6.089 -0.2359 -0.7504 -0.1767
  148DOPC   H7S17645   4.468   5.350   5.980 -0.8601  0.0257 -0.3986
  148DOPC   C2817646   4.580   5.170   5.952  0.0919 -0.4033  0.0407
  148DOPC   H8R17647   4.610   5.218   5.856 -1.3943 -2.0328 -1.2948
  148DOPC   H8S17648   4.547   5.065   5.943 -0.0673 -0.4736  1.2708
  148DOPC   C2917649   4.693   5.175   6.056 -0.5401  0.2391 -0.1037
  148DOPC   H9R17650   4.708   5.078   6.106 -0.5486  0.0961 -0.3772
  148DOPC  C21017651   4.782   5.279   6.082  0.2623  0.8709  0.3327
  148DOPC  H10R17652   4.860   5.250   6.154 -1.9869 -2.9397  1.5421
  148DOPC  C21117653   4.773   5.418   6.026  0.1761 -0.7022  0.4174
  148DOPC  H11R17654   4.749   5.499   6.098  2.7975  0.6778 -0.1207
  148DOPC  H11S17655   4.684   5.429   5.961  0.0682 -1.3686  0.4428
  148DOPC  C21217656   4.894   5.468   5.947  0.2819  0.2916 -0.0712
  148DOPC  H12R17657   4.931   5.383   5.886  0.7501  0.2781  0.2225
  148DOPC  H12S17658   4.978   5.500   6.014  1.1694 -0.4724 -0.7861
  148DOPC  C21317659   4.860   5.588   5.854  0.0549 -0.3995 -0.4564
  148DOPC  H13R17660   4.953   5.634   5.814  0.1243  0.8088  1.0253
  148DOPC  H13S17661   4.800   5.670   5.898 -0.6488  0.4922 -2.8780
  148DOPC  C21417662   4.789   5.555   5.726  0.0601 -0.6358 -0.1449
  148DOPC  H14R17663   4.716   5.472   5.741  0.2427 -0.7859 -0.0930
  148DOPC  H14S17664   4.853   5.518   5.643 -0.4629  0.2167 -0.9495
  148DOPC  C21517665   4.718   5.680   5.668 -0.1304  0.3744  0.3888
  148DOPC  H15R17666   4.631   5.707   5.732  0.7148 -0.9844  2.1947
  148DOPC  H15S17667   4.666   5.645   5.576 -2.4631  0.5144  1.5647
  148DOPC  C21617668   4.819   5.777   5.632 -0.1801 -0.6038  1.1995
  148DOPC  H16R17669   4.896   5.735   5.564 -0.4073 -0.1065  0.6237
  148DOPC  H16S17670   4.866   5.826   5.720 -1.0437  0.7609  0.9356
  148DOPC  C21717671   4.754   5.893   5.549 -0.4070 -0.7346 -0.6544
  148DOPC  H17R17672   4.661   5.933   5.594 -1.0896 -0.5547 -2.1466
  148DOPC  H17S17673   4.723   5.844   5.454  0.0084  0.0269 -1.1961
  148DOPC  C21817674   4.861   5.999   5.513  0.5648  0.2302 -0.0842
  148DOPC  H18R17675   4.937   5.954   5.445 -0.4058 -0.0424 -1.0093
  148DOPC  H18S17676   4.901   6.046   5.606 -0.0921  1.7129 -0.5316
  148DOPC  H18T17677   4.817   6.083   5.456  0.7089  0.8874  0.7465
  148DOPC   C3317678   4.308   5.448   6.488 -0.2443  0.0940 -0.3400
  148DOPC   H3X17679   4.384   5.435   6.568  2.2693  0.5430 -2.4986
  148DOPC   H3Y17680   4.209   5.478   6.527 -2.0168 -1.7292 -3.1050
  148DOPC   C3417681   4.358   5.564   6.399 -0.3978  0.1116 -0.2139
  148DOPC   H4X17682   4.373   5.655   6.462  1.7656  0.4031 -1.0582
  148DOPC   H4Y17683   4.275   5.577   6.327  0.8112 -2.2513 -2.1608
  148DOPC   C3517684   4.490   5.522   6.324  0.1761 -0.6246 -0.3292
  148DOPC   H5X17685   4.473   5.433   6.258  2.2160 -0.6517 -0.8942
  148DOPC   H5Y17686   4.571   5.499   6.396 -0.9822 -0.4879  1.0474
  148DOPC   C3617687   4.519   5.637   6.228  0.5348  0.3600 -0.0351
  148DOPC   H6X17688   4.504   5.736   6.276 -2.7533 -0.0948  0.0863
  148DOPC   H6Y17689   4.625   5.642   6.194  0.5139  2.1376  0.0796
  148DOPC   C3717690   4.422   5.631   6.113 -0.0342  0.1089 -0.1943
  148DOPC   H7X17691   4.400   5.526   6.085  1.6301 -0.6600  1.2241
  148DOPC   H7Y17692   4.329   5.690   6.129 -0.4206 -1.0419  2.1414
  148DOPC   C3817693   4.490   5.683   5.985 -0.2926  0.4103  0.1346
  148DOPC   H8X17694   4.423   5.644   5.905 -1.5357 -0.3391  1.4989
  148DOPC   H8Y17695   4.586   5.630   5.967  0.7525  1.8207  1.3213
  148DOPC   C3917696   4.507   5.832   5.956 -0.3334  0.0948 -0.4991
  148DOPC   H9X17697   4.609   5.864   5.981 -1.1883  0.9278  2.3069
  148DOPC  C31017698   4.424   5.919   5.899  0.1618  0.3125 -0.3454
  148DOPC  H10X17699   4.457   6.023   5.887 -0.9505  0.6870 -0.3448
  148DOPC  C31117700   4.279   5.898   5.870 -0.0285  0.0699  0.6110
  148DOPC  H11X17701   4.217   5.976   5.919 -0.1859 -0.4548  1.2655
  148DOPC  H11Y17702   4.242   5.798   5.901  0.3881 -0.4106 -0.4190
  148DOPC  C31217703   4.249   5.912   5.715 -0.0221  0.0912 -0.2626
  148DOPC  H12X17704   4.261   6.021   5.696 -0.0773 -0.0076 -0.8764
  148DOPC  H12Y17705   4.142   5.893   5.695  0.4534  0.6811 -4.2570
  148DOPC  C31317706   4.327   5.818   5.619  0.0726  0.8841 -0.6334
  148DOPC  H13X17707   4.434   5.844   5.627 -0.4008  3.1244 -0.8457
  148DOPC  H13Y17708   4.324   5.714   5.658  0.8268  1.9304  2.5342
  148DOPC  C31417709   4.286   5.809   5.473  0.8331  0.3739  0.0269
  148DOPC  H14X17710   4.181   5.777   5.460  1.2346 -0.6675 -0.8152
  148DOPC  H14Y17711   4.312   5.906   5.425 -0.2470  0.1643 -1.0217
  148DOPC  C31517712   4.359   5.696   5.400  0.2173  0.1557  0.4947
  148DOPC  H15X17713   4.325   5.605   5.453 -2.1694  0.6485 -0.0851
  148DOPC  H15Y17714   4.470   5.700   5.398  0.3076 -1.4997  0.5990
  148DOPC  C31617715   4.325   5.685   5.245 -0.3047  0.0765 -0.1290
  148DOPC  H16X17716   4.220   5.711   5.219  0.1687  1.4247 -0.8341
  148DOPC  H16Y17717   4.389   5.758   5.190  1.0049 -1.2261 -0.3961
  148DOPC  C31717718   4.378   5.545   5.193  0.1124 -0.2400  0.3358
  148DOPC  H17X17719   4.370   5.543   5.082 -1.0371  0.7155  0.3795
  148DOPC  H17Y17720   4.488   5.540   5.213  0.0836 -1.2968  0.2504
  148DOPC  C31817721   4.308   5.421   5.254 -0.2552 -0.6676  0.3161
  148DOPC  H18X17722   4.202   5.424   5.222 -0.3643 -1.4845  0.5789
  148DOPC  H18Y17723   4.353   5.330   5.208 -1.3438 -0.3521 -1.4747
  148DOPC  H18Z17724   4.302   5.417   5.365  1.0646  2.0965  0.5719
  149DOPC     N17725   0.936   1.859   7.550  0.0251  0.3314 -0.7289
  149DOPC   C1217726   0.980   1.852   7.401 -0.5904  0.0599 -0.2079
  149DOPC  H12A17727   1.001   1.950   7.360  0.1613  0.2921  0.7020
  149DOPC  H12B17728   0.898   1.817   7.341  1.0687 -1.6622 -1.5776
  149DOPC   C1317729   0.822   1.951   7.562 -0.1164 -0.6759  0.4106
  149DOPC  H13A17730   0.849   2.040   7.507  0.3117 -0.9489  0.1762
  149DOPC  H13B17731   0.737   1.913   7.507 -0.2120 -0.4001  0.3665
  149DOPC  H13C17732   0.805   1.980   7.665 -1.1364  0.8948 -0.1765
  149DOPC   C1417733   1.051   1.914   7.632 -0.4681 -0.7852 -0.3829
  149DOPC  H14A17734   1.125   1.836   7.634 -0.9021 -1.2903 -2.1253
  149DOPC  H14B17735   1.092   2.009   7.601  0.5006 -1.1961 -0.3984
  149DOPC  H14C17736   1.016   1.936   7.732  1.3555 -0.8792  0.3202
  149DOPC   C1517737   0.909   1.720   7.601 -0.0115 -0.0051 -0.1773
  149DOPC  H15A17738   0.997   1.660   7.620 -1.8280 -1.9806  3.1672
  149DOPC  H15B17739   0.846   1.666   7.532  1.6526 -2.5693  0.1547
  149DOPC  H15C17740   0.867   1.720   7.701 -0.1934 -0.3786 -0.2512
  149DOPC   C1117741   1.107   1.776   7.374 -0.0753  0.1663 -0.0164
  149DOPC  H11A17742   1.146   1.803   7.274  3.6212 -2.2441  0.5855
  149DOPC  H11B17743   1.184   1.807   7.448 -0.9767  3.7644 -0.4172
  149DOPC     P17744   1.029   1.543   7.273 -0.2056 -0.3237 -0.3519
  149DOPC   O1317745   0.883   1.559   7.298 -0.3050 -0.1229 -0.3213
  149DOPC   O1417746   1.091   1.410   7.275  0.5447 -0.0213  0.0791
  149DOPC   O1217747   1.089   1.636   7.386  0.6363  0.4872 -0.5510
  149DOPC   O1117748   1.058   1.615   7.138  0.2763 -0.3456  0.8790
  149DOPC    C117749   1.192   1.618   7.085 -0.1158 -0.1235 -0.1322
  149DOPC    HA17750   1.212   1.524   7.029 -1.0830 -0.0722 -0.5850
  149DOPC    HB17751   1.269   1.638   7.163  0.2792 -2.3718  0.1269
  149DOPC    C217752   1.209   1.728   6.981  0.2662  0.0139  1.0097
  149DOPC    HS17753   1.183   1.822   7.033 -1.6871  0.3924 -0.5458
  149DOPC   O2117754   1.120   1.701   6.869  0.4620 -0.1391 -0.2198
  149DOPC   C2117755   1.075   1.814   6.803  0.2263  0.1279  0.1087
  149DOPC   O2217756   1.119   1.923   6.829  0.7135 -0.0048 -0.5104
  149DOPC   C2217757   0.967   1.781   6.699 -0.0197  0.3739  0.0050
  149DOPC   H2R17758   0.905   1.871   6.684 -2.1203 -0.8777  0.7676
  149DOPC   H2S17759   0.908   1.692   6.731  1.0349  0.0005  0.9841
  149DOPC    C317760   1.352   1.731   6.924  0.3387  0.7807  0.2051
  149DOPC    HX17761   1.404   1.724   7.022 -0.1368  2.3789  0.6046
  149DOPC    HY17762   1.366   1.835   6.886  1.7022  0.6095  0.1981
  149DOPC   O3117763   1.390   1.633   6.825  0.2171  0.2102  0.8365
  149DOPC   C3117764   1.513   1.658   6.769  0.3723  0.5847  0.6247
  149DOPC   O3217765   1.581   1.754   6.799 -0.2738 -1.0447 -0.2324
  149DOPC   C3217766   1.556   1.549   6.671  0.3864  0.2533 -0.2614
  149DOPC   H2X17767   1.610   1.594   6.585 -0.9264 -0.1871 -1.3597
  149DOPC   H2Y17768   1.626   1.479   6.722 -0.1048 -0.8157 -1.0048
  149DOPC   C2317769   1.029   1.751   6.557 -0.1902  0.2211 -0.2237
  149DOPC   H3R17770   0.945   1.732   6.488 -1.3125  0.2280  1.0990
  149DOPC   H3S17771   1.095   1.662   6.554  0.3646  0.6510 -2.4979
  149DOPC   C2417772   1.109   1.871   6.503 -0.3653 -0.6731 -0.3264
  149DOPC   H4R17773   1.197   1.888   6.568 -2.0746 -1.2042  2.2600
  149DOPC   H4S17774   1.053   1.965   6.519  0.5494 -0.4315  1.6931
  149DOPC   C2517775   1.148   1.847   6.361 -0.4955 -0.5707 -0.4299
  149DOPC   H5R17776   1.053   1.836   6.305 -0.5271 -1.4727 -0.2150
  149DOPC   H5S17777   1.205   1.752   6.350  1.1890  0.3602 -0.0387
  149DOPC   C2617778   1.231   1.961   6.292 -0.1823 -0.1385  0.9172
  149DOPC   H6R17779   1.314   1.994   6.358 -0.2254  1.5226  0.2029
  149DOPC   H6S17780   1.171   2.053   6.274  0.4003 -0.1908 -1.7872
  149DOPC   C2717781   1.272   1.928   6.148 -0.0295  0.2257 -0.7168
  149DOPC   H7R17782   1.184   1.910   6.083  0.1066  1.2048 -1.1887
  149DOPC   H7S17783   1.331   1.834   6.145 -0.2545  0.0932 -1.0145
  149DOPC   C2817784   1.358   2.028   6.069  0.3795  0.3729  0.0951
  149DOPC   H8R17785   1.368   1.998   5.963 -2.2856 -0.4275 -0.0127
  149DOPC   H8S17786   1.462   2.039   6.106  0.0688 -1.4960  1.6666
  149DOPC   C2917787   1.299   2.170   6.071  0.0231  1.1460  0.5373
  149DOPC   H9R17788   1.328   2.234   6.155 -2.1315 -0.6812  2.8177
  149DOPC  C21017789   1.223   2.221   5.973 -0.0008 -0.1966  0.1819
  149DOPC  H10R17790   1.191   2.327   5.973 -1.8773 -0.6735 -1.9049
  149DOPC  C21117791   1.181   2.152   5.849 -0.0046  0.3083  0.7841
  149DOPC  H11R17792   1.208   2.045   5.844 -0.9828  0.0981 -0.7968
  149DOPC  H11S17793   1.221   2.203   5.759 -0.9345 -0.6519 -0.2044
  149DOPC  C21217794   1.033   2.140   5.821  0.7346  0.2616 -0.2780
  149DOPC  H12R17795   0.986   2.061   5.883  0.3436  0.6712 -0.0459
  149DOPC  H12S17796   1.024   2.102   5.717  2.1396  1.7676 -0.9836
  149DOPC  C21317797   0.964   2.274   5.819  0.3271  0.7172 -0.1925
  149DOPC  H13R17798   1.035   2.352   5.784  2.4182 -1.1003 -0.2975
  149DOPC  H13S17799   0.944   2.284   5.928  0.0470 -0.9423 -0.0547
  149DOPC  C21417800   0.831   2.267   5.747 -0.0916 -0.2227 -0.4693
  149DOPC  H14R17801   0.860   2.270   5.640 -1.1897 -1.0284 -0.7997
  149DOPC  H14S17802   0.784   2.365   5.771 -0.5584 -0.9326  1.7551
  149DOPC  C21517803   0.738   2.153   5.781 -0.3732 -0.5038  0.2815
  149DOPC  H15R17804   0.698   2.167   5.884 -0.6133  2.0351 -0.1034
  149DOPC  H15S17805   0.793   2.057   5.769 -0.1989 -0.2505 -1.2033
  149DOPC  C21617806   0.615   2.147   5.682 -0.3570 -0.0652 -0.4187
  149DOPC  H16R17807   0.657   2.176   5.583  0.8403 -0.9216 -0.1892
  149DOPC  H16S17808   0.543   2.222   5.720  1.7343  1.1428  1.4220
  149DOPC  C21717809   0.535   2.012   5.691  0.6131 -0.2888  0.1969
  149DOPC  H17R17810   0.601   1.949   5.753  2.2910  0.6156 -0.5947
  149DOPC  H17S17811   0.529   1.958   5.594 -0.9625 -0.0857  0.1467
  149DOPC  C21817812   0.399   2.026   5.757 -0.1385  0.6054 -0.1490
  149DOPC  H18R17813   0.420   2.093   5.843  2.7723 -0.1958 -0.1434
  149DOPC  H18S17814   0.366   1.929   5.802  0.1558  0.6900  0.2531
  149DOPC  H18T17815   0.329   2.065   5.680  0.2414  0.9713 -0.3094
  149DOPC   C3317816   1.443   1.462   6.605  0.8309  0.7100 -0.0857
  149DOPC   H3X17817   1.353   1.466   6.670  1.2894  4.5354  0.5715
  149DOPC   H3Y17818   1.487   1.360   6.607  0.8313  0.6511 -1.9158
  149DOPC   C3417819   1.412   1.502   6.470 -0.0415  0.2134  0.0904
  149DOPC   H4X17820   1.507   1.498   6.412 -0.4388  1.7612 -0.6929
  149DOPC   H4Y17821   1.376   1.607   6.468  1.9104  0.9702 -3.6328
  149DOPC   C3517822   1.323   1.399   6.395  0.4284 -0.4166 -0.0565
  149DOPC   H5X17823   1.226   1.391   6.448  0.7133 -0.9065  0.3944
  149DOPC   H5Y17824   1.362   1.295   6.387 -1.0994 -1.0033 -0.1606
  149DOPC   C3617825   1.308   1.452   6.246 -0.1311 -0.4115 -0.1523
  149DOPC   H6X17826   1.285   1.560   6.249  1.1521 -0.1391  2.9085
  149DOPC   H6Y17827   1.407   1.456   6.195  1.1147 -2.4114  1.9024
  149DOPC   C3717828   1.226   1.365   6.153  0.2787  0.2713 -0.0889
  149DOPC   H7X17829   1.275   1.266   6.155 -1.9358 -0.8939 -0.3110
  149DOPC   H7Y17830   1.129   1.333   6.198 -1.1030  1.9380 -1.6952
  149DOPC   C3817831   1.209   1.414   6.006 -0.3691  0.3140 -0.1880
  149DOPC   H8X17832   1.147   1.505   6.019  0.1419  0.5862  0.3440
  149DOPC   H8Y17833   1.145   1.337   5.957 -2.0969  1.5477  0.0513
  149DOPC   C3917834   1.343   1.433   5.952  0.2351 -0.1804 -0.4200
  149DOPC   H9X17835   1.398   1.339   5.964 -0.5867 -0.3669  3.0302
  149DOPC  C31017836   1.377   1.538   5.878  0.9332  0.4012  0.3644
  149DOPC  H10X17837   1.484   1.526   5.852  1.6201  2.3317  2.0887
  149DOPC  C31117838   1.299   1.671   5.853 -0.1251 -0.3766  0.1080
  149DOPC  H11X17839   1.375   1.740   5.809  0.2404 -0.8532 -0.0255
  149DOPC  H11Y17840   1.265   1.713   5.950 -1.1602 -2.3683  0.6710
  149DOPC  C31217841   1.187   1.649   5.750  0.0441  1.0050  0.2295
  149DOPC  H12X17842   1.104   1.609   5.812  0.7801 -0.0067  0.5808
  149DOPC  H12Y17843   1.205   1.575   5.670 -1.8211  0.1498  0.5446
  149DOPC  C31317844   1.124   1.780   5.697 -0.1211  0.7082  0.3737
  149DOPC  H13X17845   1.029   1.762   5.642 -0.1103  1.6456  0.0339
  149DOPC  H13Y17846   1.097   1.850   5.780 -0.8595 -0.7476  1.4061
  149DOPC  C31417847   1.216   1.845   5.591  0.4745  0.0419  0.4480
  149DOPC  H14X17848   1.188   1.951   5.574  1.0080  0.4751  2.1078
  149DOPC  H14Y17849   1.319   1.846   5.633 -0.4011 -1.7749  2.8694
  149DOPC  C31517850   1.213   1.768   5.464  0.6305  0.0327  0.3297
  149DOPC  H15X17851   1.107   1.757   5.432  0.1657 -0.1295  1.8020
  149DOPC  H15Y17852   1.255   1.669   5.490 -1.6339 -1.0799  0.0265
  149DOPC  C31617853   1.294   1.847   5.355 -0.5487 -0.5421  0.4160
  149DOPC  H16X17854   1.272   1.954   5.377  1.3405 -0.0511  0.1114
  149DOPC  H16Y17855   1.404   1.839   5.363 -0.2222  2.1371 -0.3766
  149DOPC  C31717856   1.251   1.793   5.215 -0.8224  0.1189 -0.0771
  149DOPC  H17X17857   1.287   1.688   5.208 -4.5796 -1.3271  0.1143
  149DOPC  H17Y17858   1.141   1.775   5.210 -0.9602  1.0552 -0.5224
  149DOPC  C31817859   1.300   1.869   5.089 -1.0445 -0.2424 -0.4321
  149DOPC  H18X17860   1.265   1.816   4.998  0.8586 -2.0764 -0.1904
  149DOPC  H18Y17861   1.268   1.975   5.078  1.3195  0.4155 -1.8703
  149DOPC  H18Z17862   1.410   1.877   5.077 -0.6612 -0.7336  2.2715
  150DOPC     N17863   5.697   3.936   8.357 -0.2834 -0.0153  0.6014
  150DOPC   C1217864   5.824   3.935   8.268  0.0042  0.1997  0.0283
  150DOPC  H12A17865   5.891   3.860   8.307 -0.2826 -0.1644 -0.1758
  150DOPC  H12B17866   5.869   4.033   8.261  0.5089 -0.1318 -1.9120
  150DOPC   C1317867   5.639   3.807   8.372  0.1452  1.0693  0.7406
  150DOPC  H13A17868   5.600   3.772   8.278  1.1011  1.8625  0.0383
  150DOPC  H13B17869   5.712   3.731   8.396  1.0713  0.7368 -2.7012
  150DOPC  H13C17870   5.559   3.802   8.446  1.2300 -0.4451  1.8670
  150DOPC   C1417871   5.594   4.031   8.297 -0.8084 -0.3308  0.1063
  150DOPC  H14A17872   5.509   4.031   8.364 -2.0285 -1.6887 -1.3620
  150DOPC  H14B17873   5.633   4.131   8.287  0.3975 -0.8348 -0.4732
  150DOPC  H14C17874   5.565   3.998   8.198  1.1632 -0.3627 -0.5082
  150DOPC   C1517875   5.730   3.988   8.487 -0.0102  0.1130  0.3024
  150DOPC  H15A17876   5.749   4.094   8.481 -1.6696  0.4566  0.5075
  150DOPC  H15B17877   5.802   3.930   8.543 -1.6761 -1.9581  0.4357
  150DOPC  H15C17878   5.646   3.985   8.555 -0.9804 -0.3785 -0.8734
  150DOPC   C1117879   5.813   3.878   8.128  0.1115 -0.0447  0.0417
  150DOPC  H11A17880   5.911   3.887   8.076  0.4725 -1.3393  0.4530
  150DOPC  H11B17881   5.788   3.771   8.139 -1.0070  0.2718  0.7793
  150DOPC     P17882   5.751   4.071   7.971  0.0362  0.4104 -0.0481
  150DOPC   O1317883   5.790   4.169   8.071  0.2879 -0.4541  0.2666
  150DOPC   O1417884   5.643   4.099   7.879 -0.2385 -0.1808  0.0210
  150DOPC   O1217885   5.705   3.944   8.054 -0.1734 -0.9173  0.0453
  150DOPC   O1117886   5.877   4.018   7.894  0.3419  0.0128 -0.5533
  150DOPC    C117887   5.856   3.952   7.768 -0.3151 -0.1692 -0.1809
  150DOPC    HA17888   5.767   3.886   7.774  0.1818 -0.8496 -0.1671
  150DOPC    HB17889   5.943   3.885   7.753 -0.0244 -1.2804  4.7151
  150DOPC    C217890   5.851   4.066   7.659 -1.6872 -0.1100 -0.1155
  150DOPC    HS17891   5.769   4.136   7.690 -0.5372  0.8968  0.7604
  150DOPC   O2117892   5.833   4.005   7.533 -0.2080  0.2713 -0.1413
  150DOPC   C2117893   5.710   3.968   7.500 -0.0311  0.1925 -0.5326
  150DOPC   O2217894   5.613   3.989   7.571  0.0960 -0.0436  0.1683
  150DOPC   C2217895   5.709   3.885   7.375 -0.4851 -0.3805 -0.2767
  150DOPC   H2R17896   5.673   3.786   7.410  0.1776 -0.8514 -0.9056
  150DOPC   H2S17897   5.812   3.871   7.336 -1.0352 -1.2848 -1.4770
  150DOPC    C317898   5.982   4.157   7.648  0.3007  1.0231 -1.1902
  150DOPC    HX17899   6.072   4.093   7.635  0.1739  0.8597 -1.2682
  150DOPC    HY17900   6.005   4.218   7.739 -0.9516  1.2719 -1.0284
  150DOPC   O3117901   5.953   4.244   7.529  0.7131  0.1760  0.1803
  150DOPC   C3117902   6.044   4.334   7.523  0.7139 -0.4471  0.7320
  150DOPC   O3217903   6.151   4.336   7.585 -0.0948  0.3053  0.0225
  150DOPC   C3217904   6.004   4.445   7.428  0.6134  1.0675 -0.3677
  150DOPC   H2X17905   5.999   4.391   7.331 -1.7740  1.2614 -0.4044
  150DOPC   H2Y17906   5.899   4.478   7.440  0.2291  0.1940 -1.1881
  150DOPC   C2317907   5.632   3.963   7.261 -0.4599 -1.2248  0.2731
  150DOPC   H3R17908   5.692   4.049   7.226 -0.1888 -2.5475 -2.8446
  150DOPC   H3S17909   5.534   3.992   7.305  1.3584  0.7652  3.4034
  150DOPC   C2417910   5.604   3.877   7.139 -0.0505  0.6255  0.5351
  150DOPC   H4R17911   5.554   3.781   7.164  1.0967  0.4291  2.1919
  150DOPC   H4S17912   5.684   3.838   7.073  1.4335  3.2055  0.6858
  150DOPC   C2517913   5.509   3.941   7.045  0.4503  0.0787 -0.5039
  150DOPC   H5R17914   5.546   4.043   7.024  0.3178  0.0944 -0.6583
  150DOPC   H5S17915   5.414   3.952   7.100  0.8297  0.1046  0.1553
  150DOPC   C2617916   5.483   3.871   6.911 -0.0527  0.3785 -0.3094
  150DOPC   H6R17917   5.467   3.763   6.933 -2.3178  0.5111 -0.9637
  150DOPC   H6S17918   5.575   3.880   6.850  0.2799  0.8127  0.2472
  150DOPC   C2717919   5.354   3.930   6.844  0.0201  0.1966  0.3961
  150DOPC   H7R17920   5.377   4.035   6.816  0.0765 -0.1622 -1.0010
  150DOPC   H7S17921   5.270   3.923   6.917  0.5139 -1.1978  0.8483
  150DOPC   C2817922   5.318   3.862   6.711 -0.1933 -0.2434 -0.2680
  150DOPC   H8R17923   5.266   3.765   6.725  0.9451 -1.3854 -3.1303
  150DOPC   H8S17924   5.411   3.842   6.654 -0.6386 -0.0313 -1.0825
  150DOPC   C2917925   5.234   3.956   6.625 -0.3949  0.5986 -0.3928
  150DOPC   H9R17926   5.283   4.050   6.595  0.3429  0.1750 -0.5363
  150DOPC  C21017927   5.114   3.923   6.573  0.0999  0.4693  0.1537
  150DOPC  H10R17928   5.071   3.992   6.499 -0.7431  0.8822  0.9999
  150DOPC  C21117929   5.020   3.807   6.605 -0.8546 -0.5921 -0.2142
  150DOPC  H11R17930   4.915   3.843   6.601  0.1113  2.8057  1.3766
  150DOPC  H11S17931   5.032   3.794   6.715  1.2495  0.1766 -0.3037
  150DOPC  C21217932   5.052   3.684   6.516  0.1805 -0.1804  0.1242
  150DOPC  H12R17933   5.010   3.591   6.559 -0.3105 -0.5854 -1.1893
  150DOPC  H12S17934   5.163   3.678   6.519  0.1192 -1.1964  1.8756
  150DOPC  C21317935   5.017   3.709   6.365 -0.3070  0.0860  0.3304
  150DOPC  H13R17936   5.052   3.803   6.318 -2.6913  0.2984 -1.1699
  150DOPC  H13S17937   4.907   3.726   6.361 -0.1698  0.7219 -1.2275
  150DOPC  C21417938   5.058   3.596   6.270 -0.3529 -0.1029 -0.1560
  150DOPC  H14R17939   5.020   3.501   6.314 -0.5057  1.0520  2.3549
  150DOPC  H14S17940   5.168   3.584   6.282 -0.4559 -0.5093  0.4033
  150DOPC  C21517941   5.040   3.613   6.113  0.0652  0.6118  0.8257
  150DOPC  H15R17942   5.076   3.523   6.059  2.6633  3.0277 -1.8169
  150DOPC  H15S17943   5.112   3.689   6.076 -0.4429  0.5745 -0.2773
  150DOPC  C21617944   4.896   3.662   6.068 -0.3381  0.4289  0.3531
  150DOPC  H16R17945   4.887   3.765   6.108  0.7961  0.7544 -0.1848
  150DOPC  H16S17946   4.832   3.603   6.137  0.8221 -0.2379  0.8885
  150DOPC  C21717947   4.858   3.638   5.922 -0.6207  0.5005  0.6651
  150DOPC  H17R17948   4.750   3.665   5.916 -0.8746 -0.3996  1.0912
  150DOPC  H17S17949   4.864   3.531   5.892  0.3971  0.4898  0.8583
  150DOPC  C21817950   4.940   3.720   5.820 -0.6182  0.3010  0.5636
  150DOPC  H18R17951   5.044   3.682   5.823  0.0157  1.9776  0.6026
  150DOPC  H18S17952   4.928   3.826   5.852 -0.5805 -0.5208  3.5919
  150DOPC  H18T17953   4.908   3.695   5.716  1.3674 -1.3362  0.2754
  150DOPC   C3317954   6.100   4.566   7.439  0.9431  0.1722 -0.3882
  150DOPC   H3X17955   6.201   4.543   7.400  1.1904  0.9762 -0.2370
  150DOPC   H3Y17956   6.117   4.584   7.548 -0.2167 -1.4460  0.1020
  150DOPC   C3417957   6.030   4.692   7.384  0.4495  0.2991  0.5528
  150DOPC   H4X17958   5.944   4.716   7.450  0.8647 -0.8985  1.5748
  150DOPC   H4Y17959   6.007   4.672   7.278 -0.4466  2.4471  0.2987
  150DOPC   C3517960   6.123   4.815   7.383  0.0624  0.2790  0.0125
  150DOPC   H5X17961   6.145   4.861   7.482  0.5765  1.1937 -0.5150
  150DOPC   H5Y17962   6.071   4.891   7.321  2.5271  1.7263 -0.3815
  150DOPC   C3617963   6.251   4.782   7.308  0.4895  0.1063 -0.2051
  150DOPC   H6X17964   6.319   4.719   7.368 -0.5443 -1.3153 -0.4605
  150DOPC   H6Y17965   6.216   4.734   7.214 -2.5307  5.3757 -2.2543
  150DOPC   C3717966   6.337   4.901   7.268  0.4255 -0.1337  0.1800
  150DOPC   H7X17967   6.364   4.967   7.353 -0.2669 -1.7544  1.7209
  150DOPC   H7Y17968   6.429   4.855   7.226  0.6339  0.0715  0.4077
  150DOPC   C3817969   6.286   4.983   7.147 -0.5277  0.2027  0.0925
  150DOPC   H8X17970   6.247   4.912   7.071 -0.2542 -0.9971  1.0415
  150DOPC   H8Y17971   6.376   5.025   7.096 -0.8796  1.8631  0.7869
  150DOPC   C3917972   6.192   5.101   7.163 -0.4140  0.3770  0.0490
  150DOPC   H9X17973   6.169   5.125   7.268 -1.2868  0.5454 -0.1811
  150DOPC  C31017974   6.107   5.147   7.068  0.1157 -0.3384 -0.3751
  150DOPC  H10X17975   6.034   5.227   7.089  0.8358  0.2231  0.0361
  150DOPC  C31117976   6.110   5.116   6.918 -0.9420  0.1219 -0.5984
  150DOPC  H11X17977   6.014   5.063   6.899 -0.7170  0.0666 -1.6067
  150DOPC  H11Y17978   6.190   5.048   6.882 -0.9433 -1.3883  1.9735
  150DOPC  C31217979   6.110   5.234   6.823 -0.7103 -0.3962  0.0614
  150DOPC  H12X17980   6.212   5.278   6.828 -0.6436 -0.6202  0.7235
  150DOPC  H12Y17981   6.049   5.322   6.854 -0.3638  0.2245 -0.9590
  150DOPC  C31317982   6.069   5.195   6.679  0.0066  0.7627 -0.2010
  150DOPC  H13X17983   6.142   5.121   6.642 -0.2015  0.9236 -0.9402
  150DOPC  H13Y17984   5.968   5.149   6.673 -0.5660  2.1536 -2.2883
  150DOPC  C31417985   6.062   5.319   6.591 -0.4445  0.2554  0.4104
  150DOPC  H14X17986   6.007   5.405   6.633 -1.0760  1.6398 -2.8872
  150DOPC  H14Y17987   6.169   5.342   6.573 -0.2118 -1.2500 -0.3354
  150DOPC  C31517988   6.023   5.275   6.449 -0.6380 -0.3501 -0.2629
  150DOPC  H15X17989   5.915   5.247   6.441 -0.3370 -1.6288 -0.0526
  150DOPC  H15Y17990   6.066   5.177   6.421 -0.9823 -1.1442  1.8050
  150DOPC  C31617991   6.055   5.380   6.353 -0.2913 -0.1290 -0.3149
  150DOPC  H16X17992   5.986   5.463   6.380  0.5777  0.1050  1.2732
  150DOPC  H16Y17993   6.153   5.429   6.374 -1.5582  3.5497 -1.9637
  150DOPC  C31717994   6.065   5.347   6.208 -0.2965 -0.0811  0.2325
  150DOPC  H17X17995   6.137   5.264   6.197  0.6736  0.6957  0.5526
  150DOPC  H17Y17996   5.967   5.302   6.182 -0.5365  0.4086  0.2624
  150DOPC  C31817997   6.092   5.466   6.116  0.3480 -0.2731 -0.2993
  150DOPC  H18X17998   6.069   5.447   6.009 -1.5084  2.5850 -0.4886
  150DOPC  H18Y17999   6.045   5.561   6.146  1.9821  1.1477 -1.9833
  150DOPC  H18Z18000   6.198   5.497   6.130  0.6625 -0.4556 -1.9862
  151DOPC     N18001   1.087   4.221   7.761  0.0059 -0.1161  0.5304
  151DOPC   C1218002   0.978   4.176   7.657 -0.1880  0.1529 -0.2454
  151DOPC  H12A18003   0.909   4.256   7.632  1.1372  1.9816  1.5719
  151DOPC  H12B18004   0.919   4.109   7.719  0.8009  0.8783  1.5685
  151DOPC   C1318005   1.182   4.304   7.686 -0.1132  0.1547 -0.1164
  151DOPC  H13A18006   1.272   4.326   7.741 -0.2374  2.2791 -0.6907
  151DOPC  H13B18007   1.206   4.261   7.590 -0.0313 -1.0379  0.4131
  151DOPC  H13C18008   1.139   4.401   7.665  1.7512  1.0511  0.0402
  151DOPC   C1418009   1.153   4.107   7.829 -0.0897 -0.3653  0.3826
  151DOPC  H14A18010   1.206   4.043   7.759  1.2581 -0.0086  1.0418
  151DOPC  H14B18011   1.226   4.148   7.897 -0.2227  1.0635 -0.3044
  151DOPC  H14C18012   1.079   4.046   7.879  0.6307 -0.0816  1.8449
  151DOPC   C1518013   1.022   4.302   7.868  0.5632 -0.1610 -0.5645
  151DOPC  H15A18014   1.092   4.356   7.929 -1.6704  1.2452  0.8472
  151DOPC  H15B18015   0.972   4.231   7.932  0.6520  0.6008  0.3541
  151DOPC  H15C18016   0.948   4.377   7.843 -1.1849 -1.0392  1.7015
  151DOPC   C1118017   1.031   4.089   7.537  0.2771 -0.0426  0.4433
  151DOPC  H11A18018   1.086   4.010   7.592  0.6571  1.1962  1.9252
  151DOPC  H11B18019   0.949   4.039   7.482  0.2591  0.7624 -0.2916
  151DOPC     P18020   1.065   4.260   7.335 -0.3065  0.1112  0.3894
  151DOPC   O1318021   1.069   4.187   7.204 -0.5531  0.2595  0.1857
  151DOPC   O1418022   1.142   4.384   7.350 -0.1021 -0.2956 -0.5231
  151DOPC   O1218023   1.118   4.164   7.446  0.5289  0.2855 -0.1911
  151DOPC   O1118024   0.908   4.295   7.374 -0.1513 -0.6502 -0.7165
  151DOPC    C118025   0.847   4.409   7.312 -0.1007  0.2907 -0.4600
  151DOPC    HA18026   0.914   4.490   7.277  2.6209 -1.8402 -0.5449
  151DOPC    HB18027   0.780   4.447   7.391  1.0502 -0.1006  0.7410
  151DOPC    C218028   0.764   4.378   7.186  0.5415 -0.0387  0.8218
  151DOPC    HS18029   0.687   4.301   7.209  0.6268  0.1337  1.7054
  151DOPC   O2118030   0.852   4.361   7.080  0.1913  0.0764  0.2938
  151DOPC   C2118031   0.820   4.259   7.002  0.1145 -0.0282 -0.4646
  151DOPC   O2218032   0.720   4.191   7.008  0.1786  0.1775 -0.4937
  151DOPC   C2218033   0.936   4.239   6.906  0.0186 -0.6046 -0.3998
  151DOPC   H2R18034   0.999   4.160   6.952 -0.4002 -0.4379  0.4895
  151DOPC   H2S18035   1.000   4.330   6.900 -0.8333 -0.0053 -0.6583
  151DOPC    C318036   0.663   4.501   7.154 -0.0215  0.2161 -0.5604
  151DOPC    HX18037   0.728   4.582   7.116  0.4285  0.6065  0.9823
  151DOPC    HY18038   0.610   4.546   7.241 -1.0553 -0.8287 -0.6128
  151DOPC   O3118039   0.577   4.466   7.044 -0.3790 -0.4538  0.1287
  151DOPC   C3118040   0.465   4.400   7.078 -0.2988  0.6683  0.0942
  151DOPC   O3218041   0.441   4.361   7.188 -0.2154  0.0332 -0.0057
  151DOPC   C3218042   0.374   4.404   6.959  0.3317 -0.4237  0.2101
  151DOPC   H2X18043   0.274   4.394   7.005  0.2170  1.5962  0.5199
  151DOPC   H2Y18044   0.388   4.504   6.912 -1.3918  1.2136  2.8906
  151DOPC   C2318045   0.885   4.192   6.769  0.1971  0.2533 -0.5007
  151DOPC   H3R18046   0.842   4.275   6.710  1.3504  0.8585 -0.5176
  151DOPC   H3S18047   0.805   4.116   6.782  0.5323  0.0429  0.4450
  151DOPC   C2418048   0.993   4.143   6.677 -0.2699  0.0903  0.2490
  151DOPC   H4R18049   1.056   4.068   6.729 -2.8671 -1.4876  1.3352
  151DOPC   H4S18050   1.065   4.218   6.638  0.6304 -1.1482 -0.5392
  151DOPC   C2518051   0.930   4.062   6.558 -0.5479  0.5538  0.2672
  151DOPC   H5R18052   0.871   4.129   6.492 -1.8475 -1.3638 -0.6126
  151DOPC   H5S18053   0.856   3.984   6.586 -0.0063 -0.6234 -1.3596
  151DOPC   C2618054   1.031   3.981   6.460 -0.1829  0.1659  0.1125
  151DOPC   H6R18055   0.950   3.948   6.391 -0.8950  0.0819  0.9749
  151DOPC   H6S18056   1.068   3.888   6.507  0.4491 -0.1956 -1.0442
  151DOPC   C2718057   1.150   4.061   6.390 -0.5534  0.5020  0.0850
  151DOPC   H7R18058   1.223   4.095   6.466  2.5042 -1.0837 -1.9549
  151DOPC   H7S18059   1.113   4.151   6.336 -1.0763 -0.6786 -1.6326
  151DOPC   C2818060   1.233   3.970   6.292 -0.2317  0.1263 -1.0102
  151DOPC   H8R18061   1.202   3.870   6.328 -1.9888 -0.0736 -2.8654
  151DOPC   H8S18062   1.341   3.977   6.318 -0.5721  2.0654  0.0499
  151DOPC   C2918063   1.200   3.971   6.148  0.4444  0.2203  0.6017
  151DOPC   H9R18064   1.113   3.912   6.118  1.2805 -0.9220  0.3581
  151DOPC  C21018065   1.247   4.055   6.052 -0.1727  0.6757 -0.5314
  151DOPC  H10R18066   1.201   4.050   5.952 -0.5657 -0.0445 -0.3224
  151DOPC  C21118067   1.356   4.163   6.052  0.1222  0.6939 -0.5584
  151DOPC  H11R18068   1.443   4.131   6.114  0.0316  0.8483 -0.3481
  151DOPC  H11S18069   1.316   4.255   6.100  3.4917  1.1849  1.6953
  151DOPC  C21218070   1.404   4.217   5.914  0.4467 -0.3883 -0.4107
  151DOPC  H12R18071   1.458   4.131   5.869 -1.4079 -2.3922  0.9470
  151DOPC  H12S18072   1.482   4.293   5.936  0.5610 -0.5412 -0.2816
  151DOPC  C21318073   1.287   4.256   5.816 -0.1501 -0.4457 -0.1238
  151DOPC  H13R18074   1.234   4.349   5.845 -1.1505  0.1467 -3.4504
  151DOPC  H13S18075   1.214   4.173   5.814  0.6278 -1.3544  2.7935
  151DOPC  C21418076   1.349   4.271   5.682 -0.3257  0.3173  0.4716
  151DOPC  H14R18077   1.362   4.177   5.624  0.1069  0.5552  0.1753
  151DOPC  H14S18078   1.456   4.297   5.689  0.2882 -1.6668 -0.7531
  151DOPC  C21518079   1.289   4.389   5.602 -0.0343  0.0287  0.0725
  151DOPC  H15R18080   1.365   4.414   5.526  1.7081  0.6816  1.9305
  151DOPC  H15S18081   1.283   4.484   5.660 -1.0342  0.4492 -0.6831
  151DOPC  C21618082   1.154   4.375   5.543 -0.1648 -0.0603 -0.4449
  151DOPC  H16R18083   1.078   4.363   5.623 -2.6060  1.3252 -2.4142
  151DOPC  H16S18084   1.154   4.295   5.465  1.2175  1.4529 -2.1017
  151DOPC  C21718085   1.095   4.498   5.474 -0.5511 -0.3460 -0.1931
  151DOPC  H17R18086   1.175   4.541   5.409 -0.6833  0.9641  0.4887
  151DOPC  H17S18087   1.077   4.572   5.554  0.5592  0.1434 -0.3731
  151DOPC  C21818088   0.970   4.458   5.390 -0.0475 -0.1009  0.1653
  151DOPC  H18R18089   0.932   4.552   5.345  1.2606  2.2912  3.6755
  151DOPC  H18S18090   0.894   4.414   5.459  0.0464 -1.3587 -0.5082
  151DOPC  H18T18091   0.994   4.383   5.311 -0.1708  0.9935 -0.9497
  151DOPC   C3318092   0.388   4.288   6.860  0.1293 -0.2556  0.5114
  151DOPC   H3X18093   0.293   4.262   6.809  0.9470  0.6990 -1.6525
  151DOPC   H3Y18094   0.416   4.197   6.917  0.3386  0.8796  2.2898
  151DOPC   C3418095   0.501   4.312   6.762  0.0029  0.2499  0.4784
  151DOPC   H4X18096   0.596   4.315   6.819 -0.7031 -0.4697  1.7296
  151DOPC   H4Y18097   0.479   4.409   6.712  0.1377  0.0246 -0.0176
  151DOPC   C3518098   0.521   4.202   6.648  0.2141 -0.2209 -0.0232
  151DOPC   H5X18099   0.420   4.165   6.620  0.9696 -2.1406 -0.3903
  151DOPC   H5Y18100   0.579   4.120   6.696  0.2702 -1.8692 -2.6881
  151DOPC   C3618101   0.572   4.265   6.524  0.3131  0.2548 -0.0677
  151DOPC   H6X18102   0.509   4.352   6.496 -0.7136  0.6196  2.9956
  151DOPC   H6Y18103   0.669   4.316   6.543 -0.3031  0.7917  1.9318
  151DOPC   C3718104   0.590   4.154   6.409 -0.6748  0.4850 -0.4069
  151DOPC   H7X18105   0.662   4.071   6.429  1.0140  2.5349  2.8561
  151DOPC   H7Y18106   0.490   4.105   6.404 -1.1028  1.1247  1.1173
  151DOPC   C3818107   0.619   4.193   6.262 -1.0631 -0.2765  0.7648
  151DOPC   H8X18108   0.554   4.278   6.231 -1.5949 -0.7186  0.6559
  151DOPC   H8Y18109   0.592   4.116   6.187  0.2769  0.2864 -0.3465
  151DOPC   C3918110   0.770   4.222   6.241 -0.7742  0.2395 -0.7595
  151DOPC   H9X18111   0.802   4.319   6.281 -1.1726  0.4956 -1.0532
  151DOPC  C31018112   0.856   4.145   6.168 -0.6205  0.4860 -0.5399
  151DOPC  H10X18113   0.958   4.181   6.153 -1.0264  1.5312 -0.8724
  151DOPC  C31118114   0.824   4.021   6.092 -0.5554 -0.2027  0.0970
  151DOPC  H11X18115   0.728   3.979   6.129 -0.4771  1.7700  2.7751
  151DOPC  H11Y18116   0.908   3.952   6.117 -0.0304  0.8170  1.2399
  151DOPC  C31218117   0.814   4.042   5.938  0.0494  0.9188  0.3966
  151DOPC  H12X18118   0.782   3.949   5.886  1.5338  0.2670  0.5935
  151DOPC  H12Y18119   0.909   4.084   5.898 -0.5181  1.9787  0.1146
  151DOPC  C31318120   0.708   4.146   5.899  0.4335  0.1063  0.6657
  151DOPC  H13X18121   0.608   4.104   5.924 -0.1894  0.6211 -0.8452
  151DOPC  H13Y18122   0.724   4.244   5.950 -0.9624  0.7020  0.0253
  151DOPC  C31418123   0.708   4.183   5.752  0.1698 -0.3138 -0.1056
  151DOPC  H14X18124   0.807   4.231   5.735 -0.4832  1.4827  0.8120
  151DOPC  H14Y18125   0.711   4.096   5.684 -3.2353  0.5300 -1.5556
  151DOPC  C31518126   0.601   4.286   5.703 -0.5200 -0.6946  0.3323
  151DOPC  H15X18127   0.644   4.360   5.631 -0.5999 -1.9225 -1.0276
  151DOPC  H15Y18128   0.576   4.352   5.789  0.1342 -0.1907  0.1478
  151DOPC  C31618129   0.474   4.226   5.656 -0.6627  0.0451 -0.1290
  151DOPC  H16X18130   0.492   4.177   5.557  0.5987 -2.5870  1.2935
  151DOPC  H16Y18131   0.436   4.146   5.723  1.9233 -1.1020  0.0859
  151DOPC  C31718132   0.371   4.326   5.645  0.0183 -0.4690  0.8634
  151DOPC  H17X18133   0.366   4.383   5.741  1.4586 -0.9937  1.2705
  151DOPC  H17Y18134   0.390   4.397   5.562 -0.3779 -0.8507  0.4450
  151DOPC  C31818135   0.232   4.258   5.626 -0.6361  0.6105  0.1196
  151DOPC  H18X18136   0.158   4.340   5.633 -0.9328  0.2336  1.8231
  151DOPC  H18Y18137   0.232   4.198   5.533 -0.9243 -2.4078  1.9374
  151DOPC  H18Z18138   0.205   4.193   5.712  1.2913  2.8132  2.5496
  152DOPC     N18139   3.355   0.716   7.411  0.4670  0.7750  0.1572
  152DOPC   C1218140   3.273   0.737   7.279 -0.0706 -0.2633 -0.5694
  152DOPC  H12A18141   3.168   0.718   7.298  0.1465 -2.0099 -0.9324
  152DOPC  H12B18142   3.300   0.654   7.215 -0.8847  0.0025 -1.2613
  152DOPC   C1318143   3.298   0.585   7.473 -0.2084 -0.7183 -0.4949
  152DOPC  H13A18144   3.211   0.613   7.529  1.1720 -0.4105  1.6268
  152DOPC  H13B18145   3.267   0.523   7.391 -1.2012  2.0438 -2.3563
  152DOPC  H13C18146   3.361   0.542   7.550 -0.0087 -0.8937 -0.7565
  152DOPC   C1418147   3.357   0.834   7.503 -1.1165 -0.1361  1.0711
  152DOPC  H14A18148   3.388   0.925   7.453 -2.8675  0.4008  0.8926
  152DOPC  H14B18149   3.265   0.847   7.559 -2.2666  0.2170 -0.8073
  152DOPC  H14C18150   3.440   0.811   7.568 -0.9775 -2.7627  0.1025
  152DOPC   C1518151   3.494   0.685   7.360 -1.2184  0.3439 -0.1517
  152DOPC  H15A18152   3.535   0.773   7.314 -1.7794  0.1945 -0.9586
  152DOPC  H15B18153   3.490   0.617   7.276 -2.0336  0.3538 -0.1271
  152DOPC  H15C18154   3.560   0.648   7.437  2.8110  0.2319 -3.2789
  152DOPC   C1118155   3.290   0.876   7.201  0.3274 -0.2428 -0.6325
  152DOPC  H11A18156   3.397   0.886   7.177  0.3137 -1.5619 -1.3781
  152DOPC  H11B18157   3.233   0.868   7.106 -0.6202 -0.0129 -0.1018
  152DOPC     P18158   3.086   1.014   7.285 -0.0883 -0.2445 -0.3091
  152DOPC   O1318159   3.061   1.135   7.371  0.2114 -0.1159  0.4632
  152DOPC   O1418160   3.013   0.886   7.317  0.1428 -0.7440  0.1658
  152DOPC   O1218161   3.246   0.984   7.283  0.3931  0.4890  0.0541
  152DOPC   O1118162   3.062   1.051   7.133 -0.3143 -0.8161  0.3418
  152DOPC    C118163   3.101   1.187   7.091  0.6099 -0.2957 -0.4548
  152DOPC    HA18164   3.209   1.211   7.101  0.9544 -1.8572 -0.0767
  152DOPC    HB18165   3.049   1.266   7.149  2.0382 -0.8979  1.7661
  152DOPC    C218166   3.071   1.208   6.939 -0.9011  1.1604  0.6580
  152DOPC    HS18167   2.970   1.172   6.909 -0.1819  0.6737 -1.2559
  152DOPC   O2118168   3.172   1.135   6.857 -0.5443  0.1460  0.3991
  152DOPC   C2118169   3.153   1.015   6.820  0.0789  0.1659 -0.3414
  152DOPC   O2218170   3.047   0.956   6.802 -0.3669  0.0970 -0.7659
  152DOPC   C2218171   3.293   0.955   6.788 -0.0986 -0.1838 -0.2349
  152DOPC   H2R18172   3.340   0.930   6.886 -2.7397  1.2728  1.5305
  152DOPC   H2S18173   3.352   1.039   6.748 -0.4638  0.3616  0.3521
  152DOPC    C318174   3.079   1.354   6.906 -0.0711 -0.0710  0.4017
  152DOPC    HX18175   3.179   1.395   6.934 -0.1617  0.7533 -0.4100
  152DOPC    HY18176   3.011   1.414   6.971 -0.2558  1.2072 -0.9092
  152DOPC   O3118177   3.046   1.375   6.764  0.2386  0.0811 -0.2331
  152DOPC   C3118178   3.072   1.493   6.722  0.5869  0.3650  0.4904
  152DOPC   O3218179   3.106   1.587   6.797  0.3343 -0.0001  0.0379
  152DOPC   C3218180   3.047   1.484   6.575  0.2321  0.0565  0.1830
  152DOPC   H2X18181   3.081   1.382   6.547 -2.6480 -0.8825 -0.2230
  152DOPC   H2Y18182   2.937   1.476   6.559 -0.2874 -1.5838  3.7684
  152DOPC   C2318183   3.292   0.842   6.686 -0.2647 -0.3791 -0.8695
  152DOPC   H3R18184   3.200   0.781   6.701 -0.2114 -0.0867  0.7736
  152DOPC   H3S18185   3.376   0.772   6.708  0.3760  0.6521  0.0534
  152DOPC   C2418186   3.316   0.885   6.542 -0.0885  0.0924  0.0294
  152DOPC   H4R18187   3.338   0.792   6.486  0.9900 -1.9070  3.4581
  152DOPC   H4S18188   3.405   0.951   6.542  0.6231 -0.8298 -1.1881
  152DOPC   C2518189   3.209   0.965   6.473  0.3439  0.4749  0.3838
  152DOPC   H5R18190   3.198   1.057   6.535  2.6612  1.1805 -0.1798
  152DOPC   H5S18191   3.120   0.898   6.467 -0.0611  1.1634 -3.6541
  152DOPC   C2618192   3.259   1.011   6.336 -0.0487  0.0729 -0.6178
  152DOPC   H6R18193   3.272   0.924   6.268 -2.3508  0.5085 -1.6880
  152DOPC   H6S18194   3.364   1.042   6.356  0.3885 -1.5234 -0.2459
  152DOPC   C2718195   3.173   1.112   6.267 -0.5666  0.2728  0.4213
  152DOPC   H7R18196   3.218   1.150   6.172 -0.6200  1.0940  0.7174
  152DOPC   H7S18197   3.173   1.211   6.317  1.0321  1.3122 -1.4624
  152DOPC   C2818198   3.030   1.071   6.248  0.4984  0.4940 -0.3792
  152DOPC   H8R18199   2.965   1.145   6.197  0.9114 -0.2624 -2.0770
  152DOPC   H8S18200   2.972   1.064   6.342 -3.2304 -2.5224 -2.6076
  152DOPC   C2918201   3.016   0.941   6.168 -0.0042  0.2689  0.7295
  152DOPC   H9R18202   3.030   0.849   6.226 -0.6703 -0.3600 -0.0849
  152DOPC  C21018203   3.011   0.927   6.032 -0.4861  0.4304 -0.1435
  152DOPC  H10R18204   3.013   0.829   5.984 -0.3739  0.3885 -0.0522
  152DOPC  C21118205   2.982   1.039   5.934  0.4757  0.0662  0.9156
  152DOPC  H11R18206   3.039   1.133   5.950  0.2652  0.6034 -1.1968
  152DOPC  H11S18207   2.879   1.070   5.960 -0.3666  0.5413 -2.4391
  152DOPC  C21218208   2.984   1.001   5.789 -0.3876  0.1238 -0.3594
  152DOPC  H12R18209   2.903   1.058   5.738  1.1223  2.4770 -0.2952
  152DOPC  H12S18210   2.964   0.892   5.781 -1.0228  0.0420  1.8943
  152DOPC  C21318211   3.100   1.058   5.703  0.1047  1.3663 -0.2928
  152DOPC  H13R18212   3.194   1.010   5.739 -0.5718  0.9504  1.0039
  152DOPC  H13S18213   3.113   1.167   5.720 -1.2670  1.4639  0.2286
  152DOPC  C21418214   3.080   1.032   5.550  0.7953  0.6769 -0.0071
  152DOPC  H14R18215   3.008   1.113   5.526 -1.3692  0.0118  3.4113
  152DOPC  H14S18216   3.022   0.937   5.546  2.0063 -0.3321  3.1319
  152DOPC  C21518217   3.195   1.042   5.462 -0.4486 -0.0071 -0.1702
  152DOPC  H15R18218   3.279   0.977   5.494  1.2323  1.3671 -1.6172
  152DOPC  H15S18219   3.226   1.149   5.472  0.3147  0.0380 -2.5384
  152DOPC  C21618220   3.169   1.000   5.321  0.5908  0.0080 -0.4135
  152DOPC  H16R18221   3.083   1.059   5.285  2.3338  1.6045 -2.2315
  152DOPC  H16S18222   3.131   0.896   5.313 -1.6300  0.5846  1.7231
  152DOPC  C21718223   3.287   1.019   5.227  0.3407 -0.4780 -0.3054
  152DOPC  H17R18224   3.308   1.128   5.227 -0.7876 -0.2429 -0.4484
  152DOPC  H17S18225   3.250   0.995   5.125  1.2769 -1.0916 -0.5121
  152DOPC  C21818226   3.414   0.940   5.248 -0.7084 -0.5461 -0.1125
  152DOPC  H18R18227   3.448   0.955   5.353  0.4216  0.8673 -0.6487
  152DOPC  H18S18228   3.497   0.956   5.177 -3.0005  0.5228 -2.7213
  152DOPC  H18T18229   3.400   0.830   5.239  2.2307 -1.1354  1.1586
  152DOPC   C3318230   3.113   1.586   6.489 -0.4475  0.0149 -0.5945
  152DOPC   H3X18231   3.223   1.573   6.497  0.0589  4.0855  1.1616
  152DOPC   H3Y18232   3.107   1.687   6.533  0.5491 -0.0232 -0.3596
  152DOPC   C3418233   3.071   1.582   6.346 -0.4563 -0.5890  0.2468
  152DOPC   H4X18234   3.080   1.489   6.286  0.8170 -0.4624  0.2096
  152DOPC   H4Y18235   3.143   1.651   6.296 -0.2009 -0.5266  0.6880
  152DOPC   C3518236   2.930   1.645   6.323  0.0733 -0.6423 -0.3843
  152DOPC   H5X18237   2.922   1.744   6.371 -0.2060 -0.6493 -0.4150
  152DOPC   H5Y18238   2.859   1.580   6.379  1.2032 -0.0987  1.7884
  152DOPC   C3618239   2.898   1.653   6.173  0.1018  0.2467 -0.1018
  152DOPC   H6X18240   2.977   1.698   6.110 -0.3825  0.2957 -0.6780
  152DOPC   H6Y18241   2.878   1.549   6.140 -1.9343  0.5395  0.0915
  152DOPC   C3718242   2.773   1.737   6.155  0.1153  0.1917  0.0750
  152DOPC   H7X18243   2.690   1.693   6.214  0.1687  0.3784  0.2908
  152DOPC   H7Y18244   2.795   1.833   6.207  1.0094  0.3801 -0.6127
  152DOPC   C3818245   2.719   1.744   6.006 -0.5599  0.2657  0.4236
  152DOPC   H8X18246   2.691   1.642   5.971  0.4362 -0.3467  1.3498
  152DOPC   H8Y18247   2.804   1.780   5.944  1.2130  0.6192  2.9199
  152DOPC   C3918248   2.605   1.832   5.966  0.4499  0.6829  0.0928
  152DOPC   H9X18249   2.574   1.909   6.039 -0.1089  1.2803 -0.7589
  152DOPC  C31018250   2.525   1.818   5.861  0.4828 -0.0413 -0.6801
  152DOPC  H10X18251   2.450   1.898   5.853  2.0257  1.6746  0.9688
  152DOPC  C31118252   2.538   1.725   5.748 -0.4305 -0.1191 -0.4192
  152DOPC  H11X18253   2.442   1.670   5.740  0.1506 -1.1206 -0.6387
  152DOPC  H11Y18254   2.632   1.667   5.759  0.8184  1.5439 -1.6487
  152DOPC  C31218255   2.569   1.799   5.615  0.0099  0.3400  0.3283
  152DOPC  H12X18256   2.602   1.715   5.550 -1.2295  0.2777 -0.2541
  152DOPC  H12Y18257   2.661   1.860   5.625  1.7077 -1.7599 -1.4115
  152DOPC  C31318258   2.451   1.884   5.550  0.0593  0.1779 -0.5273
  152DOPC  H13X18259   2.361   1.822   5.531 -1.5716  2.2815  0.0087
  152DOPC  H13Y18260   2.415   1.961   5.621 -1.4280  0.2347 -1.3144
  152DOPC  C31418261   2.500   1.942   5.420 -0.1243  0.0561 -0.0391
  152DOPC  H14X18262   2.522   2.049   5.437  0.7432 -0.2121  0.5819
  152DOPC  H14Y18263   2.594   1.890   5.391 -0.9637  0.0154 -3.0858
  152DOPC  C31518264   2.406   1.929   5.298 -0.0083 -0.2916 -0.6177
  152DOPC  H15X18265   2.383   1.822   5.278 -1.6427 -0.0181 -0.3529
  152DOPC  H15Y18266   2.471   1.979   5.223  0.2960 -0.5709 -0.5441
  152DOPC  C31618267   2.273   2.014   5.314  0.1872 -0.2581 -0.4468
  152DOPC  H16X18268   2.226   1.973   5.406  0.0273 -0.9040 -0.8079
  152DOPC  H16Y18269   2.302   2.118   5.338 -0.6826 -0.0014 -0.4918
  152DOPC  C31718270   2.167   2.009   5.202 -0.6528 -0.3027 -0.2084
  152DOPC  H17X18271   2.219   2.035   5.107 -0.2652  2.2704  0.6135
  152DOPC  H17Y18272   2.142   1.904   5.180 -2.0110 -0.7965  3.0739
  152DOPC  C31818273   2.035   2.084   5.227  0.1987 -0.4254  1.1179
  152DOPC  H18X18274   1.976   2.037   5.309  1.1336  0.4867  2.3500
  152DOPC  H18Y18275   2.046   2.186   5.269 -0.2067 -0.1256  0.5122
  152DOPC  H18Z18276   1.970   2.099   5.138  3.1994  1.2188 -0.9655
  153DOPC     N18277   4.720   6.185   7.432  0.0103 -0.1330 -0.5256
  153DOPC   C1218278   4.835   6.105   7.371 -0.2937  0.5441 -0.4111
  153DOPC  H12A18279   4.802   6.045   7.288 -0.4394 -1.3372  0.9401
  153DOPC  H12B18280   4.869   6.031   7.442  3.2425  1.7977 -0.5837
  153DOPC   C1318281   4.669   6.284   7.330 -0.3256 -0.2195 -0.1991
  153DOPC  H13A18282   4.581   6.339   7.360 -0.7702 -0.0994 -1.6309
  153DOPC  H13B18283   4.738   6.367   7.321 -3.2667  2.7793  2.3827
  153DOPC  H13C18284   4.661   6.238   7.232  4.0227  0.7503 -1.2330
  153DOPC   C1418285   4.770   6.256   7.548 -0.2686  0.0832 -0.6060
  153DOPC  H14A18286   4.688   6.292   7.608  1.5242  1.8995  0.8931
  153DOPC  H14B18287   4.829   6.193   7.613  1.3017  0.6665 -1.4057
  153DOPC  H14C18288   4.845   6.330   7.525 -0.1169  0.0668 -0.1755
  153DOPC   C1518289   4.609   6.105   7.470 -0.1160  0.3722  0.2149
  153DOPC  H15A18290   4.528   6.160   7.515  1.1135  2.1280  0.3985
  153DOPC  H15B18291   4.642   6.029   7.539 -1.8983  2.4416  3.6298
  153DOPC  H15C18292   4.577   6.061   7.377  2.5591 -0.2161 -0.5044
  153DOPC   C1118293   4.964   6.183   7.327  0.1248  0.4947  0.5549
  153DOPC  H11A18294   5.020   6.113   7.262  0.9435  2.5869 -1.1072
  153DOPC  H11B18295   4.931   6.268   7.263  0.4525  0.5100  0.4088
  153DOPC     P18296   5.135   6.115   7.507 -0.4810  0.2722 -0.0829
  153DOPC   O1318297   5.055   5.995   7.543 -0.2865 -0.2648  0.4868
  153DOPC   O1418298   5.205   6.181   7.618  0.0475  0.1035  0.2259
  153DOPC   O1218299   5.040   6.227   7.438 -0.4570 -0.4853 -0.5318
  153DOPC   O1118300   5.230   6.061   7.392 -0.2330 -0.0174  0.3013
  153DOPC    C118301   5.356   6.110   7.347 -0.1045 -0.0076 -0.5333
  153DOPC    HA18302   5.435   6.037   7.374 -0.5266  0.0384  0.8905
  153DOPC    HB18303   5.373   6.210   7.393 -2.0749 -0.3119  1.0040
  153DOPC    C218304   5.333   6.131   7.199  0.1782  0.2248  0.5097
  153DOPC    HS18305   5.245   6.197   7.186  0.0072  0.1375  1.1592
  153DOPC   O2118306   5.318   6.002   7.131  0.2197  0.5678 -0.2086
  153DOPC   C2118307   5.209   5.993   7.057  0.1937 -0.1664  0.5068
  153DOPC   O2218308   5.126   6.080   7.036 -0.3025  0.6399 -0.2600
  153DOPC   C2218309   5.195   5.851   7.011  0.1482  0.2061 -0.4094
  153DOPC   H2R18310   5.146   5.786   7.086  1.6337 -2.7273 -1.8063
  153DOPC   H2S18311   5.294   5.805   6.991  0.5190  0.8528 -0.1142
  153DOPC    C318312   5.449   6.210   7.135  0.1666 -0.0097  0.5058
  153DOPC    HX18313   5.532   6.136   7.126  0.8832  0.8015  0.2526
  153DOPC    HY18314   5.479   6.294   7.202 -0.0677 -0.8761  1.7249
  153DOPC   O3118315   5.423   6.240   6.995  0.0159 -0.9783 -0.8313
  153DOPC   C3118316   5.343   6.346   6.974 -0.6192 -0.1763 -0.3763
  153DOPC   O3218317   5.311   6.428   7.061 -0.2331 -0.1116  0.1487
  153DOPC   C3218318   5.304   6.357   6.825  0.5314 -0.8232 -0.6934
  153DOPC   H2X18319   5.404   6.378   6.780  0.2794  1.0144 -0.4938
  153DOPC   H2Y18320   5.250   6.268   6.787 -1.0437  0.5633 -1.8644
  153DOPC   C2318321   5.109   5.845   6.879  0.6468 -0.0955  0.6964
  153DOPC   H3R18322   5.006   5.881   6.897  1.1256  2.2222 -0.7700
  153DOPC   H3S18323   5.110   5.739   6.845  1.1598  0.5014 -1.2914
  153DOPC   C2418324   5.175   5.925   6.763  0.4636 -0.8750  0.1413
  153DOPC   H4R18325   5.189   6.032   6.790  1.1954 -1.4954  2.5168
  153DOPC   H4S18326   5.106   5.918   6.677 -1.0641 -3.5155  1.4429
  153DOPC   C2518327   5.306   5.869   6.722 -0.9059 -0.4065 -0.7417
  153DOPC   H5R18328   5.292   5.768   6.680  2.5762 -1.5423  0.5063
  153DOPC   H5S18329   5.376   5.857   6.807 -1.5444  0.1588 -0.1237
  153DOPC   C2618330   5.365   5.956   6.611 -0.5661 -0.0265 -0.4952
  153DOPC   H6R18331   5.470   5.982   6.637 -1.1700  0.4495  1.7547
  153DOPC   H6S18332   5.306   6.048   6.589 -1.4413 -0.6112 -0.6599
  153DOPC   C2718333   5.376   5.882   6.479  0.0993  0.1033 -0.5745
  153DOPC   H7R18334   5.270   5.866   6.449  0.3126 -0.5797 -0.9886
  153DOPC   H7S18335   5.422   5.782   6.496  0.1395  0.1437 -0.4430
  153DOPC   C2818336   5.445   5.953   6.362 -0.1102 -0.3911  0.5121
  153DOPC   H8R18337   5.381   6.028   6.311  0.6082  0.7026  1.1803
  153DOPC   H8S18338   5.464   5.874   6.285  0.4770  0.1273  0.1157
  153DOPC   C2918339   5.576   6.018   6.385  0.4194 -0.4919  0.2890
  153DOPC   H9R18340   5.572   6.128   6.385 -0.4711 -0.4969 -1.1754
  153DOPC  C21018341   5.698   5.952   6.388 -0.2079  0.4360 -0.7521
  153DOPC  H10R18342   5.792   6.008   6.403  2.6240 -4.2597  1.3474
  153DOPC  C21118343   5.715   5.798   6.386  0.2443  0.5215  0.5684
  153DOPC  H11R18344   5.772   5.754   6.302 -0.7822  0.5996 -0.1788
  153DOPC  H11S18345   5.622   5.737   6.381  1.4672 -1.3120 -1.7997
  153DOPC  C21218346   5.771   5.757   6.524  0.0542  0.0461  0.4486
  153DOPC  H12R18347   5.709   5.798   6.607 -0.8408  0.1096 -0.2370
  153DOPC  H12S18348   5.872   5.800   6.539 -0.2167  0.2419  1.8599
  153DOPC  C21318349   5.786   5.600   6.539  0.7391  0.1916 -0.4656
  153DOPC  H13R18350   5.862   5.586   6.619 -0.2411 -0.7971  0.3302
  153DOPC  H13S18351   5.843   5.571   6.448  1.9568 -1.4748  0.7780
  153DOPC  C21418352   5.669   5.531   6.589  0.1102  0.1039  0.6603
  153DOPC  H14R18353   5.602   5.514   6.501 -0.7667 -0.7703  1.4666
  153DOPC  H14S18354   5.616   5.599   6.659 -0.4706  0.1148  0.2189
  153DOPC  C21518355   5.684   5.390   6.659  0.3287  0.0268 -0.0994
  153DOPC  H15R18356   5.735   5.414   6.754  1.1942 -0.8220 -0.3410
  153DOPC  H15S18357   5.760   5.332   6.602 -0.3610 -0.8009 -0.1922
  153DOPC  C21618358   5.566   5.302   6.687  0.3606  0.6015 -0.5227
  153DOPC  H16R18359   5.505   5.283   6.596 -1.0738  1.7203  0.1496
  153DOPC  H16S18360   5.512   5.377   6.749 -0.2075  1.2485 -1.7743
  153DOPC  C21718361   5.594   5.166   6.752 -0.2793  0.2519 -0.4695
  153DOPC  H17R18362   5.623   5.100   6.668 -0.2578 -0.4907  0.1041
  153DOPC  H17S18363   5.501   5.123   6.795  0.4969 -1.4321 -0.3874
  153DOPC  C21818364   5.700   5.175   6.860  0.4055 -0.2773 -0.7625
  153DOPC  H18R18365   5.712   5.072   6.898 -0.0734 -0.5268 -1.2710
  153DOPC  H18S18366   5.689   5.249   6.942 -0.2402 -0.9376 -0.2490
  153DOPC  H18T18367   5.799   5.200   6.816  0.5277 -0.1409 -0.4095
  153DOPC   C3318368   5.220   6.488   6.804  0.2424  0.1742 -0.1889
  153DOPC   H3X18369   5.279   6.576   6.837  0.4916  0.2919 -0.9460
  153DOPC   H3Y18370   5.130   6.482   6.870 -1.5106 -1.0755 -2.5378
  153DOPC   C3418371   5.174   6.513   6.658 -0.3271  0.2959  0.6497
  153DOPC   H4X18372   5.266   6.507   6.596 -1.0268  0.1150 -0.3900
  153DOPC   H4Y18373   5.118   6.605   6.634 -0.2079  0.0207 -0.7447
  153DOPC   C3518374   5.071   6.406   6.627 -0.1106 -0.0147  0.4010
  153DOPC   H5X18375   4.981   6.430   6.687 -1.9390 -0.4342 -2.0206
  153DOPC   H5Y18376   5.102   6.301   6.647 -0.2974 -0.0946  0.2726
  153DOPC   C3618377   5.029   6.418   6.474  0.7891 -0.4448 -0.3208
  153DOPC   H6X18378   4.934   6.361   6.471 -1.6287  3.1510  0.8047
  153DOPC   H6Y18379   5.003   6.521   6.441 -0.1736 -1.0809 -1.6645
  153DOPC   C3718380   5.130   6.354   6.381  0.1757 -0.4440 -0.6638
  153DOPC   H7X18381   5.219   6.417   6.402 -1.0460  0.7554  1.3003
  153DOPC   H7Y18382   5.144   6.250   6.417 -0.4871 -1.0230 -2.0153
  153DOPC   C3818383   5.090   6.348   6.232  0.1374 -0.5196 -0.4309
  153DOPC   H8X18384   4.994   6.293   6.227  0.3229 -0.9506  0.5093
  153DOPC   H8Y18385   5.172   6.278   6.202 -0.2973 -1.6047  0.8136
  153DOPC   C3918386   5.084   6.480   6.156  0.4600  1.0795  1.1616
  153DOPC   H9X18387   5.007   6.549   6.195 -0.5682  0.8700 -0.4226
  153DOPC  C31018388   5.139   6.505   6.037 -0.3075 -0.5362 -0.4843
  153DOPC  H10X18389   5.138   6.609   6.000  0.7214  0.1377  1.2496
  153DOPC  C31118390   5.235   6.419   5.965 -0.9692 -0.3372  0.2667
  153DOPC  H11X18391   5.242   6.315   6.003 -1.6255 -0.2550  0.6396
  153DOPC  H11Y18392   5.333   6.471   5.969 -0.7032 -0.9487  2.5838
  153DOPC  C31218393   5.189   6.409   5.821  0.1352 -0.1903 -0.5491
  153DOPC  H12X18394   5.079   6.394   5.825 -0.3365  2.6128 -0.9352
  153DOPC  H12Y18395   5.237   6.322   5.771 -0.3991 -0.6718 -0.2247
  153DOPC  C31318396   5.224   6.533   5.740  0.2603 -0.5102 -0.0120
  153DOPC  H13X18397   5.156   6.618   5.763 -0.4805 -0.5093 -1.9871
  153DOPC  H13Y18398   5.332   6.557   5.751  0.1785 -0.4488  0.6622
  153DOPC  C31418399   5.209   6.514   5.585 -0.0390 -0.2310 -0.1310
  153DOPC  H14X18400   5.223   6.612   5.534 -1.9139  0.6361  0.9497
  153DOPC  H14Y18401   5.297   6.450   5.564 -0.8146 -1.2199 -0.4070
  153DOPC  C31518402   5.079   6.456   5.543 -0.7754  0.0529 -0.2880
  153DOPC  H15X18403   4.992   6.522   5.565 -0.0251  0.8033  0.4583
  153DOPC  H15Y18404   5.065   6.361   5.600  0.2562  0.3546  0.4913
  153DOPC  C31618405   5.062   6.426   5.387  0.4217 -0.1132  0.2935
  153DOPC  H16X18406   5.063   6.512   5.318 -0.6339 -0.2958  0.0374
  153DOPC  H16Y18407   5.148   6.358   5.369 -0.6237 -1.3742 -0.1456
  153DOPC  C31718408   4.922   6.373   5.351 -0.0974  0.4382 -0.2116
  153DOPC  H17X18409   4.929   6.321   5.253  0.7403 -2.4879  1.2912
  153DOPC  H17Y18410   4.895   6.293   5.424 -2.5855 -0.4274 -1.9272
  153DOPC  C31818411   4.812   6.475   5.339 -0.1448  0.6792 -0.1367
  153DOPC  H18X18412   4.826   6.562   5.271 -1.3003 -0.6397 -2.1537
  153DOPC  H18Y18413   4.726   6.419   5.298 -0.7167  2.6164 -1.7235
  153DOPC  H18Z18414   4.777   6.508   5.440 -1.6488 -0.5150 -0.2327
  154DOPC     N18415   4.871   2.584   7.993 -0.3793  0.0143 -0.3903
  154DOPC   C1218416   4.924   2.449   8.047 -0.2068  0.9392 -0.4426
  154DOPC  H12A18417   4.901   2.440   8.152  1.2094  0.1447 -0.1665
  154DOPC  H12B18418   5.032   2.457   8.048 -0.2456  1.6788  1.3233
  154DOPC   C1318419   4.722   2.569   7.954 -0.7526 -0.2016 -0.1142
  154DOPC  H13A18420   4.666   2.534   8.039  0.1453 -1.0376  0.1550
  154DOPC  H13B18421   4.684   2.665   7.923 -0.3623 -0.2623 -0.8032
  154DOPC  H13C18422   4.712   2.495   7.876  1.3584 -0.9066  0.2176
  154DOPC   C1418423   4.945   2.619   7.866 -0.7228  0.4547  0.2048
  154DOPC  H14A18424   4.954   2.532   7.804  2.1586  1.4579 -0.9619
  154DOPC  H14B18425   4.897   2.701   7.815  0.4973  0.2185 -1.3827
  154DOPC  H14C18426   5.046   2.654   7.880 -0.9238  1.1435 -0.0035
  154DOPC   C1518427   4.899   2.692   8.097  0.3550 -0.2004 -0.3067
  154DOPC  H15A18428   5.000   2.690   8.137 -0.1618  1.2632  1.1976
  154DOPC  H15B18429   4.816   2.689   8.167 -1.6617  0.5841 -2.5446
  154DOPC  H15C18430   4.901   2.792   8.058  0.1198 -0.5357 -1.2087
  154DOPC   C1118431   4.890   2.322   7.962 -0.8143  0.5531  0.3708
  154DOPC  H11A18432   4.930   2.238   8.023  2.4973  1.9438  0.3724
  154DOPC  H11B18433   4.783   2.301   7.981 -0.9003  0.6218 -0.0388
  154DOPC     P18434   5.074   2.302   7.784 -0.2769 -0.2663  0.0298
  154DOPC   O1318435   5.113   2.163   7.811 -0.0512 -0.4733  0.2145
  154DOPC   O1418436   5.145   2.405   7.861 -0.3061 -0.1352 -0.6793
  154DOPC   O1218437   4.924   2.314   7.823  0.2020 -0.4711 -0.3384
  154DOPC   O1118438   5.092   2.334   7.630 -0.0712 -0.1894 -0.3507
  154DOPC    C118439   5.001   2.289   7.534  0.3712  0.1547 -0.3394
  154DOPC    HA18440   4.918   2.362   7.525 -2.0625 -2.4442 -0.6413
  154DOPC    HB18441   4.962   2.187   7.554  0.5730  0.1860  0.2432
  154DOPC    C218442   5.076   2.283   7.393 -0.1788 -0.2816 -0.2401
  154DOPC    HS18443   5.163   2.213   7.396 -0.2533 -0.5329 -2.4925
  154DOPC   O2118444   5.125   2.414   7.355 -0.5472 -0.0727 -0.1651
  154DOPC   C2118445   5.251   2.435   7.399  1.1491  0.3181  0.0150
  154DOPC   O2218446   5.326   2.356   7.453 -0.2198  0.0616  0.1720
  154DOPC   C2218447   5.275   2.581   7.354  0.3040 -0.2293 -0.1863
  154DOPC   H2R18448   5.374   2.614   7.393  0.2274 -0.3320  0.0975
  154DOPC   H2S18449   5.188   2.645   7.382  0.1140  0.5102 -2.3008
  154DOPC    C318450   4.984   2.226   7.283  0.2680  0.2706 -0.5667
  154DOPC    HX18451   4.890   2.286   7.284 -1.2364 -1.9518  0.6688
  154DOPC    HY18452   4.954   2.125   7.319  1.1169 -0.0802 -0.8280
  154DOPC   O3118453   5.054   2.204   7.157 -0.3185 -0.2839  0.3773
  154DOPC   C3118454   5.049   2.312   7.084  0.0480 -0.2676  0.1043
  154DOPC   O3218455   4.972   2.405   7.106 -0.2887 -0.0247  0.0909
  154DOPC   C3218456   5.147   2.304   6.970 -0.2099  0.2037 -0.0840
  154DOPC   H2X18457   5.249   2.317   7.011  0.1932 -0.8926 -0.6868
  154DOPC   H2Y18458   5.136   2.202   6.926 -0.7606  1.0856 -2.1091
  154DOPC   C2318459   5.295   2.605   7.202 -0.0370 -0.4751 -0.1265
  154DOPC   H3R18460   5.305   2.713   7.177  1.0051 -0.3651  0.7116
  154DOPC   H3S18461   5.205   2.560   7.154 -0.0338  0.1305 -0.7069
  154DOPC   C2418462   5.427   2.544   7.149  0.2457 -0.0162  0.7879
  154DOPC   H4R18463   5.434   2.433   7.140  0.1519  0.1213 -1.5308
  154DOPC   H4S18464   5.503   2.579   7.221  1.1579  0.8200 -0.5305
  154DOPC   C2518465   5.469   2.607   7.012  0.4936  0.1358  0.6824
  154DOPC   H5R18466   5.441   2.714   7.008 -2.6486 -0.6180 -0.3616
  154DOPC   H5S18467   5.415   2.545   6.938  0.8341 -0.0840  0.6157
  154DOPC   C2618468   5.621   2.601   6.986  0.3267  0.2373 -0.2227
  154DOPC   H6R18469   5.667   2.501   6.999 -1.1238 -0.5446 -0.8254
  154DOPC   H6S18470   5.667   2.669   7.061  1.2252 -1.2311  0.6008
  154DOPC   C2718471   5.655   2.649   6.845  0.3031 -0.3431 -0.0501
  154DOPC   H7R18472   5.587   2.735   6.828  0.4760  0.4532  2.7612
  154DOPC   H7S18473   5.648   2.570   6.767  1.3487  0.6259 -1.1725
  154DOPC   C2818474   5.796   2.705   6.853  0.2920  0.2856  0.2790
  154DOPC   H8R18475   5.803   2.770   6.944  0.3981 -0.3283  0.7162
  154DOPC   H8S18476   5.806   2.777   6.769  1.2138 -0.1672 -0.0138
  154DOPC   C2918477   5.909   2.612   6.833  0.0335  0.0153  0.4590
  154DOPC   H9R18478   5.909   2.522   6.895  1.1735  0.2663  0.8376
  154DOPC  C21018479   6.008   2.623   6.739  0.4282 -0.5244  0.0501
  154DOPC  H10R18480   6.077   2.538   6.738  0.7892 -0.2375  0.4735
  154DOPC  C21118481   6.018   2.716   6.620  0.4930 -0.2622  0.2065
  154DOPC  H11R18482   5.933   2.783   6.596  1.0252  0.3715  0.0530
  154DOPC  H11S18483   6.043   2.651   6.534  0.5113  0.0452 -0.0187
  154DOPC  C21218484   6.142   2.806   6.644  0.3713  0.6397  0.1328
  154DOPC  H12R18485   6.226   2.746   6.686  0.6039  2.3647  2.3164
  154DOPC  H12S18486   6.114   2.883   6.720  0.4306 -0.4978  1.3377
  154DOPC  C21318487   6.200   2.875   6.515 -0.1923  0.8244  0.4687
  154DOPC  H13R18488   6.219   2.794   6.442 -0.7926 -1.9436  3.1933
  154DOPC  H13S18489   6.302   2.910   6.541 -0.5371  1.0396  1.6475
  154DOPC  C21418490   6.114   2.994   6.465  0.5512  0.0075 -0.3706
  154DOPC  H14R18491   6.126   3.078   6.537 -1.3495 -0.5143  0.6190
  154DOPC  H14S18492   6.007   2.966   6.454  0.9435 -0.7181 -2.9526
  154DOPC  C21518493   6.165   3.048   6.327 -0.0748  0.0828  0.0354
  154DOPC  H15R18494   6.169   2.972   6.246 -0.1933  0.9720 -0.8198
  154DOPC  H15S18495   6.274   3.059   6.344 -0.0132  0.0071 -0.3115
  154DOPC  C21618496   6.102   3.170   6.267  0.3147  0.0059 -0.1355
  154DOPC  H16R18497   6.165   3.189   6.177  2.6555 -1.2378  1.1625
  154DOPC  H16S18498   6.114   3.258   6.334 -1.6105  0.4496 -0.2952
  154DOPC  C21718499   5.959   3.157   6.225  0.7067 -0.3014 -0.1747
  154DOPC  H17R18500   5.902   3.134   6.317 -2.7286  0.7594 -1.8395
  154DOPC  H17S18501   5.948   3.070   6.156  0.5320 -1.2007  0.9651
  154DOPC  C21818502   5.891   3.276   6.160  0.0874 -0.1539  0.8553
  154DOPC  H18R18503   5.897   3.359   6.234  1.7475 -0.4197  1.0552
  154DOPC  H18S18504   5.788   3.252   6.126  1.1288 -1.3370 -1.6903
  154DOPC  H18T18505   5.945   3.309   6.069 -3.1657  0.6603 -0.9269
  154DOPC   C3318506   5.116   2.425   6.879 -0.6137 -0.0564 -0.8734
  154DOPC   H3X18507   5.127   2.516   6.941  1.6606 -0.1478 -1.0501
  154DOPC   H3Y18508   5.017   2.426   6.827 -0.4174  2.1620 -1.3001
  154DOPC   C3418509   5.217   2.438   6.774  0.0659  0.6681  0.4022
  154DOPC   H4X18510   5.323   2.413   6.796  1.0090  1.9677 -2.1829
  154DOPC   H4Y18511   5.223   2.543   6.739  1.7527  0.8522  1.1557
  154DOPC   C3518512   5.178   2.346   6.653 -0.1479  0.2932 -0.5373
  154DOPC   H5X18513   5.069   2.334   6.637  0.4671 -3.5430 -3.4576
  154DOPC   H5Y18514   5.221   2.246   6.676  0.1997 -0.0247 -2.4132
  154DOPC   C3618515   5.227   2.401   6.517 -0.3698  0.4574 -0.4902
  154DOPC   H6X18516   5.220   2.511   6.505 -0.7905  0.2632 -2.3576
  154DOPC   H6Y18517   5.335   2.377   6.511 -0.3766  0.4191 -0.4570
  154DOPC   C3718518   5.147   2.342   6.404 -0.1777 -0.0152  0.0123
  154DOPC   H7X18519   5.147   2.231   6.417  0.3414 -0.1587 -1.1079
  154DOPC   H7Y18520   5.039   2.367   6.415 -0.2173 -0.3537  0.4323
  154DOPC   C3818521   5.203   2.367   6.264 -0.2327 -0.0959 -0.3929
  154DOPC   H8X18522   5.225   2.476   6.267  1.8054 -0.3954 -1.9881
  154DOPC   H8Y18523   5.126   2.358   6.184 -1.1600  1.4927  0.2751
  154DOPC   C3918524   5.329   2.297   6.228 -0.5401  0.6012  0.1955
  154DOPC   H9X18525   5.412   2.317   6.297  0.6605 -0.4838 -0.8813
  154DOPC  C31018526   5.348   2.210   6.123 -0.5799  0.7686  0.5184
  154DOPC  H10X18527   5.446   2.162   6.118 -0.1399  1.7615 -1.6701
  154DOPC  C31118528   5.232   2.165   6.023 -0.1118 -0.2736  0.8694
  154DOPC  H11X18529   5.228   2.227   5.931  0.6062 -1.6016 -0.0920
  154DOPC  H11Y18530   5.132   2.185   6.067  0.2196  1.6089  0.8319
  154DOPC  C31218531   5.238   2.013   5.985 -0.0726  0.1476  0.0123
  154DOPC  H12X18532   5.149   1.985   5.924  0.5422  0.4260 -1.0297
  154DOPC  H12Y18533   5.235   1.949   6.076  0.1116  0.2727  0.1080
  154DOPC  C31318534   5.355   1.975   5.894 -0.1544 -0.3449  0.0406
  154DOPC  H13X18535   5.355   2.025   5.795 -0.0332 -0.9072 -0.2467
  154DOPC  H13Y18536   5.449   2.013   5.941 -0.7275  1.5533 -0.2367
  154DOPC  C31418537   5.359   1.820   5.874 -1.2428  0.1435  0.4588
  154DOPC  H14X18538   5.406   1.784   5.968 -1.6195  1.2459  1.0939
  154DOPC  H14Y18539   5.253   1.789   5.869 -1.2600  0.4483 -1.7743
  154DOPC  C31518540   5.426   1.771   5.745 -0.0396 -0.2826  0.4321
  154DOPC  H15X18541   5.505   1.848   5.728 -0.7168 -0.0588 -2.3011
  154DOPC  H15Y18542   5.350   1.775   5.664 -1.7208 -0.8605  1.9116
  154DOPC  C31618543   5.469   1.623   5.738  0.4463  0.4521  0.0264
  154DOPC  H16X18544   5.382   1.557   5.762  0.3439  0.6980  0.3428
  154DOPC  H16Y18545   5.509   1.601   5.637 -0.8946 -0.7385 -0.2765
  154DOPC  C31718546   5.570   1.581   5.846 -0.1010 -0.6459  0.3200
  154DOPC  H17X18547   5.542   1.613   5.949 -1.5145  0.5863 -0.4077
  154DOPC  H17Y18548   5.590   1.472   5.846  1.6717 -0.3700 -1.4810
  154DOPC  C31818549   5.708   1.641   5.834 -0.0382 -0.3406 -0.5944
  154DOPC  H18X18550   5.704   1.752   5.828  0.7029 -0.3602 -1.7713
  154DOPC  H18Y18551   5.779   1.608   5.912 -0.2470  1.2244  0.3217
  154DOPC  H18Z18552   5.748   1.613   5.735  0.0255 -0.5437 -0.5112
  155DOPC     N18553   1.808   7.679   7.237 -0.0360 -0.1867  0.6869
  155DOPC   C1218554   1.867   7.727   7.106 -0.0326 -0.1468  0.4261
  155DOPC  H12A18555   1.943   7.801   7.128 -0.8609  0.5410  1.0284
  155DOPC  H12B18556   1.785   7.774   7.053  1.3630  0.9542 -0.8575
  155DOPC   C1318557   1.705   7.770   7.301  0.4420 -0.7099  0.5779
  155DOPC  H13A18558   1.657   7.732   7.390 -0.9522  1.2615  0.7155
  155DOPC  H13B18559   1.751   7.863   7.330 -0.0165 -0.8917  1.9185
  155DOPC  H13C18560   1.628   7.790   7.227  0.0041  1.1366  1.4917
  155DOPC   C1418561   1.902   7.649   7.345 -0.5453 -0.0039  0.0882
  155DOPC  H14A18562   1.913   7.732   7.413  0.7954 -0.4249  0.4238
  155DOPC  H14B18563   1.867   7.568   7.407  1.8579 -1.2116 -0.0012
  155DOPC  H14C18564   1.998   7.623   7.303 -1.4607  0.2838 -2.3405
  155DOPC   C1518565   1.722   7.561   7.214  0.2118  0.5344  0.6889
  155DOPC  H15A18566   1.655   7.577   7.132 -1.5582 -1.6843  1.5825
  155DOPC  H15B18567   1.672   7.520   7.301 -3.4306  3.3517  0.1438
  155DOPC  H15C18568   1.778   7.476   7.177 -1.6532  0.4588 -2.3068
  155DOPC   C1118569   1.922   7.624   7.004 -0.1559  0.4489 -0.1599
  155DOPC  H11A18570   1.988   7.674   6.929  1.7696  0.2586  1.3441
  155DOPC  H11B18571   1.978   7.554   7.069 -2.0960  0.6576  1.8301
  155DOPC     P18572   1.727   7.590   6.829  0.4920 -0.1939 -0.0426
  155DOPC   O1318573   1.631   7.683   6.877 -0.1205  0.0925 -0.5347
  155DOPC   O1418574   1.677   7.467   6.763  0.2975 -0.1609 -0.8372
  155DOPC   O1218575   1.821   7.552   6.949 -0.5284  0.5994 -0.1963
  155DOPC   O1118576   1.807   7.672   6.721  0.7756 -0.0262 -0.3463
  155DOPC    C118577   1.862   7.801   6.745 -0.3506  0.9315  0.1367
  155DOPC    HA18578   1.972   7.795   6.758 -0.3793 -0.7899 -0.1705
  155DOPC    HB18579   1.820   7.837   6.841 -1.3464 -2.5921  1.2033
  155DOPC    C218580   1.842   7.894   6.623  0.0347 -1.0852 -1.1180
  155DOPC    HS18581   1.901   7.986   6.642  0.2748 -1.1444 -1.5467
  155DOPC   O2118582   1.701   7.913   6.602 -0.1394 -0.8802  0.0873
  155DOPC   C2118583   1.632   7.975   6.696 -0.3675  0.2256  0.1339
  155DOPC   O2218584   1.678   8.050   6.779 -0.0421  0.1422 -0.4080
  155DOPC   C2218585   1.481   7.932   6.697 -0.1434  0.1285 -0.4414
  155DOPC   H2R18586   1.468   7.881   6.795  0.0718 -0.2526 -0.6106
  155DOPC   H2S18587   1.463   7.853   6.620  0.3822  0.7212 -1.1851
  155DOPC    C318588   1.905   7.832   6.494 -0.7739 -0.1217  0.2817
  155DOPC    HX18589   1.839   7.745   6.477  0.1208 -0.4942 -1.5036
  155DOPC    HY18590   2.005   7.799   6.529 -1.2193 -1.1845  0.5983
  155DOPC   O3118591   1.901   7.914   6.373 -0.6353  0.6409  0.2183
  155DOPC   C3118592   1.949   7.859   6.263 -0.1385 -0.0341 -0.1866
  155DOPC   O3218593   1.987   7.742   6.251 -1.0438  0.3966 -0.2540
  155DOPC   C3218594   1.948   7.967   6.152 -0.4739  0.2073  0.2080
  155DOPC   H2X18595   1.841   7.994   6.135 -0.5542  0.0310  0.4318
  155DOPC   H2Y18596   2.001   8.053   6.198 -3.5084  1.2600  2.0922
  155DOPC   C2318597   1.373   8.042   6.684 -0.8779 -0.1234  0.8429
  155DOPC   H3R18598   1.385   8.108   6.773  1.2914  0.4969  0.1565
  155DOPC   H3S18599   1.276   7.989   6.693  0.2537 -2.0981  1.9696
  155DOPC   C2418600   1.383   8.115   6.549  0.0130  0.0869  0.2366
  155DOPC   H4R18601   1.411   8.045   6.467 -0.2740  0.1938  0.0455
  155DOPC   H4S18602   1.479   8.172   6.547  1.3347 -1.9613  1.6153
  155DOPC   C2518603   1.265   8.202   6.505 -0.0051  0.0296  0.4256
  155DOPC   H5R18604   1.240   8.284   6.576 -0.3169  0.9071 -0.6589
  155DOPC   H5S18605   1.172   8.142   6.505 -1.2401  1.8335 -0.7921
  155DOPC   C2618606   1.266   8.261   6.361  0.5379 -0.2033 -0.4850
  155DOPC   H6R18607   1.160   8.285   6.338  0.0937 -0.8728  0.7700
  155DOPC   H6S18608   1.282   8.172   6.297  1.6137 -0.9396  0.7675
  155DOPC   C2718609   1.361   8.371   6.334  0.1455 -0.3932 -0.2839
  155DOPC   H7R18610   1.366   8.382   6.224 -0.2123  2.5167 -0.0897
  155DOPC   H7S18611   1.460   8.349   6.381 -0.9278 -1.1612  1.7203
  155DOPC   C2818612   1.301   8.506   6.384 -0.5570 -0.4140 -0.1586
  155DOPC   H8R18613   1.287   8.509   6.494  0.6785 -0.6701  0.0204
  155DOPC   H8S18614   1.200   8.534   6.347 -0.6329 -1.1650 -0.5263
  155DOPC   C2918615   1.407   8.606   6.361 -0.4090  0.6776 -0.3432
  155DOPC   H9R18616   1.483   8.626   6.438 -1.7265  0.4434  1.0787
  155DOPC  C21018617   1.416   8.681   6.248  0.1445  0.3727  0.0478
  155DOPC  H10R18618   1.497   8.755   6.239  0.8716 -0.5342 -1.1009
  155DOPC  C21118619   1.331   8.658   6.129 -0.0584  0.2794  0.3107
  155DOPC  H11R18620   1.274   8.751   6.111  1.4036  0.9552 -1.1386
  155DOPC  H11S18621   1.279   8.561   6.145  0.9030 -0.1909  0.7011
  155DOPC  C21218622   1.435   8.647   6.012  0.3910 -0.4652  0.2217
  155DOPC  H12R18623   1.505   8.570   6.049 -0.3182 -1.3324 -0.2086
  155DOPC  H12S18624   1.483   8.748   6.013 -0.7122  0.1018  2.1386
  155DOPC  C21318625   1.373   8.610   5.880  0.2959  0.0469  0.6324
  155DOPC  H13R18626   1.338   8.505   5.884 -0.4958  0.2812  0.1166
  155DOPC  H13S18627   1.451   8.603   5.801 -0.3159 -1.0193  0.1121
  155DOPC  C21418628   1.250   8.689   5.826  0.0907 -0.4318  0.0871
  155DOPC  H14R18629   1.286   8.788   5.791 -2.1579  0.3571 -0.1993
  155DOPC  H14S18630   1.187   8.716   5.914 -1.2721 -1.2468 -0.5963
  155DOPC  C21518631   1.176   8.613   5.715 -0.0781 -0.2693  0.9233
  155DOPC  H15R18632   1.151   8.519   5.769  0.2296 -0.6913  0.3388
  155DOPC  H15S18633   1.239   8.593   5.626  2.1675  0.5009  2.2489
  155DOPC  C21618634   1.054   8.694   5.664  0.0760 -0.0201  0.5358
  155DOPC  H16R18635   1.083   8.793   5.622 -2.4600  0.1376 -1.0710
  155DOPC  H16S18636   0.983   8.700   5.749  0.0260 -0.9777  0.5676
  155DOPC  C21718637   0.982   8.629   5.547 -0.0527  0.3139 -0.1323
  155DOPC  H17R18638   0.962   8.526   5.583  2.0302 -0.1121 -0.0630
  155DOPC  H17S18639   1.053   8.640   5.462  1.1132  2.9710  1.0939
  155DOPC  C21818640   0.859   8.700   5.506  0.3613  0.6647 -0.1098
  155DOPC  H18R18641   0.819   8.650   5.415  0.2416  0.9743 -0.2280
  155DOPC  H18S18642   0.882   8.806   5.480 -0.5986  0.4535 -2.0582
  155DOPC  H18T18643   0.787   8.705   5.590  1.2744 -0.0588  0.7333
  155DOPC   C3318644   2.010   7.940   6.021  0.0965 -0.1441  0.5586
  155DOPC   H3X18645   1.953   7.858   5.972  0.0101  1.1011 -1.5270
  155DOPC   H3Y18646   2.109   7.890   6.028  1.2806  1.2876 -3.2898
  155DOPC   C3418647   2.018   8.062   5.926 -0.9499  0.2338  0.2727
  155DOPC   H4X18648   2.081   8.144   5.966 -1.9431  1.7168 -1.0913
  155DOPC   H4Y18649   1.917   8.101   5.900 -0.8793 -0.2471 -0.8201
  155DOPC   C3518650   2.101   8.028   5.791  0.7270 -0.7252 -0.4356
  155DOPC   H5X18651   2.197   7.987   5.829  1.1145  1.7015  1.4862
  155DOPC   H5Y18652   2.125   8.121   5.736 -1.5240 -0.9465 -1.9185
  155DOPC   C3618653   2.030   7.937   5.693 -0.5727  0.2170 -0.0696
  155DOPC   H6X18654   2.107   7.903   5.620 -0.3505  2.2881 -0.8584
  155DOPC   H6Y18655   1.998   7.846   5.748 -1.6234 -0.4920 -1.7519
  155DOPC   C3718656   1.922   8.006   5.607 -0.9873 -0.8270 -0.3420
  155DOPC   H7X18657   1.846   8.044   5.679 -1.4833 -1.3070 -0.6181
  155DOPC   H7Y18658   1.957   8.094   5.549 -5.0800  0.0033 -1.8803
  155DOPC   C3818659   1.860   7.926   5.499 -0.0543  0.3513  0.2605
  155DOPC   H8X18660   1.830   7.822   5.527 -0.3539  0.7247  1.3784
  155DOPC   H8Y18661   1.941   7.901   5.427 -1.3264  0.0611 -1.1433
  155DOPC   C3918662   1.739   7.978   5.423 -0.1589  0.7600 -0.1536
  155DOPC   H9X18663   1.645   7.953   5.473  0.3961 -2.0240 -0.3253
  155DOPC  C31018664   1.739   8.035   5.303  0.1844 -0.3626  0.4466
  155DOPC  H10X18665   1.642   8.067   5.262  0.4164 -1.1369 -0.7558
  155DOPC  C31118666   1.863   8.063   5.220 -0.7451 -0.1716 -0.3866
  155DOPC  H11X18667   1.861   8.005   5.126  0.3816 -1.5811  0.4212
  155DOPC  H11Y18668   1.955   8.037   5.277 -0.9969 -0.6475 -0.1862
  155DOPC  C31218669   1.875   8.206   5.167 -0.2477  0.1874  0.4626
  155DOPC  H12X18670   1.970   8.203   5.109  0.4843 -1.4879  1.6684
  155DOPC  H12Y18671   1.877   8.280   5.250  0.5352  0.3870  0.2765
  155DOPC  C31318672   1.760   8.254   5.076 -1.0020 -0.6910  0.3932
  155DOPC  H13X18673   1.715   8.172   5.016 -2.5367  0.1712  0.3195
  155DOPC  H13Y18674   1.668   8.288   5.127 -0.9400 -0.2399  0.2070
  155DOPC  C31418675   1.804   8.350   4.967  0.0228  0.7143  0.2985
  155DOPC  H14X18676   1.875   8.291   4.905 -0.3534 -2.6258  2.8175
  155DOPC  H14Y18677   1.715   8.380   4.907  0.1278  0.1010 -0.1729
  155DOPC  C31518678   1.871   8.472   5.028  0.0890 -0.7140 -0.1661
  155DOPC  H15X18679   1.908   8.533   4.943  0.3424 -2.4948 -1.3700
  155DOPC  H15Y18680   1.964   8.438   5.079  1.4795  0.3488 -1.9085
  155DOPC  C31618681   1.784   8.561   5.109  0.8002 -0.3320 -0.0905
  155DOPC  H16X18682   1.683   8.562   5.063  0.0524 -0.3019  1.4831
  155DOPC  H16Y18683   1.787   8.525   5.214 -0.9373 -1.6305 -0.4451
  155DOPC  C31718684   1.832   8.710   5.115 -0.1029  0.6889  0.2540
  155DOPC  H17X18685   1.942   8.701   5.127 -0.3305 -1.6588  1.1040
  155DOPC  H17Y18686   1.833   8.762   5.017  2.4006  2.4093  1.1035
  155DOPC  C31818687   1.755   8.792   5.215 -0.2426  0.3596  0.3567
  155DOPC  H18X18688   1.799   8.892   5.236 -0.1002  1.0660 -2.9159
  155DOPC  H18Y18689   1.647   8.802   5.195 -0.9946 -1.5835  2.8898
  155DOPC  H18Z18690   1.758   8.740   5.313 -2.3852 -0.7172 -0.1025
  156DOPC     N18691   6.487   7.113   7.804  0.1326  0.1561 -1.0714
  156DOPC   C1218692   6.542   7.252   7.749 -0.0254 -0.5353  0.2417
  156DOPC  H12A18693   6.609   7.295   7.821 -1.4770  0.4246  1.0676
  156DOPC  H12B18694   6.455   7.315   7.759  1.3234  1.4329  0.1275
  156DOPC   C1318695   6.603   7.020   7.795 -0.1457  0.1418  0.6853
  156DOPC  H13A18696   6.642   7.017   7.695 -1.6789 -0.7063  0.0820
  156DOPC  H13B18697   6.681   7.071   7.850 -1.0507 -0.9721  3.2116
  156DOPC  H13C18698   6.589   6.918   7.830  0.6889 -0.6170 -1.0534
  156DOPC   C1418699   6.368   7.071   7.727  0.5746  0.7860  0.6919
  156DOPC  H14A18700   6.277   7.124   7.748 -0.7476 -0.6563 -1.1063
  156DOPC  H14B18701   6.392   7.095   7.624 -1.0839 -0.9134 -0.1540
  156DOPC  H14C18702   6.345   6.965   7.724  0.3827  0.6983  3.2881
  156DOPC   C1518703   6.457   7.135   7.951  0.2842  0.3385 -0.0660
  156DOPC  H15A18704   6.539   7.170   8.012 -1.0458  0.2918  1.8777
  156DOPC  H15B18705   6.443   7.036   7.993 -0.5134 -0.3003 -1.7409
  156DOPC  H15C18706   6.366   7.192   7.963 -1.0569 -1.3221 -1.7771
  156DOPC   C1118707   6.593   7.253   7.603  0.0589 -0.2065 -0.0786
  156DOPC  H11A18708   6.505   7.238   7.537 -0.0459  0.5234 -0.1101
  156DOPC  H11B18709   6.629   7.355   7.578  1.5251 -0.8146 -0.5782
  156DOPC     P18710   6.847   7.191   7.607 -0.4343  0.0596  0.6449
  156DOPC   O1318711   6.892   7.077   7.686  0.6408  0.2221  0.3123
  156DOPC   O1418712   6.854   7.324   7.667 -0.0720 -0.4935  0.1675
  156DOPC   O1218713   6.699   7.160   7.561  0.1451 -0.1020 -0.1462
  156DOPC   O1118714   6.934   7.183   7.470  0.2031 -0.1939  0.0021
  156DOPC    C118715   6.873   7.148   7.343  0.0069  0.2503  0.6342
  156DOPC    HA18716   6.931   7.189   7.258 -0.1720  0.2247  0.5017
  156DOPC    HB18717   6.770   7.187   7.339 -0.2873 -0.4164  1.3531
  156DOPC    C218718   6.876   6.994   7.323  0.5395  0.0975  0.3789
  156DOPC    HS18719   6.828   6.940   7.407 -1.0711  1.1834  0.2078
  156DOPC   O2118720   7.013   6.958   7.306 -0.8490 -0.6526  0.1112
  156DOPC   C2118721   7.055   6.834   7.313  0.3807  0.0025 -0.0155
  156DOPC   O2218722   6.977   6.739   7.307 -0.6095  0.3322  0.7627
  156DOPC   C2218723   7.203   6.827   7.315 -0.7170 -0.2012 -0.6042
  156DOPC   H2R18724   7.217   6.727   7.359 -0.8146 -0.3572 -0.9255
  156DOPC   H2S18725   7.240   6.910   7.379 -3.9945  1.9601 -1.2636
  156DOPC    C318726   6.792   6.950   7.203 -0.5308  0.0312 -0.7323
  156DOPC    HX18727   6.698   7.009   7.196 -0.3816  0.4134  0.3156
  156DOPC    HY18728   6.770   6.844   7.228 -1.5330  0.7929  1.9927
  156DOPC   O3118729   6.858   6.960   7.072  0.1319 -1.0942  0.2854
  156DOPC   C3118730   6.838   7.072   7.001 -0.1259 -0.1817  0.3192
  156DOPC   O3218731   6.769   7.166   7.047  0.2147 -0.0235 -0.2520
  156DOPC   C3218732   6.902   7.055   6.865 -0.4500  0.4756 -0.1192
  156DOPC   H2X18733   7.003   7.097   6.886  0.4424 -1.3649 -0.5084
  156DOPC   H2Y18734   6.922   6.949   6.839 -0.2262  0.5699 -0.3420
  156DOPC   C2318735   7.258   6.841   7.171  0.1208  0.5266 -0.0161
  156DOPC   H3R18736   7.363   6.874   7.157 -0.5823  2.1239 -1.9335
  156DOPC   H3S18737   7.203   6.927   7.129 -0.6199 -0.4379 -1.0791
  156DOPC   C2418738   7.229   6.723   7.083 -0.4664  0.2230 -0.0369
  156DOPC   H4R18739   7.120   6.703   7.076 -0.1628 -1.0138 -2.2933
  156DOPC   H4S18740   7.275   6.640   7.140  1.7438  2.6835  2.0067
  156DOPC   C2518741   7.290   6.738   6.947 -0.6931 -0.1358  0.0745
  156DOPC   H5R18742   7.401   6.747   6.949 -0.6973 -0.2212  1.0922
  156DOPC   H5S18743   7.251   6.835   6.910  1.6921  0.8397 -0.0869
  156DOPC   C2618744   7.254   6.631   6.844 -0.0751  0.2564 -0.0655
  156DOPC   H6R18745   7.147   6.615   6.818 -0.0324 -1.2641  0.5781
  156DOPC   H6S18746   7.295   6.537   6.887 -0.2225 -0.0834 -0.6458
  156DOPC   C2718747   7.326   6.641   6.711 -0.3463 -0.8901 -0.0615
  156DOPC   H7R18748   7.290   6.556   6.649 -0.5310 -0.9104  0.0708
  156DOPC   H7S18749   7.435   6.624   6.725  0.2915  1.0192 -2.1008
  156DOPC   C2818750   7.324   6.780   6.634 -0.1009 -0.1057 -0.1418
  156DOPC   H8R18751   7.387   6.767   6.543  1.3075 -0.5830  0.8705
  156DOPC   H8S18752   7.379   6.853   6.697 -0.8866 -0.8433  1.4746
  156DOPC   C2918753   7.191   6.842   6.602 -0.6584 -0.9697  0.0357
  156DOPC   H9R18754   7.147   6.901   6.684 -0.5664 -0.7197 -0.0932
  156DOPC  C21018755   7.126   6.833   6.486  0.0033 -0.4998  0.3602
  156DOPC  H10R18756   7.031   6.883   6.462  0.8073  1.2196  0.6071
  156DOPC  C21118757   7.170   6.760   6.361  0.0780 -0.2546 -0.0719
  156DOPC  H11R18758   7.096   6.680   6.340 -1.0011  0.1209  2.0725
  156DOPC  H11S18759   7.271   6.718   6.381  1.5267  2.8865 -0.3083
  156DOPC  C21218760   7.169   6.852   6.234 -0.3059  0.2590  0.3702
  156DOPC  H12R18761   7.261   6.913   6.243  1.0476 -1.1345 -2.5773
  156DOPC  H12S18762   7.082   6.921   6.223  0.2769  0.9166 -0.2273
  156DOPC  C21318763   7.186   6.773   6.104 -0.1008 -0.2331  0.1600
  156DOPC  H13R18764   7.085   6.728   6.094 -0.6343  0.4342  2.0680
  156DOPC  H13S18765   7.257   6.689   6.121  0.2748 -0.6259 -2.8092
  156DOPC  C21418766   7.218   6.862   5.985  0.0505  0.0607  0.3077
  156DOPC  H14R18767   7.273   6.795   5.916 -0.2480 -0.3931  0.5053
  156DOPC  H14S18768   7.279   6.952   6.009  2.0135 -1.4629  1.2341
  156DOPC  C21518769   7.092   6.918   5.906  0.2796 -0.1016  0.3554
  156DOPC  H15R18770   7.013   6.840   5.899 -0.2895  0.4662  0.3432
  156DOPC  H15S18771   7.117   6.943   5.801  0.9274 -0.1766  0.4909
  156DOPC  C21618772   7.021   7.043   5.960 -0.6291 -0.2704 -0.1279
  156DOPC  H16R18773   7.098   7.099   6.017 -0.3661  1.5105 -2.1189
  156DOPC  H16S18774   6.943   7.004   6.029 -1.1579 -3.2652 -2.2360
  156DOPC  C21718775   6.948   7.137   5.859  0.8098  0.1262  0.0050
  156DOPC  H17R18776   6.887   7.066   5.798 -0.8378  1.0506  0.4932
  156DOPC  H17S18777   7.009   7.193   5.786  0.6672 -0.9483 -0.9686
  156DOPC  C21818778   6.852   7.251   5.921 -0.9165 -0.0048  0.5911
  156DOPC  H18R18779   6.789   7.205   6.000 -0.4422 -1.9080 -0.0863
  156DOPC  H18S18780   6.791   7.294   5.839  0.4487 -0.2726 -0.6212
  156DOPC  H18T18781   6.924   7.332   5.948  0.1218 -0.6357 -0.1647
  156DOPC   C3318782   6.826   7.129   6.759 -0.3087 -0.0098 -0.2395
  156DOPC   H3X18783   6.845   7.238   6.768 -1.9579  0.2146  1.3656
  156DOPC   H3Y18784   6.715   7.125   6.768 -0.4260  2.0018 -0.3519
  156DOPC   C3418785   6.865   7.080   6.622 -0.1318 -0.2019 -0.4411
  156DOPC   H4X18786   6.882   6.970   6.629  2.5755  0.1962  0.5050
  156DOPC   H4Y18787   6.957   7.125   6.579 -0.3594  0.9239  0.2075
  156DOPC   C3518788   6.757   7.109   6.513  0.2341 -0.3447  0.4662
  156DOPC   H5X18789   6.738   7.218   6.505 -1.2022 -0.4703  1.8063
  156DOPC   H5Y18790   6.662   7.064   6.547  0.4322  0.5108  2.2355
  156DOPC   C3618791   6.794   7.046   6.381  0.9856  0.1271 -0.0968
  156DOPC   H6X18792   6.901   7.067   6.359  0.9236 -1.0045 -1.6248
  156DOPC   H6Y18793   6.783   6.937   6.394  0.3835  0.3681  1.6240
  156DOPC   C3718794   6.709   7.097   6.268  0.5927 -0.7984  0.6565
  156DOPC   H7X18795   6.721   7.207   6.256  0.4479 -0.6785  1.5449
  156DOPC   H7Y18796   6.748   7.056   6.172 -1.5161  2.5976 -1.9045
  156DOPC   C3818797   6.565   7.048   6.290 -0.6945  0.0456  1.0682
  156DOPC   H8X18798   6.540   7.089   6.390 -0.1579  0.7746  0.9221
  156DOPC   H8Y18799   6.576   6.938   6.292 -1.1315 -0.0032  3.0455
  156DOPC   C3918800   6.467   7.093   6.191 -0.2583 -0.5785  1.0910
  156DOPC   H9X18801   6.451   7.201   6.200 -0.4422 -0.2303 -2.3081
  156DOPC  C31018802   6.442   7.034   6.073 -0.5650  0.3150 -0.7159
  156DOPC  H10X18803   6.363   7.072   6.008 -1.3695  2.2672  1.2845
  156DOPC  C31118804   6.471   6.890   6.049 -0.3802 -0.1872 -0.2947
  156DOPC  H11X18805   6.569   6.870   6.098  0.5433  1.3419 -1.4042
  156DOPC  H11Y18806   6.490   6.879   5.940  4.2194  1.6639  0.0915
  156DOPC  C31218807   6.377   6.772   6.075  0.5760 -0.6810 -0.2143
  156DOPC  H12X18808   6.370   6.762   6.186 -0.0586 -2.6918 -0.3940
  156DOPC  H12Y18809   6.430   6.683   6.035  0.3174 -1.8028  1.8235
  156DOPC  C31318810   6.243   6.785   6.001  0.1362 -0.9038 -0.4915
  156DOPC  H13X18811   6.249   6.834   5.902 -1.8554  1.1821  0.3419
  156DOPC  H13Y18812   6.195   6.687   5.981 -0.9917 -0.3877 -0.4023
  156DOPC  C31418813   6.140   6.866   6.090 -0.5348 -0.1193 -0.3606
  156DOPC  H14X18814   6.113   6.799   6.175  1.3357  0.6569  0.9222
  156DOPC  H14Y18815   6.190   6.958   6.127 -1.4708 -0.2755  1.3907
  156DOPC  C31518816   6.023   6.913   6.001  0.5042  0.0021  0.0314
  156DOPC  H15X18817   5.938   6.849   6.033  0.7126 -1.6043 -2.3712
  156DOPC  H15Y18818   6.043   6.888   5.895 -1.0031  1.8048 -0.7368
  156DOPC  C31618819   5.985   7.058   6.021  0.0965  0.2324  0.3521
  156DOPC  H16X18820   5.991   7.082   6.129 -1.2677  3.9417 -0.2279
  156DOPC  H16Y18821   6.048   7.133   5.968 -1.6783  2.2357  0.9349
  156DOPC  C31718822   5.839   7.091   5.975  0.4298 -0.2801 -0.6900
  156DOPC  H17X18823   5.771   7.006   5.997  1.0005 -0.5257  0.1878
  156DOPC  H17Y18824   5.802   7.170   6.044 -1.3246 -0.3397 -1.5228
  156DOPC  C31818825   5.819   7.142   5.839 -0.0758 -0.0627  0.1335
  156DOPC  H18X18826   5.884   7.231   5.824  0.9731 -0.5898  1.3273
  156DOPC  H18Y18827   5.841   7.067   5.760  1.2996  0.6565 -0.1993
  156DOPC  H18Z18828   5.714   7.173   5.826  0.7123  3.0255  0.4540
  157DOPC     N18829   5.590   1.543   8.330 -0.5597 -0.2827  0.2961
  157DOPC   C1218830   5.679   1.515   8.207 -0.0228  0.0931 -0.1116
  157DOPC  H12A18831   5.784   1.500   8.229  0.1579  0.6871 -0.5484
  157DOPC  H12B18832   5.663   1.603   8.147  0.3073  0.7282  0.7057
  157DOPC   C1318833   5.644   1.664   8.402 -0.1306 -0.3917  0.1386
  157DOPC  H13A18834   5.586   1.698   8.486 -0.9584 -0.9981 -0.1787
  157DOPC  H13B18835   5.748   1.649   8.428  0.5723  1.4681 -1.3281
  157DOPC  H13C18836   5.648   1.745   8.331  0.2818 -1.0254 -0.5855
  157DOPC   C1418837   5.596   1.425   8.425  0.3021 -1.2024  0.3032
  157DOPC  H14A18838   5.546   1.449   8.517  0.2987  0.0474 -0.0133
  157DOPC  H14B18839   5.541   1.341   8.385 -1.0712 -0.4358  0.5251
  157DOPC  H14C18840   5.700   1.400   8.440  0.7818  0.4484 -0.0639
  157DOPC   C1518841   5.450   1.579   8.294  0.2466 -0.0737 -0.0614
  157DOPC  H15A18842   5.442   1.676   8.247  0.0970  0.7531  1.5992
  157DOPC  H15B18843   5.387   1.587   8.381 -3.0217 -1.5750 -2.1150
  157DOPC  H15C18844   5.401   1.507   8.230 -1.0681  0.7156  0.0167
  157DOPC   C1118845   5.642   1.396   8.112  0.4060 -0.4491  0.5206
  157DOPC  H11A18846   5.725   1.402   8.039  0.2346 -0.4758  0.3225
  157DOPC  H11B18847   5.656   1.295   8.156 -0.2507 -1.8484 -2.2502
  157DOPC     P18848   5.428   1.326   7.967  0.0888  0.1168  0.2263
  157DOPC   O1318849   5.320   1.415   7.928  0.6451 -0.8091 -0.2493
  157DOPC   O1418850   5.384   1.203   8.043 -0.0472 -0.3603 -0.3779
  157DOPC   O1218851   5.519   1.421   8.048 -0.1633 -0.5141 -0.3444
  157DOPC   O1118852   5.519   1.279   7.848 -0.2570  0.2275  0.0680
  157DOPC    C118853   5.607   1.352   7.768  0.0140  0.1480 -0.6422
  157DOPC    HA18854   5.676   1.287   7.710  0.2915  0.6197 -0.8453
  157DOPC    HB18855   5.681   1.406   7.830  2.7562 -3.3361 -0.5665
  157DOPC    C218856   5.536   1.444   7.669  0.3130  0.0966 -0.6712
  157DOPC    HS18857   5.505   1.528   7.734 -0.3496 -1.8738  1.7379
  157DOPC   O2118858   5.442   1.368   7.596  0.3499 -0.1852 -0.1416
  157DOPC   C2118859   5.327   1.433   7.574  0.3307 -0.4733 -0.0293
  157DOPC   O2218860   5.303   1.547   7.612  0.3165 -0.0393 -0.3085
  157DOPC   C2218861   5.225   1.346   7.493 -0.6150  0.1897 -0.0905
  157DOPC   H2R18862   5.134   1.405   7.471  1.1222  2.2024 -2.4881
  157DOPC   H2S18863   5.219   1.251   7.550 -0.5164  0.2573  0.0312
  157DOPC    C318864   5.648   1.505   7.570  1.0655  0.5480 -0.0945
  157DOPC    HX18865   5.709   1.416   7.544  0.4527 -0.3998  1.5598
  157DOPC    HY18866   5.707   1.569   7.640 -0.7174  2.3366 -0.1465
  157DOPC   O3118867   5.599   1.575   7.454  0.4804 -0.1102 -0.1171
  157DOPC   C3118868   5.692   1.603   7.363 -0.6556  0.2906  0.1193
  157DOPC   O3218869   5.810   1.587   7.384 -0.5691  0.0153  0.2998
  157DOPC   C3218870   5.626   1.655   7.235  0.1543 -0.0443  0.2812
  157DOPC   H2X18871   5.524   1.614   7.222 -0.0613  1.0142 -1.6998
  157DOPC   H2Y18872   5.608   1.763   7.259 -0.1067 -0.1146  0.4063
  157DOPC   C2318873   5.291   1.308   7.353 -0.2226  0.3182  0.6215
  157DOPC   H3R18874   5.251   1.206   7.341 -0.7459  0.5314  0.5297
  157DOPC   H3S18875   5.402   1.306   7.363 -0.0891  0.3999 -0.7002
  157DOPC   C2418876   5.249   1.404   7.244 -0.5416 -0.3535  0.4301
  157DOPC   H4R18877   5.307   1.499   7.248 -1.9139  0.6547 -1.6707
  157DOPC   H4S18878   5.143   1.424   7.266 -0.2845  0.4435  0.9850
  157DOPC   C2518879   5.266   1.349   7.098  0.0102  0.3200 -0.9478
  157DOPC   H5R18880   5.202   1.413   7.033 -0.8967 -1.7148 -2.1514
  157DOPC   H5S18881   5.210   1.253   7.097  0.8449 -0.1881 -2.1827
  157DOPC   C2618882   5.405   1.356   7.031 -0.7438  0.3963  0.2160
  157DOPC   H6R18883   5.464   1.273   7.074 -2.5974 -1.6097 -0.8866
  157DOPC   H6S18884   5.459   1.450   7.055  1.0623 -0.6087  0.2698
  157DOPC   C2718885   5.401   1.344   6.869  0.8690  0.0747 -0.9303
  157DOPC   H7R18886   5.330   1.423   6.836  0.4510 -0.2123 -0.7210
  157DOPC   H7S18887   5.351   1.248   6.847 -2.5210  1.2517  0.9831
  157DOPC   C2818888   5.551   1.347   6.808  0.3575 -0.3958  0.5801
  157DOPC   H8R18889   5.623   1.278   6.855 -0.0536 -0.3144  1.3362
  157DOPC   H8S18890   5.590   1.448   6.833 -0.2955 -0.1555  0.6386
  157DOPC   C2918891   5.551   1.327   6.659  0.3826  0.1120  0.1728
  157DOPC   H9R18892   5.548   1.426   6.612 -1.3546  1.0486  2.0613
  157DOPC  C21018893   5.572   1.209   6.591  0.4299  0.2431  0.2020
  157DOPC  H10R18894   5.584   1.211   6.481 -1.0126  0.3861  0.0226
  157DOPC  C21118895   5.557   1.071   6.652  0.0473 -0.4454  0.2488
  157DOPC  H11R18896   5.475   1.025   6.591 -0.4199 -2.3473  2.1826
  157DOPC  H11S18897   5.526   1.082   6.758  1.3587  0.6262  0.5535
  157DOPC  C21218898   5.672   0.976   6.647 -0.6057  0.3113 -0.1595
  157DOPC  H12R18899   5.702   0.963   6.540 -0.6376 -1.8078  0.0471
  157DOPC  H12S18900   5.640   0.880   6.693  1.9973 -1.8272 -2.3905
  157DOPC  C21318901   5.800   1.024   6.714 -0.1259  0.0055 -0.5843
  157DOPC  H13R18902   5.853   0.943   6.768  1.9112 -0.0495 -2.5039
  157DOPC  H13S18903   5.765   1.083   6.801 -0.6258 -1.8609  0.5479
  157DOPC  C21418904   5.904   1.111   6.631  0.1528  0.1430  0.4751
  157DOPC  H14R18905   5.854   1.193   6.575  0.0221  1.1422  1.9814
  157DOPC  H14S18906   5.967   1.050   6.564  0.6680  0.5736  0.5612
  157DOPC  C21518907   6.002   1.184   6.725 -0.4252 -0.0164 -0.0518
  157DOPC  H15R18908   5.949   1.215   6.818 -2.0987  0.2301 -1.0452
  157DOPC  H15S18909   6.022   1.281   6.674 -1.8945 -0.1649 -0.9684
  157DOPC  C21618910   6.130   1.102   6.742  0.5113 -0.4092 -0.1123
  157DOPC  H16R18911   6.156   1.070   6.639  0.8358 -0.1498 -0.1131
  157DOPC  H16S18912   6.108   1.002   6.784 -0.7071  0.2718  0.9320
  157DOPC  C21718913   6.245   1.165   6.816 -0.3092  0.3940  0.6875
  157DOPC  H17R18914   6.215   1.181   6.921 -0.7608  1.5354  0.4030
  157DOPC  H17S18915   6.258   1.273   6.793  0.0715  0.6212  1.8839
  157DOPC  C21818916   6.375   1.077   6.804 -0.1679 -0.2709 -0.1667
  157DOPC  H18R18917   6.471   1.129   6.824 -0.4371  0.2130 -0.1217
  157DOPC  H18S18918   6.383   1.028   6.705  0.5047 -0.2240 -0.1337
  157DOPC  H18T18919   6.359   0.993   6.875  1.7384  1.0332  1.9515
  157DOPC   C3318920   5.708   1.619   7.111  0.1393  0.5029  0.4610
  157DOPC   H3X18921   5.641   1.584   7.030  2.3048  1.6275 -1.9742
  157DOPC   H3Y18922   5.781   1.538   7.132  1.4495  1.5362  0.0362
  157DOPC   C3418923   5.799   1.736   7.059 -0.5362  0.1445 -0.5985
  157DOPC   H4X18924   5.878   1.758   7.135 -0.7657  0.6235 -0.4929
  157DOPC   H4Y18925   5.722   1.816   7.052 -0.4043  0.1152 -3.2801
  157DOPC   C3518926   5.853   1.714   6.926 -0.4282  0.2869 -0.1135
  157DOPC   H5X18927   5.772   1.722   6.850 -0.8495 -0.2861  0.2716
  157DOPC   H5Y18928   5.898   1.613   6.922  0.1804  0.5512 -0.1057
  157DOPC   C3618929   5.962   1.812   6.886 -0.0249 -0.5406 -0.0027
  157DOPC   H6X18930   5.923   1.915   6.875 -0.2501 -0.5019  1.0988
  157DOPC   H6Y18931   6.037   1.795   6.966  0.7398 -1.0465 -0.8070
  157DOPC   C3718932   6.024   1.768   6.752  0.0932 -0.2220 -0.4386
  157DOPC   H7X18933   6.122   1.818   6.734  1.3491 -2.4748 -0.1390
  157DOPC   H7Y18934   6.046   1.661   6.769  1.6971 -0.0096 -0.9524
  157DOPC   C3818935   5.942   1.784   6.625  0.4407  0.3869 -0.4939
  157DOPC   H8X18936   5.930   1.893   6.608 -0.0927  1.1588  3.7084
  157DOPC   H8Y18937   5.839   1.749   6.651 -0.3912  2.2635 -1.1327
  157DOPC   C3918938   5.990   1.708   6.504 -0.0228 -0.2989 -0.2971
  157DOPC   H9X18939   5.982   1.599   6.521  0.9034  0.1048  3.7302
  157DOPC  C31018940   6.033   1.759   6.383  0.3941 -0.0278 -0.2470
  157DOPC  H10X18941   6.069   1.687   6.308  2.4908  0.8066 -0.0971
  157DOPC  C31118942   6.032   1.907   6.348 -0.0230  0.1135  0.2720
  157DOPC  H11X18943   6.097   1.969   6.413 -0.2540 -0.7211  1.3051
  157DOPC  H11Y18944   5.928   1.945   6.361 -0.2281 -1.0848  2.4795
  157DOPC  C31218945   6.086   1.929   6.204 -0.5653  0.8002  0.3937
  157DOPC  H12X18946   6.070   2.034   6.171 -0.7367  0.9654  0.9895
  157DOPC  H12Y18947   6.024   1.863   6.140 -2.6353 -0.6665  3.6192
  157DOPC  C31318948   6.239   1.914   6.199  0.5924  0.8775  0.5286
  157DOPC  H13X18949   6.278   1.842   6.274 -1.4219  0.1206  0.9109
  157DOPC  H13Y18950   6.274   1.877   6.100 -2.8529  1.0530 -0.8735
  157DOPC  C31418951   6.311   2.053   6.225  0.0217 -0.7084  0.4052
  157DOPC  H14X18952   6.262   2.128   6.160  3.1759 -0.8085 -2.3495
  157DOPC  H14Y18953   6.290   2.084   6.330 -3.3982 -0.3137 -0.2712
  157DOPC  C31518954   6.460   2.063   6.194 -0.4075  0.2909 -0.1255
  157DOPC  H15X18955   6.482   1.985   6.119  0.4411  0.3876  0.0092
  157DOPC  H15Y18956   6.509   2.030   6.288  1.6788  0.1042 -1.2263
  157DOPC  C31618957   6.518   2.201   6.145 -0.2995 -0.3201  0.0831
  157DOPC  H16X18958   6.448   2.230   6.063  1.9505  2.1845 -1.1427
  157DOPC  H16Y18959   6.510   2.277   6.226 -1.3141  1.4034 -1.5399
  157DOPC  C31718960   6.665   2.210   6.087 -0.3952  0.1911 -0.0007
  157DOPC  H17X18961   6.677   2.148   5.996  2.3493  2.0223 -0.9761
  157DOPC  H17Y18962   6.670   2.312   6.046 -0.8517  0.1107 -0.2690
  157DOPC  C31818963   6.781   2.177   6.189 -0.5808  0.3326 -0.0823
  157DOPC  H18X18964   6.731   2.115   6.266  2.8802  0.2256  2.3084
  157DOPC  H18Y18965   6.868   2.129   6.140 -1.7576 -1.6088 -0.3773
  157DOPC  H18Z18966   6.829   2.268   6.231  1.6730 -0.1422 -1.4774
  158DOPC     N18967   3.790   7.520   7.352  0.2496 -0.3000 -0.6002
  158DOPC   C1218968   3.853   7.427   7.246 -0.1813  0.1961  0.1173
  158DOPC  H12A18969   3.793   7.338   7.260 -2.9119  1.9450  0.3861
  158DOPC  H12B18970   3.955   7.404   7.271  0.5787 -0.8251 -3.3322
  158DOPC   C1318971   3.750   7.447   7.475 -0.9178  0.2830  0.5111
  158DOPC  H13A18972   3.732   7.513   7.559  0.2914  1.5677 -0.1829
  158DOPC  H13B18973   3.659   7.389   7.470 -1.0811  0.6115 -0.6146
  158DOPC  H13C18974   3.830   7.379   7.500  0.7752  1.4365 -1.4540
  158DOPC   C1418975   3.667   7.587   7.303  0.1089 -0.1405 -0.1996
  158DOPC  H14A18976   3.589   7.513   7.291  0.4981 -0.5936  0.0306
  158DOPC  H14B18977   3.635   7.677   7.354 -0.2630 -0.1308 -0.4419
  158DOPC  H14C18978   3.692   7.614   7.201  0.1120 -1.3827 -0.5477
  158DOPC   C1518979   3.888   7.627   7.396 -0.4262  0.9892  0.2016
  158DOPC  H15A18980   3.830   7.690   7.462 -0.7021  1.5513 -0.5640
  158DOPC  H15B18981   3.928   7.680   7.311 -2.8682 -0.2503 -1.8587
  158DOPC  H15C18982   3.967   7.585   7.456  0.1585  0.7535 -0.7201
  158DOPC   C1118983   3.842   7.461   7.092  0.3465 -0.6757 -0.8045
  158DOPC  H11A18984   3.892   7.555   7.063 -0.6071 -0.3342 -1.3695
  158DOPC  H11B18985   3.882   7.364   7.054 -0.3706 -1.8013  1.1214
  158DOPC     P18986   3.657   7.407   6.918 -0.0225  0.0196  0.4204
  158DOPC   O1318987   3.560   7.490   6.853  0.6151  0.3088  0.1611
  158DOPC   O1418988   3.628   7.260   6.932  0.0869 -0.6160 -0.1643
  158DOPC   O1218989   3.697   7.469   7.053 -0.2943 -0.4456  0.0115
  158DOPC   O1118990   3.793   7.423   6.827  0.5034 -0.8353 -0.5538
  158DOPC    C118991   3.831   7.538   6.757  0.0362 -0.0157  1.0271
  158DOPC    HA18992   3.941   7.550   6.764  0.5715 -2.5180 -1.5828
  158DOPC    HB18993   3.781   7.632   6.792 -2.7231 -1.2390  0.6291
  158DOPC    C218994   3.782   7.520   6.606 -0.5317  0.5111 -0.7076
  158DOPC    HS18995   3.672   7.511   6.604 -0.4708 -0.2355 -1.3125
  158DOPC   O2118996   3.854   7.405   6.547  0.2346 -0.0914  0.0573
  158DOPC   C2118997   3.781   7.324   6.467 -0.8630 -0.1539  0.0461
  158DOPC   O2218998   3.667   7.331   6.434 -0.2763  0.2173 -0.7400
  158DOPC   C2218999   3.883   7.217   6.412  0.0350  0.2171 -0.0110
  158DOPC   H2R19000   3.921   7.154   6.495  4.4964  0.6894 -1.4353
  158DOPC   H2S19001   3.972   7.264   6.365 -0.2098  0.0533 -0.6475
  158DOPC    C319002   3.821   7.649   6.532  0.7117  0.5748  0.1119
  158DOPC    HX19003   3.930   7.658   6.552  0.5288 -0.9376  2.0510
  158DOPC    HY19004   3.776   7.742   6.571 -0.3846 -0.4285  1.3092
  158DOPC   O3119005   3.799   7.646   6.390  0.0838 -0.5594 -0.3801
  158DOPC   C3119006   3.672   7.643   6.361 -0.1889 -0.1944  0.9062
  158DOPC   O3219007   3.579   7.651   6.439 -0.3207 -0.2812  0.2626
  158DOPC   C3219008   3.657   7.635   6.207 -0.1243 -0.0078 -0.5249
  158DOPC   H2X19009   3.737   7.695   6.158 -1.8584  1.9978 -1.0645
  158DOPC   H2Y19010   3.653   7.528   6.180 -0.4922 -1.0841  3.2635
  158DOPC   C2319011   3.811   7.143   6.301 -0.8504 -0.0750 -0.2216
  158DOPC   H3R19012   3.711   7.112   6.339 -2.0069  1.3843 -1.9344
  158DOPC   H3S19013   3.854   7.043   6.276  0.2763  0.6275 -1.1863
  158DOPC   C2419014   3.808   7.220   6.162  0.2009  0.3341  0.2307
  158DOPC   H4R19015   3.909   7.242   6.122 -0.3169  0.6998 -0.9309
  158DOPC   H4S19016   3.767   7.322   6.178  2.9289  1.6198 -0.4424
  158DOPC   C2519017   3.726   7.143   6.058 -0.1905 -0.4115  0.2402
  158DOPC   H5R19018   3.633   7.117   6.113  0.7405 -0.4528  1.8516
  158DOPC   H5S19019   3.762   7.049   6.009 -1.2774 -0.5994 -0.2183
  158DOPC   C2619020   3.683   7.227   5.942  0.3213 -0.3629 -0.1387
  158DOPC   H6R19021   3.769   7.239   5.873  0.1176 -0.4241 -0.4073
  158DOPC   H6S19022   3.644   7.327   5.971  0.6269  0.1825 -1.5070
  158DOPC   C2719023   3.562   7.173   5.868  0.7325 -0.2693  0.7912
  158DOPC   H7R19024   3.469   7.228   5.893  0.1847  0.1600 -1.8886
  158DOPC   H7S19025   3.546   7.067   5.898 -0.3886  0.1863  1.8908
  158DOPC   C2819026   3.589   7.178   5.717  1.0457  0.4426  0.1139
  158DOPC   H8R19027   3.512   7.111   5.675  0.5439  0.1076  1.5099
  158DOPC   H8S19028   3.691   7.140   5.697  1.0551 -0.0800  1.0840
  158DOPC   C2919029   3.570   7.317   5.656  0.2455  0.0232  0.0497
  158DOPC   H9R19030   3.659   7.379   5.672  0.4402 -0.1752 -0.2438
  158DOPC  C21019031   3.449   7.370   5.624 -0.0805  0.2136  0.2884
  158DOPC  H10R19032   3.451   7.472   5.583  0.0933  0.6481  1.3498
  158DOPC  C21119033   3.315   7.301   5.625  0.0327  0.7911  0.3488
  158DOPC  H11R19034   3.329   7.191   5.626 -1.0493  0.6305 -0.7442
  158DOPC  H11S19035   3.264   7.316   5.528  0.1807 -0.9448 -0.0335
  158DOPC  C21219036   3.234   7.339   5.751 -0.2827 -0.2610 -0.4829
  158DOPC  H12R19037   3.290   7.312   5.843  0.5210  0.3426 -0.7886
  158DOPC  H12S19038   3.153   7.263   5.750  0.4751 -1.1504  1.2858
  158DOPC  C21319039   3.176   7.483   5.755 -0.0177  0.7498 -0.1359
  158DOPC  H13R19040   3.128   7.506   5.658 -0.2528  0.6745 -0.0382
  158DOPC  H13S19041   3.258   7.557   5.772 -0.2865  0.9128  0.4872
  158DOPC  C21419042   3.074   7.501   5.869 -0.3305 -0.1085  0.2087
  158DOPC  H14R19043   2.966   7.479   5.861 -1.1100  3.0311  0.8338
  158DOPC  H14S19044   3.078   7.612   5.872 -0.2099 -0.1291  0.9216
  158DOPC  C21519045   3.118   7.443   6.002  0.0352 -0.3897  0.5525
  158DOPC  H15R19046   3.229   7.435   6.005  0.0279 -0.5767  0.3567
  158DOPC  H15S19047   3.077   7.340   6.007 -0.3401 -0.2971 -0.4896
  158DOPC  C21619048   3.047   7.509   6.123 -0.1498 -0.2657  0.1965
  158DOPC  H16R19049   2.937   7.514   6.107  0.0874  0.4754 -1.3608
  158DOPC  H16S19050   3.076   7.615   6.142 -1.7399  0.0371  1.1399
  158DOPC  C21719051   3.062   7.430   6.255 -0.2423  0.0280  0.0817
  158DOPC  H17R19052   3.008   7.487   6.333  0.3617 -0.3322  0.7797
  158DOPC  H17S19053   3.165   7.424   6.295 -0.4193  0.7335  0.6565
  158DOPC  C21819054   3.004   7.290   6.254  1.1838  0.1131  0.4908
  158DOPC  H18R19055   2.894   7.294   6.239  1.4163  2.8739 -1.1601
  158DOPC  H18S19056   3.018   7.250   6.357  1.6144 -0.6806  0.1251
  158DOPC  H18T19057   3.057   7.222   6.184  1.6254  0.1862  0.7520
  158DOPC   C3319058   3.512   7.689   6.167 -0.5700 -0.1495 -0.0118
  158DOPC   H3X19059   3.488   7.790   6.205  2.1534 -0.0149  1.6265
  158DOPC   H3Y19060   3.450   7.619   6.227  0.8378 -0.9660  0.5505
  158DOPC   C3419061   3.477   7.672   6.018 -0.5886 -0.3681 -0.8871
  158DOPC   H4X19062   3.367   7.683   6.004 -0.5372 -0.0729 -1.0608
  158DOPC   H4Y19063   3.490   7.568   5.980  0.5668  0.5976 -3.2753
  158DOPC   C3519064   3.560   7.767   5.936  0.0300 -0.2353  0.4433
  158DOPC   H5X19065   3.660   7.720   5.928  0.2935  0.4103 -0.1677
  158DOPC   H5Y19066   3.580   7.868   5.978  0.3927  0.1735 -0.6665
  158DOPC   C3619067   3.510   7.785   5.795  0.4773  0.7360 -0.1500
  158DOPC   H6X19068   3.529   7.695   5.733 -1.7320  1.4489 -2.0018
  158DOPC   H6Y19069   3.400   7.802   5.792  0.3518 -0.1624 -0.9482
  158DOPC   C3719070   3.584   7.899   5.726 -0.0770  0.1255 -0.0885
  158DOPC   H7X19071   3.567   7.990   5.788 -3.8337 -0.2737 -0.3094
  158DOPC   H7Y19072   3.692   7.876   5.737 -0.2211  0.1414  1.7769
  158DOPC   C3819073   3.535   7.908   5.579  0.9023  0.1204 -0.4410
  158DOPC   H8X19074   3.555   8.014   5.553  1.4923  0.3852  0.9931
  158DOPC   H8Y19075   3.428   7.883   5.569  1.2959 -1.9074 -0.2035
  158DOPC   C3919076   3.590   7.801   5.489  0.0855  0.1822  0.4845
  158DOPC   H9X19077   3.560   7.700   5.521 -1.0186  0.7896  1.4400
  158DOPC  C31019078   3.675   7.824   5.382  0.1222  0.2381 -0.3789
  158DOPC  H10X19079   3.694   7.736   5.319  0.4296 -1.2082  1.6415
  158DOPC  C31119080   3.733   7.945   5.322  0.2585  0.8204 -0.2231
  158DOPC  H11X19081   3.843   7.937   5.308  0.5358  0.7481  1.7392
  158DOPC  H11Y19082   3.728   8.035   5.387  1.8027  0.5973  0.2618
  158DOPC  C31219083   3.682   7.969   5.180  0.0460  0.3125  0.1659
  158DOPC  H12X19084   3.701   7.883   5.113 -1.7147  0.1326 -0.1618
  158DOPC  H12Y19085   3.739   8.056   5.140  1.2824 -0.0644  1.0493
  158DOPC  C31319086   3.535   7.999   5.167 -0.0449 -0.1341  0.0534
  158DOPC  H13X19087   3.472   7.921   5.213 -0.7212  1.0462  1.1822
  158DOPC  H13Y19088   3.507   8.095   5.215  1.2859  0.6993 -0.7392
  158DOPC  C31419089   3.497   7.994   5.023 -0.2647 -0.4340  0.5945
  158DOPC  H14X19090   3.542   7.903   4.976  0.2789 -0.3914  1.0237
  158DOPC  H14Y19091   3.388   7.985   5.009 -0.7293  2.3711  1.7489
  158DOPC  C31519092   3.545   8.118   4.941 -0.1970  0.0131 -0.5770
  158DOPC  H15X19093   3.642   8.114   4.888 -0.4295  0.7954 -1.0729
  158DOPC  H15Y19094   3.555   8.197   5.018 -0.9107 -1.1995  0.8149
  158DOPC  C31619095   3.431   8.176   4.846  0.3695 -0.0460 -0.2905
  158DOPC  H16X19096   3.427   8.110   4.757  1.5348  1.1997 -1.3262
  158DOPC  H16Y19097   3.333   8.157   4.894  1.7694 -1.6327  2.1796
  158DOPC  C31719098   3.453   8.317   4.789  0.4133  0.3150 -0.0787
  158DOPC  H17X19099   3.445   8.380   4.880 -3.7476  0.6236 -0.4600
  158DOPC  H17Y19100   3.552   8.321   4.740  0.8996 -4.5193 -0.0078
  158DOPC  C31819101   3.334   8.358   4.693 -0.3987  0.2643  0.3157
  158DOPC  H18X19102   3.344   8.467   4.674  1.3862 -0.2880 -2.3901
  158DOPC  H18Y19103   3.353   8.304   4.599  0.7234 -2.9116  2.2071
  158DOPC  H18Z19104   3.238   8.326   4.741 -0.2550 -1.6520 -0.6017
  159DOPC     N19105   5.471   0.940   7.756 -0.3232 -0.4185  0.7278
  159DOPC   C1219106   5.408   0.806   7.720 -0.1600  0.1859 -0.5840
  159DOPC  H12A19107   5.416   0.789   7.614 -0.9012 -0.2505 -0.5790
  159DOPC  H12B19108   5.303   0.803   7.746  0.0415 -0.2794  0.1993
  159DOPC   C1319109   5.608   0.951   7.696  0.3767  0.3525 -0.0413
  159DOPC  H13A19110   5.656   1.046   7.711  1.4306 -0.1728  0.0461
  159DOPC  H13B19111   5.667   0.865   7.726  2.1771  1.6241  0.1962
  159DOPC  H13C19112   5.596   0.943   7.589  0.4667 -0.2770 -0.0071
  159DOPC   C1419113   5.490   0.953   7.904 -0.4563 -0.0791  0.5868
  159DOPC  H14A19114   5.568   0.891   7.944 -1.2320 -2.0049 -0.7193
  159DOPC  H14B19115   5.535   1.049   7.922  1.4092 -0.5905 -1.0142
  159DOPC  H14C19116   5.401   0.937   7.964 -2.2833 -0.5077 -2.0522
  159DOPC   C1519117   5.392   1.058   7.705  0.0939  0.8876  0.4415
  159DOPC  H15A19118   5.385   1.064   7.597 -3.2593 -1.2443  0.3847
  159DOPC  H15B19119   5.433   1.152   7.738 -0.3200  1.3272 -0.2730
  159DOPC  H15C19120   5.290   1.057   7.739 -0.3963 -1.8450 -0.7770
  159DOPC   C1119121   5.458   0.674   7.786  0.1744  0.9719  0.8917
  159DOPC  H11A19122   5.445   0.689   7.895 -2.2886  1.3593  0.6152
  159DOPC  H11B19123   5.381   0.597   7.764 -0.5432  1.7981  0.4589
  159DOPC     P19124   5.608   0.563   7.612  0.0358  0.1306  0.2543
  159DOPC   O1319125   5.547   0.428   7.620 -0.8638 -0.0578 -0.6564
  159DOPC   O1419126   5.750   0.556   7.580 -0.3394  0.9255  0.4391
  159DOPC   O1219127   5.587   0.634   7.748  0.0552  0.3781  0.5587
  159DOPC   O1119128   5.536   0.665   7.512  0.2873 -0.0609 -0.2373
  159DOPC    C119129   5.519   0.645   7.378  0.8622 -0.1490 -0.1011
  159DOPC    HA19130   5.427   0.698   7.345  0.7672  0.0784  0.5132
  159DOPC    HB19131   5.494   0.538   7.356 -0.9534 -0.0370  1.1591
  159DOPC    C219132   5.633   0.708   7.292  0.2148  0.1417 -0.3874
  159DOPC    HS19133   5.724   0.646   7.310 -0.5754 -0.3822  2.3964
  159DOPC   O2119134   5.656   0.838   7.350  0.0283 -1.0405  0.5107
  159DOPC   C2119135   5.771   0.885   7.319 -0.0492  0.4101  0.2196
  159DOPC   O2219136   5.853   0.818   7.255 -0.9296 -0.2691 -0.4917
  159DOPC   C2219137   5.783   1.036   7.354 -0.5760 -0.3248  0.0783
  159DOPC   H2R19138   5.857   1.034   7.437  0.8909 -0.7286 -1.2052
  159DOPC   H2S19139   5.684   1.077   7.386 -0.1245  0.1066  0.9482
  159DOPC    C319140   5.603   0.718   7.145  0.4638 -0.2510 -0.0570
  159DOPC    HX19141   5.571   0.617   7.109  1.6216 -1.0199  0.9802
  159DOPC    HY19142   5.693   0.751   7.089  0.3281  0.3908  0.1009
  159DOPC   O3119143   5.484   0.802   7.124 -0.1459 -0.1057 -0.6055
  159DOPC   C3119144   5.504   0.930   7.087 -0.4991  0.3919  0.0790
  159DOPC   O3219145   5.612   0.977   7.056  0.3646 -0.0477 -0.0523
  159DOPC   C3219146   5.363   0.989   7.066  0.0684 -0.1035  0.4139
  159DOPC   H2X19147   5.310   0.993   7.164  0.2147  1.6150  0.4659
  159DOPC   H2Y19148   5.381   1.094   7.034  0.6459  0.0567  1.2355
  159DOPC   C2319149   5.828   1.113   7.231  0.0090  0.2402 -0.5524
  159DOPC   H3R19150   5.743   1.148   7.168 -1.6882 -2.1442  0.2333
  159DOPC   H3S19151   5.899   1.053   7.171  0.7353 -0.2664  0.7845
  159DOPC   C2419152   5.907   1.243   7.274  0.0226  0.1605  0.9213
  159DOPC   H4R19153   5.994   1.211   7.337 -0.2810  0.4479  1.4929
  159DOPC   H4S19154   5.841   1.303   7.339  0.0114  4.4466 -2.5568
  159DOPC   C2519155   5.970   1.313   7.153  0.3696 -0.7663 -0.4581
  159DOPC   H5R19156   5.887   1.345   7.087 -0.0633 -1.8757 -0.4632
  159DOPC   H5S19157   6.005   1.226   7.094  2.1707  0.0961 -0.7359
  159DOPC   C2619158   6.080   1.414   7.178  0.0043 -0.0610 -0.4270
  159DOPC   H6R19159   6.152   1.377   7.255 -1.2359 -0.9558  0.3390
  159DOPC   H6S19160   6.027   1.497   7.228  3.4396  2.8300 -1.1686
  159DOPC   C2719161   6.160   1.451   7.047  0.0342 -0.3420 -0.5422
  159DOPC   H7R19162   6.098   1.460   6.955 -0.9611 -0.5847  0.0868
  159DOPC   H7S19163   6.218   1.359   7.025  0.0827 -1.0082  2.1083
  159DOPC   C2819164   6.256   1.567   7.074 -0.7860 -0.4476 -0.5058
  159DOPC   H8R19165   6.197   1.656   7.103 -1.7291 -1.2795  0.1911
  159DOPC   H8S19166   6.308   1.584   6.977  0.7019 -1.4869  0.0713
  159DOPC   C2919167   6.361   1.541   7.185  0.3335 -0.8230  1.1367
  159DOPC   H9R19168   6.308   1.519   7.280 -0.4551 -0.4048  0.8045
  159DOPC  C21019169   6.493   1.565   7.187  0.2391 -0.3722 -0.5244
  159DOPC  H10R19170   6.556   1.556   7.276 -0.1408  0.2701 -0.1820
  159DOPC  C21119171   6.575   1.619   7.070  0.0552  0.3423 -0.7112
  159DOPC  H11R19172   6.633   1.703   7.114 -0.4575 -1.0058  2.8820
  159DOPC  H11S19173   6.518   1.649   6.979 -0.2944  0.5173 -0.4344
  159DOPC  C21219174   6.678   1.519   7.021  0.0086  0.1105  0.0846
  159DOPC  H12R19175   6.749   1.505   7.105 -0.0866 -2.4669 -0.1750
  159DOPC  H12S19176   6.750   1.565   6.950  0.0867 -1.5839 -1.0022
  159DOPC  C21319177   6.626   1.400   6.939 -0.1051  0.7226  0.5166
  159DOPC  H13R19178   6.595   1.435   6.839  1.0046 -0.2778 -0.2071
  159DOPC  H13S19179   6.530   1.363   6.982 -1.6073 -0.3097 -3.3410
  159DOPC  C21419180   6.718   1.274   6.939  0.5665  0.8069 -0.0960
  159DOPC  H14R19181   6.664   1.180   6.911  1.8230 -0.6524  2.0355
  159DOPC  H14S19182   6.748   1.260   7.045  1.4739  2.1685 -0.1472
  159DOPC  C21519183   6.836   1.276   6.840  0.1538  0.3699  0.2715
  159DOPC  H15R19184   6.911   1.194   6.844  0.3614  0.2729 -2.9884
  159DOPC  H15S19185   6.891   1.369   6.863  3.3981 -1.8801  2.5382
  159DOPC  C21619186   6.784   1.277   6.688 -0.5846 -0.0239 -0.7130
  159DOPC  H16R19187   6.714   1.363   6.677 -0.7413  0.1326  1.1812
  159DOPC  H16S19188   6.718   1.190   6.667  1.3264 -1.4755 -0.9557
  159DOPC  C21719189   6.891   1.295   6.588  0.1256  0.0831 -0.2375
  159DOPC  H17R19190   6.964   1.213   6.604 -1.1300 -0.8173  1.0963
  159DOPC  H17S19191   6.941   1.388   6.623  0.1167 -0.4602  1.2874
  159DOPC  C21819192   6.837   1.312   6.449 -0.3684  0.6556  0.1838
  159DOPC  H18R19193   6.809   1.209   6.419 -1.9585  1.3008 -0.6708
  159DOPC  H18S19194   6.919   1.345   6.381  0.5312  0.7181  1.2616
  159DOPC  H18T19195   6.749   1.379   6.441  0.6701  1.8307 -2.6583
  159DOPC   C3319196   5.273   0.919   6.964 -0.3648  0.7712  0.3781
  159DOPC   H3X19197   5.244   0.825   7.015 -4.6995  2.3923  1.3107
  159DOPC   H3Y19198   5.314   0.871   6.872 -2.5285  2.6024 -1.6586
  159DOPC   C3419199   5.144   0.997   6.949 -0.3052 -0.2789  0.0161
  159DOPC   H4X19200   5.167   1.106   6.940  0.8517 -0.4478  0.7138
  159DOPC   H4Y19201   5.078   0.988   7.038 -2.6207 -0.0342 -1.5774
  159DOPC   C3519202   5.068   0.944   6.832  0.5343  0.4331 -0.0053
  159DOPC   H5X19203   4.960   0.967   6.827  0.7413  1.2211 -1.0831
  159DOPC   H5Y19204   5.071   0.833   6.839  0.8805  0.5144  1.8303
  159DOPC   C3619205   5.128   0.995   6.697  0.4934 -0.4286  0.3743
  159DOPC   H6X19206   5.236   1.007   6.720  0.3580 -0.7776  1.2416
  159DOPC   H6Y19207   5.109   0.915   6.622 -3.0471 -0.2466  0.8916
  159DOPC   C3719208   5.065   1.136   6.658  0.7348  0.3872  0.2864
  159DOPC   H7X19209   4.954   1.135   6.664  0.7077  1.2974  0.2078
  159DOPC   H7Y19210   5.118   1.202   6.730  0.4053  0.5494  0.3848
  159DOPC   C3819211   5.116   1.187   6.524 -0.2541 -0.0440  0.6631
  159DOPC   H8X19212   5.227   1.187   6.515 -0.2561  0.0508  0.6380
  159DOPC   H8Y19213   5.087   1.291   6.500  2.1688  0.3373 -0.9160
  159DOPC   C3919214   5.053   1.114   6.405 -0.1091  0.1612 -0.0040
  159DOPC   H9X19215   5.016   1.012   6.422  1.6342 -1.0137 -2.6340
  159DOPC  C31019216   5.042   1.168   6.283 -0.2466 -0.2416  0.8030
  159DOPC  H10X19217   4.984   1.116   6.206 -0.3665 -0.3327  0.9541
  159DOPC  C31119218   5.113   1.294   6.236 -0.4917  0.5748 -0.0320
  159DOPC  H11X19219   5.134   1.356   6.325 -0.0766 -2.0402  1.8155
  159DOPC  H11Y19220   5.045   1.346   6.165 -0.9820  1.0929  0.8051
  159DOPC  C31219221   5.247   1.281   6.159  0.2616  0.5521  0.0014
  159DOPC  H12X19222   5.315   1.211   6.212 -0.8302  0.2657  1.0614
  159DOPC  H12Y19223   5.302   1.375   6.138  0.2488  0.3585 -0.9765
  159DOPC  C31319224   5.231   1.224   6.010  0.4329  0.3046 -0.4571
  159DOPC  H13X19225   5.330   1.184   5.978  0.3531 -1.0596  0.8922
  159DOPC  H13Y19226   5.166   1.135   6.016  0.6788  0.2010  0.8527
  159DOPC  C31419227   5.178   1.314   5.899  0.3366 -0.1065 -0.4667
  159DOPC  H14X19228   5.085   1.366   5.931  1.7090  0.3030  3.4154
  159DOPC  H14Y19229   5.259   1.386   5.874  0.0178  0.0770 -0.9696
  159DOPC  C31519230   5.153   1.233   5.772  0.9216 -0.2273  0.7429
  159DOPC  H15X19231   5.066   1.174   5.809  0.4640 -0.1752 -0.2025
  159DOPC  H15Y19232   5.236   1.163   5.750 -0.8308 -1.8796 -1.1587
  159DOPC  C31619233   5.112   1.326   5.653 -0.2381 -0.7382 -0.7874
  159DOPC  H16X19234   5.199   1.384   5.616  0.6881 -1.4976  0.1041
  159DOPC  H16Y19235   5.079   1.262   5.569 -2.1993 -0.3306 -0.3752
  159DOPC  C31719236   4.989   1.423   5.670 -0.7317 -0.1418 -0.2611
  159DOPC  H17X19237   4.944   1.431   5.568  1.3437  1.8815 -1.0938
  159DOPC  H17Y19238   4.916   1.385   5.745  1.3229 -2.6127  0.5984
  159DOPC  C31819239   5.034   1.570   5.720 -0.2042  0.5407  0.0124
  159DOPC  H18X19240   5.115   1.595   5.648  0.1452  0.8595  0.5089
  159DOPC  H18Y19241   4.949   1.639   5.704 -0.4730 -0.1930 -2.0376
  159DOPC  H18Z19242   5.069   1.578   5.825 -0.0770 -0.2014  0.0329
  160DOPC     N19243   1.964   6.549   7.014  0.2940 -0.0179 -0.4641
  160DOPC   C1219244   1.876   6.572   6.897 -0.3867  0.3671  0.4893
  160DOPC  H12A19245   1.905   6.666   6.851  1.3801 -0.0209  0.7133
  160DOPC  H12B19246   1.777   6.600   6.929 -1.1853  0.4665 -1.8459
  160DOPC   C1319247   1.979   6.671   7.102  0.2274 -0.4113 -0.1586
  160DOPC  H13A19248   1.898   6.689   7.172  0.3980 -2.1785  0.5513
  160DOPC  H13B19249   2.069   6.663   7.162  1.0125  0.9149 -1.0942
  160DOPC  H13C19250   1.997   6.761   7.045  0.4704  0.9371  1.8967
  160DOPC   C1419251   2.105   6.527   6.962 -0.6911 -0.6834 -0.2017
  160DOPC  H14A19252   2.167   6.512   7.048  0.7020  0.5341 -0.9472
  160DOPC  H14B19253   2.115   6.442   6.897 -0.2936 -0.7520 -0.0483
  160DOPC  H14C19254   2.140   6.613   6.906 -1.0138 -0.5897 -0.2642
  160DOPC   C1519255   1.924   6.434   7.102 -0.4609 -0.1870  0.3987
  160DOPC  H15A19256   1.824   6.454   7.140 -0.9485 -0.9643 -0.4277
  160DOPC  H15B19257   1.999   6.429   7.179 -0.4912  0.3183  0.4672
  160DOPC  H15C19258   1.911   6.347   7.040  2.2314  0.7000 -1.5680
  160DOPC   C1119259   1.863   6.463   6.784  0.8968 -0.8133  0.1936
  160DOPC  H11A19260   1.791   6.488   6.704 -0.6621 -2.1529  1.1169
  160DOPC  H11B19261   1.957   6.451   6.725  0.0575  1.1186 -1.6533
  160DOPC     P19262   1.682   6.294   6.883 -0.1484  0.0878 -0.2052
  160DOPC   O1319263   1.609   6.418   6.929 -0.2696  0.4384 -0.1303
  160DOPC   O1419264   1.679   6.179   6.973  0.1091  0.3114 -0.9350
  160DOPC   O1219265   1.826   6.335   6.837  0.1074 -0.6268 -0.6475
  160DOPC   O1119266   1.614   6.254   6.745 -0.6371 -0.0783 -0.2481
  160DOPC    C119267   1.674   6.158   6.650 -0.1944  0.3147 -0.2877
  160DOPC    HA19268   1.611   6.069   6.628  0.3941  0.0683 -1.0096
  160DOPC    HB19269   1.763   6.112   6.699 -0.0855  1.5200  0.7110
  160DOPC    C219270   1.700   6.244   6.523 -0.4709  0.8357  0.5235
  160DOPC    HS19271   1.737   6.344   6.552 -1.5909  0.9557  1.6359
  160DOPC   O2119272   1.573   6.255   6.448  0.5143  0.2393 -0.4236
  160DOPC   C2119273   1.546   6.364   6.391  0.1964  0.1048 -0.3980
  160DOPC   O2219274   1.613   6.465   6.388 -0.3384  0.0374  0.0803
  160DOPC   C2219275   1.412   6.348   6.323 -0.0907 -0.5669  0.7406
  160DOPC   H2R19276   1.325   6.382   6.383 -0.2992  0.9127 -0.3324
  160DOPC   H2S19277   1.414   6.243   6.288  4.3609  0.4231 -3.0538
  160DOPC    C319278   1.809   6.169   6.440 -0.1286 -0.2925 -0.1770
  160DOPC    HX19279   1.780   6.063   6.423 -2.6541 -0.0047  1.7152
  160DOPC    HY19280   1.900   6.152   6.502  0.3539  0.0577 -0.7864
  160DOPC   O3119281   1.833   6.231   6.313  0.0703 -0.6865  0.3384
  160DOPC   C3119282   1.919   6.331   6.321 -0.4292  1.2201 -0.4531
  160DOPC   O3219283   1.979   6.358   6.422  0.5442 -0.2659  0.2611
  160DOPC   C3219284   1.913   6.406   6.192 -0.2994 -0.0899  0.3601
  160DOPC   H2X19285   1.872   6.336   6.117 -3.1300  0.1875  1.5209
  160DOPC   H2Y19286   1.840   6.489   6.201  0.0858  0.1535  1.4088
  160DOPC   C2319287   1.412   6.440   6.196 -0.5077 -0.8108  0.0571
  160DOPC   H3R19288   1.433   6.542   6.235 -0.7469  0.2546 -2.4358
  160DOPC   H3S19289   1.313   6.454   6.147  0.8144  1.9624 -2.0988
  160DOPC   C2419290   1.498   6.390   6.078  0.1130  0.1527  0.0486
  160DOPC   H4R19291   1.443   6.305   6.033 -0.1630 -0.0635  0.7838
  160DOPC   H4S19292   1.605   6.370   6.104  0.3180 -0.8219 -1.4130
  160DOPC   C2519293   1.499   6.490   5.963  0.1507  0.5328  0.5029
  160DOPC   H5R19294   1.537   6.587   6.004 -0.3850  0.5650  0.9461
  160DOPC   H5S19295   1.399   6.508   5.918  0.1839  0.4328  0.3898
  160DOPC   C2619296   1.590   6.441   5.848  0.1298  0.6768  1.3230
  160DOPC   H6R19297   1.549   6.339   5.827  0.7884  0.2925  1.8648
  160DOPC   H6S19298   1.694   6.427   5.884  1.7828 -0.2277 -3.1310
  160DOPC   C2719299   1.582   6.525   5.726  0.2329 -0.5913 -0.1015
  160DOPC   H7R19300   1.605   6.627   5.762 -0.3530 -0.6347  0.4280
  160DOPC   H7S19301   1.475   6.519   5.694  0.0384 -0.3558  0.4861
  160DOPC   C2819302   1.676   6.476   5.614  0.5974 -0.7543 -0.4599
  160DOPC   H8R19303   1.646   6.529   5.521 -2.2011  1.1469  1.3508
  160DOPC   H8S19304   1.664   6.367   5.594  1.6684 -0.7297 -1.2819
  160DOPC   C2919305   1.820   6.511   5.644 -0.1175  0.3225  0.2884
  160DOPC   H9R19306   1.830   6.590   5.719 -1.5022 -0.1748  1.0336
  160DOPC  C21019307   1.922   6.448   5.584 -0.6385  0.0826  0.3213
  160DOPC  H10R19308   2.022   6.485   5.610 -0.0677 -0.4382 -1.0394
  160DOPC  C21119309   1.930   6.342   5.484  0.7035  0.0153 -0.0613
  160DOPC  H11R19310   1.827   6.304   5.464  0.2192  2.2675 -2.5592
  160DOPC  H11S19311   1.984   6.250   5.513  1.9865  1.0610  0.9739
  160DOPC  C21219312   1.985   6.400   5.352 -0.5712  0.1113  0.3071
  160DOPC  H12R19313   2.017   6.317   5.285  3.7508  1.1322  0.7774
  160DOPC  H12S19314   2.077   6.456   5.379 -0.7622  0.6730 -0.1831
  160DOPC  C21319315   1.890   6.484   5.272 -0.3390  0.5367 -0.0493
  160DOPC  H13R19316   1.857   6.568   5.336 -3.2930 -2.1976  2.3320
  160DOPC  H13S19317   1.803   6.421   5.242 -0.7934  0.0687  2.1133
  160DOPC  C21419318   1.952   6.554   5.143  0.9609 -0.5850  0.7000
  160DOPC  H14R19319   2.008   6.641   5.182 -0.0033  1.3552 -1.8946
  160DOPC  H14S19320   1.866   6.592   5.083  0.6145 -1.0237  0.9109
  160DOPC  C21519321   2.033   6.459   5.049 -0.4732 -0.4379  0.3782
  160DOPC  H15R19322   1.965   6.409   4.977 -1.6911  1.9538 -0.2405
  160DOPC  H15S19323   2.100   6.392   5.106  1.3719  0.4770 -0.6242
  160DOPC  C21619324   2.150   6.541   4.984 -0.1576 -0.2624 -0.3323
  160DOPC  H16R19325   2.214   6.591   5.059 -0.8341  0.9292 -0.5157
  160DOPC  H16S19326   2.111   6.623   4.920 -0.0064  0.0161 -0.0689
  160DOPC  C21719327   2.238   6.445   4.900 -0.4010  0.1470 -0.2566
  160DOPC  H17R19328   2.191   6.371   4.833 -0.5428  1.3677 -1.5518
  160DOPC  H17S19329   2.299   6.389   4.974  0.8345  1.6084 -0.1138
  160DOPC  C21819330   2.345   6.522   4.809  0.3461 -0.2555  0.8733
  160DOPC  H18R19331   2.408   6.452   4.750  3.1251  1.6097  1.4662
  160DOPC  H18S19332   2.410   6.594   4.863  1.1365  0.0610 -0.4587
  160DOPC  H18T19333   2.277   6.582   4.744 -1.2909 -1.6206  1.2386
  160DOPC   C3319334   2.051   6.459   6.148 -0.4071  0.2436 -0.4978
  160DOPC   H3X19335   2.123   6.375   6.140 -1.3285 -0.4769 -1.6583
  160DOPC   H3Y19336   2.090   6.528   6.225  0.7534 -0.5224 -0.3686
  160DOPC   C3419337   2.058   6.529   6.010  0.0207 -0.5778 -0.0321
  160DOPC   H4X19338   2.001   6.625   6.009  1.6823  0.4503 -0.7773
  160DOPC   H4Y19339   2.006   6.463   5.937 -0.7405  0.2640 -0.2676
  160DOPC   C3519340   2.205   6.555   5.958 -0.1393 -0.0107  0.2473
  160DOPC   H5X19341   2.269   6.464   5.961  2.0458  1.2566 -2.5248
  160DOPC   H5Y19342   2.260   6.628   6.022  0.0330  1.4037 -1.4282
  160DOPC   C3619343   2.210   6.613   5.814  0.4360 -0.6253 -0.0368
  160DOPC   H6X19344   2.165   6.542   5.740 -0.9777  0.0797  0.1136
  160DOPC   H6Y19345   2.136   6.695   5.816 -1.9259 -2.6595  1.5280
  160DOPC   C3719346   2.345   6.663   5.766 -0.3006 -0.7345 -0.1856
  160DOPC   H7X19347   2.375   6.718   5.858 -1.3425 -0.6405  0.1140
  160DOPC   H7Y19348   2.420   6.582   5.750  0.1909 -0.1260 -1.0818
  160DOPC   C3819349   2.349   6.765   5.647  0.4084 -0.3917  0.8676
  160DOPC   H8X19350   2.448   6.816   5.647  0.2380 -0.0551  0.9059
  160DOPC   H8Y19351   2.271   6.840   5.672 -1.2039 -1.3690 -0.9548
  160DOPC   C3919352   2.317   6.709   5.508  0.4435 -0.2107  0.1418
  160DOPC   H9X19353   2.336   6.601   5.497  0.0895 -0.1447 -1.4669
  160DOPC  C31019354   2.258   6.769   5.403 -0.3193  0.3930  0.1795
  160DOPC  H10X19355   2.231   6.709   5.315 -0.5351  1.1473 -0.2744
  160DOPC  C31119356   2.223   6.910   5.392 -0.1653 -0.4987 -0.0952
  160DOPC  H11X19357   2.288   6.965   5.463  1.7805 -0.7450 -1.5903
  160DOPC  H11Y19358   2.120   6.923   5.431  0.5953 -0.2274  1.9325
  160DOPC  C31219359   2.235   6.954   5.249  0.2632  0.6228 -0.9632
  160DOPC  H12X19360   2.182   7.049   5.228  4.9580  3.1221 -2.9893
  160DOPC  H12Y19361   2.199   6.876   5.179  1.6279  0.1908 -1.2089
  160DOPC  C31319362   2.383   6.996   5.221  0.4438  0.7375 -0.1075
  160DOPC  H13X19363   2.416   7.074   5.293  0.6605  0.1161  0.4681
  160DOPC  H13Y19364   2.445   6.908   5.247 -0.9484  0.0962  1.2058
  160DOPC  C31419365   2.402   7.032   5.076 -0.0220 -0.2426  0.2500
  160DOPC  H14X19366   2.381   6.946   5.009  2.0702 -0.7285  0.1638
  160DOPC  H14Y19367   2.339   7.117   5.043  1.0986 -0.0259 -1.5007
  160DOPC  C31519368   2.551   7.067   5.042  0.5494  0.2871  0.3900
  160DOPC  H15X19369   2.598   7.110   5.133 -0.1551  1.3452  0.2712
  160DOPC  H15Y19370   2.555   7.141   4.959  2.5222  0.7615  0.8357
  160DOPC  C31619371   2.624   6.940   4.994 -0.2237  0.3705  0.3068
  160DOPC  H16X19372   2.732   6.955   5.014  0.0905  0.3706 -1.2221
  160DOPC  H16Y19373   2.581   6.856   5.052 -2.5074  1.1149 -0.2069
  160DOPC  C31719374   2.600   6.928   4.843  0.6037  0.5162  0.7400
  160DOPC  H17X19375   2.492   6.945   4.825  1.0145  1.5690 -0.9843
  160DOPC  H17Y19376   2.652   7.018   4.803  0.5323  0.7123  1.0872
  160DOPC  C31819377   2.657   6.806   4.775 -0.2471 -0.5840 -0.2298
  160DOPC  H18X19378   2.650   6.817   4.665 -2.0263  0.0609 -0.0844
  160DOPC  H18Y19379   2.764   6.788   4.800 -0.5318 -2.9127 -0.4764
  160DOPC  H18Z19380   2.603   6.712   4.799  1.5770 -2.1073 -1.7639
  161DOPC     N19381   2.326   0.940   7.038 -0.1259  0.1909  0.3133
  161DOPC   C1219382   2.327   0.920   6.890  0.3779 -0.6092 -0.0465
  161DOPC  H12A19383   2.379   1.007   6.854 -0.5704  0.4303  1.0267
  161DOPC  H12B19384   2.230   0.940   6.847  1.3686  1.2324 -1.5647
  161DOPC   C1319385   2.263   1.073   7.069  0.6301 -0.1867 -0.1355
  161DOPC  H13A19386   2.164   1.068   7.028  0.5750 -0.7535  0.0581
  161DOPC  H13B19387   2.259   1.096   7.175 -1.2725  0.0736 -0.2330
  161DOPC  H13C19388   2.312   1.148   7.008  2.0229  0.4687  1.6800
  161DOPC   C1419389   2.463   0.934   7.099 -0.2853  0.3617 -0.3877
  161DOPC  H14A19390   2.449   0.962   7.202 -1.6498 -0.4341 -0.3321
  161DOPC  H14B19391   2.512   0.838   7.082 -2.4855 -0.5921 -1.7809
  161DOPC  H14C19392   2.524   1.014   7.060 -0.0688  0.7099  0.6343
  161DOPC   C1519393   2.242   0.831   7.105  0.7460 -0.0805 -0.0875
  161DOPC  H15A19394   2.149   0.822   7.052  0.7287 -0.9521  0.0867
  161DOPC  H15B19395   2.233   0.860   7.209  1.3666  1.9930 -0.5497
  161DOPC  H15C19396   2.285   0.733   7.104 -0.6874 -0.8254  2.4426
  161DOPC   C1119397   2.388   0.798   6.817  0.7314  0.1517  0.7365
  161DOPC  H11A19398   2.391   0.801   6.706 -2.1336 -0.8107  0.5585
  161DOPC  H11B19399   2.495   0.789   6.846  0.7579  1.9531  1.3019
  161DOPC     P19400   2.375   0.555   6.915 -0.0882 -0.3654  0.3340
  161DOPC   O1319401   2.267   0.456   6.898  0.2813 -0.0725  0.3700
  161DOPC   O1419402   2.427   0.577   7.052 -0.3625 -0.3297  0.3456
  161DOPC   O1219403   2.308   0.688   6.858 -0.1392 -0.3317  0.5903
  161DOPC   O1119404   2.492   0.522   6.810 -0.5837 -0.1284  0.1103
  161DOPC    C119405   2.447   0.490   6.675  0.0698  0.0218 -0.6405
  161DOPC    HA19406   2.348   0.530   6.645 -0.8613 -0.9515  0.9752
  161DOPC    HB19407   2.423   0.381   6.665  1.1398 -0.1488 -1.4988
  161DOPC    C219408   2.564   0.526   6.577  0.2019 -0.1486 -0.4811
  161DOPC    HS19409   2.653   0.470   6.614 -0.2005 -0.7089 -0.3418
  161DOPC   O2119410   2.600   0.667   6.578 -0.3396  0.1581  0.1277
  161DOPC   C2119411   2.727   0.689   6.536  0.3291  0.3975  0.4426
  161DOPC   O2219412   2.810   0.602   6.519  0.2551  0.6513 -0.2528
  161DOPC   C2219413   2.749   0.833   6.505  0.2290 -0.3895  0.9143
  161DOPC   H2R19414   2.696   0.853   6.410  0.1170 -2.6568  0.4395
  161DOPC   H2S19415   2.854   0.854   6.475 -0.3983  0.7184 -0.6351
  161DOPC    C319416   2.524   0.475   6.434 -0.4337 -0.2121 -0.3577
  161DOPC    HX19417   2.431   0.526   6.400 -0.3355  1.5077  1.7444
  161DOPC    HY19418   2.516   0.364   6.441  0.3865 -0.4563 -2.6108
  161DOPC   O3119419   2.626   0.504   6.337 -0.4430 -0.0087  1.1096
  161DOPC   C3119420   2.626   0.421   6.228  0.0123 -0.2178  1.2394
  161DOPC   O3219421   2.533   0.344   6.204 -0.0026 -0.1086  0.1809
  161DOPC   C3219422   2.748   0.440   6.148 -0.1111 -0.3266 -0.0036
  161DOPC   H2X19423   2.729   0.521   6.075 -3.2656 -1.0639 -0.1515
  161DOPC   H2Y19424   2.831   0.475   6.213  0.0223  0.6603 -0.6833
  161DOPC   C2319425   2.726   0.930   6.623  0.2313  0.9822  0.1661
  161DOPC   H3R19426   2.794   0.903   6.707 -0.9192 -0.9116  0.5616
  161DOPC   H3S19427   2.623   0.933   6.665 -0.1199  1.7019 -0.7193
  161DOPC   C2419428   2.769   1.075   6.582  0.8388 -0.2977 -0.0781
  161DOPC   H4R19429   2.876   1.083   6.550  0.7919 -1.0844 -0.4682
  161DOPC   H4S19430   2.756   1.128   6.679 -0.1950 -0.2486 -0.2332
  161DOPC   C2519431   2.680   1.150   6.471 -0.5813 -0.0528  0.1867
  161DOPC   H5R19432   2.580   1.162   6.519  0.4466  0.4444  2.3442
  161DOPC   H5S19433   2.683   1.081   6.384 -0.9192  0.3402 -0.1420
  161DOPC   C2619434   2.736   1.282   6.426  0.9978 -0.4365  0.5791
  161DOPC   H6R19435   2.836   1.267   6.379  0.3872 -1.4807 -0.4159
  161DOPC   H6S19436   2.745   1.341   6.520 -1.2562  1.2917 -0.2103
  161DOPC   C2719437   2.630   1.355   6.343 -0.2673  0.1867 -0.4956
  161DOPC   H7R19438   2.670   1.456   6.322 -1.4695  0.5724 -0.9720
  161DOPC   H7S19439   2.547   1.371   6.415  1.6443 -1.1727  2.2007
  161DOPC   C2819440   2.572   1.289   6.220  0.3411 -0.6702 -0.2258
  161DOPC   H8R19441   2.476   1.340   6.196  0.3818 -1.6024 -2.6285
  161DOPC   H8S19442   2.543   1.186   6.251  0.1584 -1.4275 -2.7308
  161DOPC   C2919443   2.661   1.273   6.104  0.1830 -0.0334 -0.0659
  161DOPC   H9R19444   2.750   1.210   6.119 -0.8813 -1.6550 -0.3388
  161DOPC  C21019445   2.648   1.329   5.977 -0.7823  0.8387 -0.0795
  161DOPC  H10R19446   2.724   1.295   5.905  0.0352 -0.6580  1.4129
  161DOPC  C21119447   2.541   1.407   5.917  0.6566  0.4635  0.3947
  161DOPC  H11R19448   2.588   1.478   5.846  0.3570  0.9590  0.6861
  161DOPC  H11S19449   2.497   1.475   5.993  0.0119  0.5160 -0.0161
  161DOPC  C21219450   2.443   1.337   5.821  0.1199 -0.2127 -0.0973
  161DOPC  H12R19451   2.471   1.232   5.795  2.0147  0.3591 -0.5598
  161DOPC  H12S19452   2.441   1.397   5.727  0.2156  1.6954  1.0712
  161DOPC  C21319453   2.302   1.338   5.865 -0.1641  0.3043  0.1355
  161DOPC  H13R19454   2.272   1.437   5.906  2.0613  1.2686 -0.3788
  161DOPC  H13S19455   2.295   1.268   5.950  0.7746 -1.7886 -1.4365
  161DOPC  C21419456   2.202   1.280   5.751  0.1702  0.0815 -0.2696
  161DOPC  H14R19457   2.107   1.250   5.802  0.5257 -0.7545 -0.0824
  161DOPC  H14S19458   2.239   1.180   5.718 -2.2052 -0.4269 -1.6722
  161DOPC  C21519459   2.189   1.379   5.639  0.1161  0.6130  0.5794
  161DOPC  H15R19460   2.113   1.329   5.575  0.7237  1.1888 -0.6328
  161DOPC  H15S19461   2.286   1.386   5.584 -0.8191  1.3963 -1.0682
  161DOPC  C21619462   2.137   1.519   5.662 -0.0811 -0.0668 -0.5884
  161DOPC  H16R19463   2.195   1.594   5.719  0.5504  1.7778 -3.4577
  161DOPC  H16S19464   2.048   1.508   5.727  1.1854 -1.0025  1.0638
  161DOPC  C21719465   2.074   1.585   5.534 -0.0003  0.8521  0.4156
  161DOPC  H17R19466   2.006   1.513   5.484  0.2294 -0.6238  2.1244
  161DOPC  H17S19467   2.160   1.595   5.464 -0.2943  2.6018  0.2580
  161DOPC  C21819468   2.011   1.718   5.563  0.2659 -0.2048  1.3792
  161DOPC  H18R19469   2.096   1.790   5.565 -0.6000  1.1815 -2.6029
  161DOPC  H18S19470   1.954   1.704   5.657 -0.8762  0.4149  0.7944
  161DOPC  H18T19471   1.939   1.761   5.490  1.0463  0.0873  0.7650
  161DOPC   C3319472   2.782   0.312   6.072  0.1502 -0.3731  0.1521
  161DOPC   H3X19473   2.685   0.284   6.025  0.3152 -0.7784  0.0507
  161DOPC   H3Y19474   2.813   0.239   6.150 -0.5951  1.3410  2.1184
  161DOPC   C3419475   2.887   0.331   5.958  0.0393  0.2361 -0.5781
  161DOPC   H4X19476   2.979   0.368   6.009  0.0461  1.4997 -1.4586
  161DOPC   H4Y19477   2.855   0.421   5.902  1.5524  1.2523  0.1037
  161DOPC   C3519478   2.903   0.199   5.878  0.2147  0.4760  0.2205
  161DOPC   H5X19479   2.801   0.157   5.860 -0.4701  2.2872 -0.3498
  161DOPC   H5Y19480   2.958   0.130   5.945  2.8054 -0.2442 -2.4581
  161DOPC   C3619481   2.972   0.209   5.742 -0.5451 -0.2266  0.0496
  161DOPC   H6X19482   2.952   0.313   5.709  1.0945 -0.3641 -1.5058
  161DOPC   H6Y19483   3.082   0.196   5.748 -0.7337 -1.9996  0.1404
  161DOPC   C3719484   2.911   0.129   5.628  0.4182  0.0124 -0.6330
  161DOPC   H7X19485   2.884   0.026   5.661 -2.1614  0.9059  0.2997
  161DOPC   H7Y19486   2.815   0.174   5.594 -0.4639 -2.4156 -1.6182
  161DOPC   C3819487   3.011   0.102   5.511 -0.1156  0.3699  0.1413
  161DOPC   H8X19488   3.093   0.045   5.560 -0.2969 -0.0086  0.0062
  161DOPC   H8Y19489   3.039   0.197   5.461 -0.5452 -0.1338 -1.0962
  161DOPC   C3919490   2.949   0.023   5.391  0.2443 -0.1028  0.0007
  161DOPC   H9X19491   2.842   0.034   5.368 -0.1705 -3.5641 -0.1210
  161DOPC  C31019492   3.003  -0.080   5.322 -0.1497  0.3582 -0.4320
  161DOPC  H10X19493   2.947  -0.116   5.234 -3.3341  0.4961  1.3661
  161DOPC  C31119494   3.142  -0.140   5.350  0.3303 -0.1774  0.1663
  161DOPC  H11X19495   3.156  -0.245   5.315  1.6024 -0.2467  0.8381
  161DOPC  H11Y19496   3.160  -0.133   5.459  1.5806 -1.1676  0.0484
  161DOPC  C31219497   3.263  -0.082   5.270 -0.5866 -0.7434 -0.1957
  161DOPC  H12X19498   3.282   0.023   5.304  1.3069 -1.6033  1.7032
  161DOPC  H12Y19499   3.229  -0.086   5.165 -1.2654 -0.4463  0.0056
  161DOPC  C31319500   3.392  -0.159   5.280  0.1970  0.7347 -0.0285
  161DOPC  H13X19501   3.442  -0.140   5.377 -2.0659  1.0134  1.1291
  161DOPC  H13Y19502   3.370  -0.268   5.279  2.8410  0.1260 -1.1896
  161DOPC  C31419503   3.475  -0.141   5.149 -0.1892 -0.3225 -0.0669
  161DOPC  H14X19504   3.419  -0.199   5.072 -0.2467 -0.7947  0.3261
  161DOPC  H14Y19505   3.501  -0.035   5.128 -0.8290  0.7541  3.7762
  161DOPC  C31519506   3.616  -0.215   5.151  0.4050 -0.3328 -0.1795
  161DOPC  H15X19507   3.673  -0.137   5.206 -1.4176  2.8252 -2.4291
  161DOPC  H15Y19508   3.663  -0.219   5.050  0.0252 -1.1679 -0.3334
  161DOPC  C31619509   3.617  -0.361   5.212  0.2043  0.0862 -0.5828
  161DOPC  H16X19510   3.597  -0.350   5.321  1.3567  1.5688 -0.4912
  161DOPC  H16Y19511   3.529  -0.411   5.165 -0.0291 -0.0899  0.0334
  161DOPC  C31719512   3.740  -0.437   5.178 -0.1106 -0.1660  0.0098
  161DOPC  H17X19513   3.762  -0.447   5.069  1.1739  1.9861  0.0239
  161DOPC  H17Y19514   3.827  -0.390   5.229 -0.0118  0.0259 -0.3299
  161DOPC  C31819515   3.736  -0.581   5.221 -0.0476  0.1703  0.4450
  161DOPC  H18X19516   3.648  -0.642   5.189  0.9087 -0.3106 -1.3867
  161DOPC  H18Y19517   3.822  -0.630   5.171  0.1089  1.0452 -0.1619
  161DOPC  H18Z19518   3.749  -0.587   5.331  3.0829  0.0939  0.1471
  162DOPC     N19519   2.444   5.879   7.029  0.1975 -0.4971  0.7491
  162DOPC   C1219520   2.453   5.792   6.903 -0.5164  1.0236  0.0510
  162DOPC  H12A19521   2.361   5.743   6.877 -0.0217 -1.3935  2.4298
  162DOPC  H12B19522   2.517   5.711   6.934  0.5284  2.5087  2.0147
  162DOPC   C1319523   2.576   5.926   7.067  0.0974  0.5307 -0.2511
  162DOPC  H13A19524   2.648   5.847   7.051  1.8487  1.4919  2.2868
  162DOPC  H13B19525   2.600   6.023   7.025 -0.8570  0.9328  0.1043
  162DOPC  H13C19526   2.586   5.952   7.172 -0.6323  0.8847 -0.2648
  162DOPC   C1419527   2.389   5.804   7.143  0.5308 -0.3612  0.1790
  162DOPC  H14A19528   2.442   5.715   7.174  1.0734  0.6102  2.2639
  162DOPC  H14B19529   2.378   5.871   7.227 -2.1133 -0.3055 -0.1399
  162DOPC  H14C19530   2.284   5.781   7.134  0.4064  0.5287 -0.7328
  162DOPC   C1519531   2.351   5.995   6.998 -0.9131 -0.5261 -0.3824
  162DOPC  H15A19532   2.349   6.067   7.079  0.2003 -2.4197  1.4190
  162DOPC  H15B19533   2.250   5.957   6.987  0.0518 -3.0633 -1.1112
  162DOPC  H15C19534   2.379   6.039   6.903 -1.9676 -0.2502 -0.5824
  162DOPC   C1119535   2.510   5.837   6.766  1.1863 -0.1296  0.0032
  162DOPC  H11A19536   2.599   5.898   6.791  0.3839  0.8451  0.5404
  162DOPC  H11B19537   2.542   5.750   6.705  0.5754 -0.1312 -0.3191
  162DOPC     P19538   2.454   6.035   6.621  0.1193 -0.0042 -0.2620
  162DOPC   O1319539   2.502   6.135   6.723 -0.6876  0.3427  0.2565
  162DOPC   O1419540   2.346   6.081   6.529  0.2833 -0.0347 -0.1781
  162DOPC   O1219541   2.407   5.905   6.697  0.6019  0.1056  0.2747
  162DOPC   O1119542   2.579   5.981   6.542  0.2683 -0.1324 -0.2119
  162DOPC    C119543   2.701   6.050   6.528  0.0326  0.4753  0.4398
  162DOPC    HA19544   2.770   5.971   6.490 -1.4065 -1.0271  0.7932
  162DOPC    HB19545   2.727   6.076   6.632 -2.6679  1.6278  0.9096
  162DOPC    C219546   2.692   6.165   6.429 -0.5054 -1.1363  0.4262
  162DOPC    HS19547   2.651   6.253   6.484 -2.1917 -0.8068 -1.2632
  162DOPC   O2119548   2.630   6.121   6.306 -0.2468  0.6406 -0.2202
  162DOPC   C2119549   2.593   6.219   6.228 -0.0431  1.0732 -0.7035
  162DOPC   O2219550   2.587   6.335   6.263 -0.2374 -0.3570 -0.1602
  162DOPC   C2219551   2.542   6.158   6.088  0.0567 -0.5355 -0.7359
  162DOPC   H2R19552   2.504   6.057   6.112 -1.8890  0.1108 -0.8972
  162DOPC   H2S19553   2.631   6.145   6.023  0.3795  1.0847 -0.6832
  162DOPC    C319554   2.834   6.220   6.398 -0.3692 -0.2318 -0.4064
  162DOPC    HX19555   2.870   6.282   6.483 -0.9860 -0.4606  0.0296
  162DOPC    HY19556   2.835   6.295   6.317  2.3865  0.7861  0.4426
  162DOPC   O3119557   2.941   6.123   6.378  0.3878  0.2124  0.0750
  162DOPC   C3119558   2.953   6.074   6.255 -0.9727 -0.5715  0.6174
  162DOPC   O3219559   2.882   6.107   6.159 -0.5199  0.1976  0.6159
  162DOPC   C3219560   3.069   5.986   6.252 -0.4386  0.0396 -0.6049
  162DOPC   H2X19561   3.164   6.044   6.246  0.2261 -0.9804 -0.3079
  162DOPC   H2Y19562   3.074   5.930   6.348 -1.3587  2.8864  1.2162
  162DOPC   C2319563   2.432   6.243   6.021 -0.5896 -0.3383 -0.5469
  162DOPC   H3R19564   2.475   6.343   5.998  2.4160 -0.7292  2.5219
  162DOPC   H3S19565   2.352   6.267   6.095 -0.2968  2.3587 -1.0100
  162DOPC   C2419566   2.354   6.175   5.906  0.1395 -0.1561 -0.6075
  162DOPC   H4R19567   2.256   6.224   5.890  1.3214  1.5995 -3.1231
  162DOPC   H4S19568   2.348   6.068   5.933  2.2601  0.5003  3.2395
  162DOPC   C2519569   2.427   6.200   5.774 -0.5894  0.6073  0.0590
  162DOPC   H5R19570   2.521   6.141   5.772 -2.6108 -2.8473 -1.9817
  162DOPC   H5S19571   2.445   6.306   5.746  1.3188 -0.1831 -1.9840
  162DOPC   C2619572   2.345   6.138   5.655 -0.3734  0.2194 -0.0333
  162DOPC   H6R19573   2.242   6.138   5.698  0.1505  0.3394  1.2417
  162DOPC   H6S19574   2.365   6.028   5.654  1.4556  0.5081 -1.4893
  162DOPC   C2719575   2.367   6.214   5.518  0.2648  0.0509  0.3632
  162DOPC   H7R19576   2.472   6.198   5.486 -0.2114 -1.3724 -0.5353
  162DOPC   H7S19577   2.356   6.324   5.530  2.0209  0.2639  0.3212
  162DOPC   C2819578   2.275   6.152   5.405 -0.0062 -1.2666 -0.0736
  162DOPC   H8R19579   2.283   6.226   5.322  1.9331  0.7597  1.7894
  162DOPC   H8S19580   2.172   6.166   5.444  0.4073 -2.2008  1.4240
  162DOPC   C2919581   2.297   6.005   5.375 -0.0409 -0.2094 -0.2332
  162DOPC   H9R19582   2.325   5.940   5.460 -1.2307  0.3611  0.6291
  162DOPC  C21019583   2.252   5.941   5.261 -0.7836  0.7886 -0.0664
  162DOPC  H10R19584   2.275   5.834   5.248 -1.0189  0.6466  0.6069
  162DOPC  C21119585   2.193   6.012   5.141 -0.3918 -0.1455 -0.7240
  162DOPC  H11R19586   2.245   5.974   5.051 -0.6367 -1.1197 -0.4639
  162DOPC  H11S19587   2.223   6.119   5.145 -1.5138  0.1467  0.9818
  162DOPC  C21219588   2.039   5.990   5.113 -0.6390  0.1326 -0.7566
  162DOPC  H12R19589   1.985   6.009   5.209  0.3123 -3.3245  0.6152
  162DOPC  H12S19590   2.019   5.886   5.079 -1.4502  0.1096 -0.2514
  162DOPC  C21319591   1.976   6.072   5.006  0.7133 -0.2386 -0.4168
  162DOPC  H13R19592   1.977   6.031   4.902 -0.3410  0.9110 -0.9042
  162DOPC  H13S19593   2.035   6.166   4.994  0.4833  0.0637  0.7363
  162DOPC  C21419594   1.831   6.100   5.037 -0.0897 -0.0493 -0.4180
  162DOPC  H14R19595   1.835   6.174   5.120 -0.9681  0.9536 -1.2455
  162DOPC  H14S19596   1.788   6.005   5.076  0.7635  0.5672  2.2710
  162DOPC  C21519597   1.745   6.151   4.921 -0.0082 -0.1110 -0.1734
  162DOPC  H15R19598   1.756   6.098   4.823  0.5707  1.0518 -0.7586
  162DOPC  H15S19599   1.788   6.252   4.904  2.9433 -0.7500  2.5579
  162DOPC  C21619600   1.597   6.166   4.964 -0.7066 -0.3797  0.2558
  162DOPC  H16R19601   1.596   6.226   5.058  0.0832 -0.0753  0.0765
  162DOPC  H16S19602   1.557   6.066   4.992 -0.3006 -0.5169  0.3631
  162DOPC  C21719603   1.504   6.233   4.854 -0.5277  0.0149  0.1188
  162DOPC  H17R19604   1.518   6.165   4.767  0.8723  2.6279 -1.8382
  162DOPC  H17S19605   1.556   6.327   4.824  0.1976 -0.4153  0.0179
  162DOPC  C21819606   1.362   6.240   4.884 -0.2123  0.1533 -0.4818
  162DOPC  H18R19607   1.311   6.291   4.799  0.2183 -1.7387 -1.9389
  162DOPC  H18S19608   1.326   6.293   4.975 -0.6014 -0.2356 -0.4086
  162DOPC  H18T19609   1.313   6.141   4.890  1.3951 -0.7050 -1.0634
  162DOPC   C3319610   3.069   5.914   6.113  0.0483  0.0791  0.5632
  162DOPC   H3X19611   3.074   5.972   6.018  0.1764 -0.8578 -0.0145
  162DOPC   H3Y19612   2.970   5.863   6.112  0.5251 -0.8726  0.9492
  162DOPC   C3419613   3.174   5.805   6.108  0.2784  0.5406  0.1980
  162DOPC   H4X19614   3.167   5.728   6.187 -1.1273  0.0982 -0.3220
  162DOPC   H4Y19615   3.278   5.844   6.105  0.4806  0.0263  0.3722
  162DOPC   C3519616   3.144   5.727   5.972  0.0329 -0.2819 -0.4967
  162DOPC   H5X19617   3.126   5.809   5.899  0.0124  1.7083  1.6633
  162DOPC   H5Y19618   3.051   5.666   5.982 -0.0782 -0.6173 -2.8553
  162DOPC   C3619619   3.261   5.630   5.921 -0.0928  0.4619  0.1141
  162DOPC   H6X19620   3.310   5.579   6.006  2.7887  1.2369 -0.9425
  162DOPC   H6Y19621   3.216   5.550   5.859 -0.6605  1.4470 -0.7716
  162DOPC   C3719622   3.375   5.709   5.851  0.6377 -0.1373 -0.5041
  162DOPC   H7X19623   3.333   5.770   5.768  0.3823 -1.0893 -1.0903
  162DOPC   H7Y19624   3.417   5.776   5.930 -0.5346  0.3692 -0.2892
  162DOPC   C3819625   3.492   5.618   5.798 -0.4659  0.4166  0.2340
  162DOPC   H8X19626   3.445   5.558   5.717 -1.8482  1.5388  0.1691
  162DOPC   H8Y19627   3.529   5.548   5.876 -2.0694 -1.2032 -0.3576
  162DOPC   C3919628   3.600   5.704   5.748 -0.2102  0.4889  0.1335
  162DOPC   H9X19629   3.622   5.786   5.818  1.4255 -0.6355  1.0177
  162DOPC  C31019630   3.673   5.694   5.633 -0.2139 -0.2716  0.2702
  162DOPC  H10X19631   3.756   5.765   5.619  0.1226 -0.6251  0.4787
  162DOPC  C31119632   3.662   5.576   5.531  0.3560 -0.4402 -0.4079
  162DOPC  H11X19633   3.688   5.621   5.433 -0.5810  3.2540  0.8960
  162DOPC  H11Y19634   3.552   5.558   5.527  0.1763  0.6585 -0.7088
  162DOPC  C31219635   3.764   5.457   5.552  0.0441  0.4970  0.3961
  162DOPC  H12X19636   3.734   5.379   5.480  0.1209  2.4001 -1.7980
  162DOPC  H12Y19637   3.752   5.406   5.650 -2.1574  0.9503  0.4168
  162DOPC  C31319638   3.913   5.495   5.538  0.1406  0.4830 -0.0966
  162DOPC  H13X19639   3.920   5.571   5.619  0.7768  0.6182 -0.2781
  162DOPC  H13Y19640   3.980   5.409   5.558 -0.8069 -0.1944  0.2624
  162DOPC  C31419641   3.937   5.545   5.400  0.5504 -0.2295 -0.7422
  162DOPC  H14X19642   3.893   5.644   5.374  2.1334  0.2580 -1.7518
  162DOPC  H14Y19643   4.047   5.565   5.400  0.6483 -0.3444  2.1101
  162DOPC  C31519644   3.914   5.439   5.294  0.0636  0.1468  0.0259
  162DOPC  H15X19645   3.806   5.415   5.295 -0.0137  0.3747  2.1537
  162DOPC  H15Y19646   3.980   5.353   5.319 -0.8276  0.1607  2.7299
  162DOPC  C31619647   3.941   5.493   5.152 -0.0738 -0.5562 -0.2769
  162DOPC  H16X19648   3.878   5.583   5.136 -1.1509 -1.3736 -0.7486
  162DOPC  H16Y19649   4.043   5.538   5.147 -0.4379  0.0999 -3.5297
  162DOPC  C31719650   3.915   5.393   5.034  0.1325  1.2254 -0.4464
  162DOPC  H17X19651   4.000   5.382   4.963 -1.5958 -2.3125 -2.1975
  162DOPC  H17Y19652   3.901   5.299   5.090 -1.5751  1.3209 -0.6610
  162DOPC  C31819653   3.794   5.413   4.947 -0.1152 -0.9300  0.5592
  162DOPC  H18X19654   3.709   5.423   5.018  0.0218  2.7731  0.4077
  162DOPC  H18Y19655   3.777   5.513   4.900  0.5004  0.3590  2.9376
  162DOPC  H18Z19656   3.771   5.335   4.872 -0.3172 -1.4476  1.1596
  163DOPC     N19657   6.947   2.928   7.624  0.0759 -0.2192 -0.3560
  163DOPC   C1219658   6.990   2.782   7.593 -0.2442 -0.1070  0.3755
  163DOPC  H12A19659   7.095   2.778   7.569  0.0613  1.2196  1.3846
  163DOPC  H12B19660   6.931   2.749   7.509 -1.8795  1.3937  0.8783
  163DOPC   C1319661   7.013   2.972   7.751  0.5035 -0.0796 -0.0028
  163DOPC  H13A19662   7.120   2.967   7.733  0.3146  0.2064 -1.2644
  163DOPC  H13B19663   6.986   3.072   7.780 -0.2779 -1.0081  2.8803
  163DOPC  H13C19664   6.991   2.906   7.834 -2.8963 -0.0013 -0.7094
  163DOPC   C1419665   6.798   2.932   7.639 -0.3140 -0.1589 -0.0320
  163DOPC  H14A19666   6.763   2.882   7.729 -0.4833  0.2089  0.1122
  163DOPC  H14B19667   6.776   3.037   7.651  0.0516 -0.0677 -0.1505
  163DOPC  H14C19668   6.760   2.883   7.550  0.2283 -2.0398  0.7201
  163DOPC   C1519669   6.988   3.017   7.518  0.5922 -0.5124  0.4851
  163DOPC  H15A19670   6.980   2.977   7.418 -1.7056 -1.1566  0.8560
  163DOPC  H15B19671   7.087   3.057   7.531  0.4375 -0.1339  0.5228
  163DOPC  H15C19672   6.920   3.102   7.516 -1.3629 -1.9962 -1.4044
  163DOPC   C1119673   6.967   2.689   7.716  0.6158 -0.2569 -0.7195
  163DOPC  H11A19674   6.875   2.710   7.775  1.7838  0.3696  0.9406
  163DOPC  H11B19675   6.961   2.587   7.672 -2.6794 -0.5946  0.1990
  163DOPC     P19676   7.214   2.643   7.772  0.1402 -0.2880 -0.7369
  163DOPC   O1319677   7.304   2.669   7.886 -0.2724  0.5741  0.4970
  163DOPC   O1419678   7.258   2.707   7.646 -0.2530 -0.5679  0.0389
  163DOPC   O1219679   7.068   2.695   7.811 -0.7943  0.4624 -0.2916
  163DOPC   O1119680   7.199   2.489   7.760  0.0930  0.6184 -0.0603
  163DOPC    C119681   7.296   2.405   7.697  0.7380 -0.2469 -0.4450
  163DOPC    HA19682   7.291   2.302   7.738  1.6288  0.3130  1.1776
  163DOPC    HB19683   7.402   2.434   7.716  1.3267 -1.6889 -1.3877
  163DOPC    C219684   7.270   2.378   7.545  0.3244  0.9250 -0.2169
  163DOPC    HS19685   7.244   2.478   7.504 -1.0703 -0.0763 -1.9289
  163DOPC   O2119686   7.172   2.277   7.523  0.3282 -0.1307  0.6571
  163DOPC   C2119687   7.070   2.309   7.440  0.7842  0.0103  0.0525
  163DOPC   O2219688   7.057   2.416   7.380  0.3757 -0.7132 -0.3057
  163DOPC   C2219689   6.964   2.195   7.433 -0.2748 -0.1307 -0.0472
  163DOPC   H2R19690   6.903   2.207   7.525 -0.7141  1.4075 -0.5149
  163DOPC   H2S19691   7.020   2.099   7.435 -1.2553 -0.7040  0.3152
  163DOPC    C319692   7.397   2.338   7.469  0.2899  0.6388 -0.3841
  163DOPC    HX19693   7.448   2.251   7.515 -1.3790  0.4160  1.1440
  163DOPC    HY19694   7.480   2.412   7.473 -0.3430  1.3180  0.5586
  163DOPC   O3119695   7.377   2.302   7.330 -0.6066 -1.1496  0.4307
  163DOPC   C3119696   7.367   2.406   7.250  0.3872  0.2451  0.1514
  163DOPC   O3219697   7.345   2.521   7.275 -0.7641  1.1953 -0.2378
  163DOPC   C3219698   7.368   2.347   7.110 -0.0427 -0.2565 -0.0922
  163DOPC   H2X19699   7.469   2.300   7.104  1.8588  3.3878  0.5516
  163DOPC   H2Y19700   7.285   2.273   7.103 -1.3306  1.1377 -0.1674
  163DOPC   C2319701   6.869   2.194   7.315  1.4584 -0.0566 -0.1430
  163DOPC   H3R19702   6.824   2.296   7.307 -0.9188 -1.0995 -1.0751
  163DOPC   H3S19703   6.776   2.135   7.329  0.6840  1.5810  2.1546
  163DOPC   C2419704   6.931   2.168   7.174 -0.2260  0.2843 -0.2203
  163DOPC   H4R19705   6.936   2.057   7.165 -2.0868  0.3160 -2.1293
  163DOPC   H4S19706   7.025   2.221   7.147  0.3470 -1.5919 -2.2426
  163DOPC   C2519707   6.827   2.210   7.066  1.2278 -0.0729 -0.6150
  163DOPC   H5R19708   6.808   2.317   7.089  0.0500 -0.1942 -0.9867
  163DOPC   H5S19709   6.727   2.163   7.076  0.7662  0.6748 -1.5329
  163DOPC   C2619710   6.877   2.176   6.930  0.1464  0.5299 -0.8816
  163DOPC   H6R19711   6.864   2.066   6.918 -2.3310  0.5781  0.7735
  163DOPC   H6S19712   6.986   2.195   6.922  0.7513 -1.9788  0.4074
  163DOPC   C2719713   6.810   2.250   6.808 -0.3514 -0.0922 -0.4709
  163DOPC   H7R19714   6.806   2.359   6.827  1.5448 -0.1064  0.1996
  163DOPC   H7S19715   6.703   2.221   6.822 -0.7645  0.2706 -2.5269
  163DOPC   C2819716   6.855   2.213   6.671 -0.1381 -0.3936  1.2791
  163DOPC   H8R19717   6.851   2.104   6.656 -0.8903 -0.3776  1.3158
  163DOPC   H8S19718   6.960   2.248   6.670 -0.7663  1.6888  1.2314
  163DOPC   C2919719   6.783   2.287   6.560 -0.1437 -0.1385  0.3628
  163DOPC   H9R19720   6.677   2.259   6.548  0.1089 -1.0115  0.1153
  163DOPC  C21019721   6.829   2.392   6.491  0.5552  0.4532 -0.4022
  163DOPC  H10R19722   6.758   2.433   6.418  0.6785  1.5586  0.0796
  163DOPC  C21119723   6.958   2.467   6.505 -0.2884  0.3487 -0.0237
  163DOPC  H11R19724   7.000   2.450   6.606  3.0855 -1.6671 -1.5706
  163DOPC  H11S19725   6.941   2.574   6.479  0.2042 -0.2389 -3.2342
  163DOPC  C21219726   7.069   2.422   6.409  0.0216 -0.4271  0.2161
  163DOPC  H12R19727   7.144   2.501   6.431  0.6021 -1.5820  2.6363
  163DOPC  H12S19728   7.043   2.443   6.303  1.4822  0.8115  0.0723
  163DOPC  C21319729   7.125   2.286   6.434  0.4821 -0.5141 -0.3643
  163DOPC  H13R19730   7.053   2.206   6.406 -0.1201 -0.2666  0.4640
  163DOPC  H13S19731   7.128   2.269   6.543 -1.0626 -0.4774 -0.3040
  163DOPC  C21419732   7.257   2.258   6.364 -0.0577  0.0133 -0.3561
  163DOPC  H14R19733   7.340   2.315   6.411 -0.7446  1.3849 -0.7553
  163DOPC  H14S19734   7.248   2.286   6.257  1.7854 -4.2445 -1.8454
  163DOPC  C21519735   7.294   2.104   6.356  0.9037  0.0795  0.3862
  163DOPC  H15R19736   7.209   2.045   6.316  1.4614 -0.4307 -0.0609
  163DOPC  H15S19737   7.320   2.072   6.459  0.6132  0.9939  0.7538
  163DOPC  C21619738   7.432   2.076   6.282 -0.3210  0.0252 -0.3014
  163DOPC  H16R19739   7.472   1.975   6.308 -1.5159 -0.1069  1.2072
  163DOPC  H16S19740   7.496   2.151   6.333  0.9756 -1.2093 -0.0395
  163DOPC  C21719741   7.436   2.097   6.134  0.3180 -0.1485 -0.0838
  163DOPC  H17R19742   7.389   2.195   6.113  1.7316  1.1775  2.5290
  163DOPC  H17S19743   7.354   2.034   6.092 -2.0821  3.0348 -0.5323
  163DOPC  C21819744   7.561   2.081   6.061  0.5010  0.2893  0.1553
  163DOPC  H18R19745   7.645   2.132   6.113  1.9371 -0.8433 -0.9748
  163DOPC  H18S19746   7.550   2.126   5.960 -1.7087  1.6646  0.9412
  163DOPC  H18T19747   7.573   1.972   6.045 -0.4575  0.3515 -1.1319
  163DOPC   C3319748   7.356   2.445   6.993  0.4141 -0.5743 -0.4696
  163DOPC   H3X19749   7.451   2.503   6.988  1.6212 -2.3645  0.7716
  163DOPC   H3Y19750   7.270   2.512   7.012  1.0815  0.6433 -1.5889
  163DOPC   C3419751   7.325   2.384   6.861 -0.5433 -0.5339  0.8245
  163DOPC   H4X19752   7.235   2.321   6.879 -0.1557 -1.0601  0.9383
  163DOPC   H4Y19753   7.407   2.311   6.845 -0.7954 -0.5788 -0.3493
  163DOPC   C3519754   7.312   2.481   6.746  0.0864 -0.2501 -0.2632
  163DOPC   H5X19755   7.221   2.540   6.770 -0.9146 -1.7522 -0.2771
  163DOPC   H5Y19756   7.304   2.411   6.660  2.6914  0.5374 -1.2555
  163DOPC   C3619757   7.434   2.582   6.737 -0.1376  0.0048  0.2577
  163DOPC   H6X19758   7.410   2.641   6.647  0.4658  0.7275  0.5637
  163DOPC   H6Y19759   7.438   2.649   6.825 -0.7326  2.1400 -1.2783
  163DOPC   C3719760   7.569   2.512   6.712 -0.1072 -0.0684  0.8708
  163DOPC   H7X19761   7.600   2.454   6.801  0.9322 -0.5868  0.1922
  163DOPC   H7Y19762   7.563   2.438   6.629  3.4128 -0.8769  1.1923
  163DOPC   C3819763   7.693   2.599   6.664  0.3674  0.2713  0.5748
  163DOPC   H8X19764   7.664   2.648   6.569  0.1500 -0.1262  0.4330
  163DOPC   H8Y19765   7.772   2.525   6.641  0.0248  0.4524 -1.3829
  163DOPC   C3919766   7.726   2.687   6.781 -0.3442 -0.3997 -0.8665
  163DOPC   H9X19767   7.705   2.640   6.879  3.3008  0.8894  0.6983
  163DOPC  C31019768   7.791   2.804   6.770 -0.0970 -0.1929  0.1156
  163DOPC  H10X19769   7.783   2.871   6.857 -1.4132 -0.8972  0.5746
  163DOPC  C31119770   7.832   2.869   6.638  0.2283 -0.1260  0.7668
  163DOPC  H11X19771   7.782   2.968   6.632  0.9868  0.1704 -1.5519
  163DOPC  H11Y19772   7.786   2.812   6.554  0.1612  1.0933 -0.0522
  163DOPC  C31219773   7.983   2.887   6.605 -0.1349 -0.5601 -0.3669
  163DOPC  H12X19774   8.026   2.792   6.568 -2.9772 -1.8655 -0.6135
  163DOPC  H12Y19775   8.039   2.927   6.692 -0.4569 -2.4059  0.7443
  163DOPC  C31319776   8.011   2.988   6.490  0.4284  0.0239  0.1861
  163DOPC  H13X19777   7.990   2.938   6.393  2.5375 -0.8914  0.1336
  163DOPC  H13Y19778   7.938   3.069   6.509 -2.6806 -2.6729  0.5949
  163DOPC  C31419779   8.153   3.042   6.495 -0.3016  0.2512  0.4513
  163DOPC  H14X19780   8.165   3.096   6.591 -1.0891  1.5179 -0.1314
  163DOPC  H14Y19781   8.223   2.956   6.494 -0.7567 -0.1818  2.2888
  163DOPC  C31519782   8.195   3.140   6.384  0.6791  0.2737 -0.2818
  163DOPC  H15X19783   8.299   3.174   6.401  1.0062 -1.1040  0.6366
  163DOPC  H15Y19784   8.135   3.233   6.398  0.3308  0.1022 -0.6348
  163DOPC  C31619785   8.169   3.094   6.242 -0.1796  0.3751 -0.4478
  163DOPC  H16X19786   8.241   3.017   6.207 -1.2849 -0.3528 -1.1364
  163DOPC  H16Y19787   8.070   3.045   6.235  0.8264 -1.7417 -0.5617
  163DOPC  C31719788   8.192   3.207   6.146 -0.1311 -0.4053 -0.0973
  163DOPC  H17X19789   8.112   3.182   6.073  1.3802 -1.6920 -1.3861
  163DOPC  H17Y19790   8.173   3.298   6.207  0.8715  1.0127 -1.8164
  163DOPC  C31819791   8.321   3.213   6.070  0.3350 -0.2254 -0.3689
  163DOPC  H18X19792   8.325   3.291   5.991  0.2065  2.0736  1.7638
  163DOPC  H18Y19793   8.408   3.233   6.136  1.3859 -1.6851 -1.2570
  163DOPC  H18Z19794   8.334   3.116   6.018  1.1835 -0.1923 -0.2436
  164DOPC     N19795   1.048   0.355   7.752  0.3044  0.7210 -0.0985
  164DOPC   C1219796   0.952   0.364   7.630 -0.5260  0.5813 -0.4383
  164DOPC  H12A19797   0.980   0.455   7.579 -0.8155  0.5809 -0.5996
  164DOPC  H12B19798   0.848   0.380   7.655 -0.3017 -0.5008  1.3725
  164DOPC   C1319799   1.191   0.343   7.708 -0.2062 -1.0895  0.2440
  164DOPC  H13A19800   1.262   0.326   7.787 -0.3490  2.6862  1.3872
  164DOPC  H13B19801   1.192   0.270   7.629 -0.2918  1.2518 -2.0654
  164DOPC  H13C19802   1.213   0.438   7.661 -0.7851  0.2927  2.6040
  164DOPC   C1419803   1.019   0.230   7.838  0.3668  0.1575  0.6348
  164DOPC  H14A19804   1.086   0.222   7.922  0.0950  1.9366  1.0809
  164DOPC  H14B19805   0.916   0.238   7.869  0.6000  0.5249  1.3372
  164DOPC  H14C19806   1.018   0.145   7.772 -0.3958  0.5545  0.1132
  164DOPC   C1519807   1.039   0.467   7.846  0.2395  0.3411 -0.2095
  164DOPC  H15A19808   1.102   0.456   7.933 -2.0206 -0.3336  1.4465
  164DOPC  H15B19809   0.940   0.469   7.890  1.2531  1.1248  2.1783
  164DOPC  H15C19810   1.061   0.560   7.796 -0.5492  0.4253 -0.4095
  164DOPC   C1119811   0.966   0.249   7.531 -0.2163 -0.4206  0.1452
  164DOPC  H11A19812   0.975   0.150   7.582  1.5946 -0.4262 -0.1090
  164DOPC  H11B19813   0.885   0.244   7.455  0.2854 -0.8824 -0.3684
  164DOPC     P19814   1.115   0.347   7.328  0.1979 -0.3887  0.0178
  164DOPC   O1319815   1.253   0.403   7.330  0.2739 -0.2553  0.2868
  164DOPC   O1419816   1.000   0.438   7.313  0.0466  0.1526 -0.3611
  164DOPC   O1219817   1.088   0.255   7.460  0.0776 -0.3048  0.0504
  164DOPC   O1119818   1.117   0.234   7.217  0.1718  0.5157  0.2775
  164DOPC    C119819   1.004   0.151   7.219 -0.0508 -0.8915 -0.2117
  164DOPC    HA19820   0.907   0.205   7.214  1.7779  2.5881 -1.1021
  164DOPC    HB19821   1.012   0.083   7.307 -0.9033 -0.3533  0.2959
  164DOPC    C219822   1.010   0.071   7.092 -0.3215  0.0907 -0.1218
  164DOPC    HS19823   1.111   0.024   7.086 -1.0116 -1.4317 -0.1358
  164DOPC   O2119824   0.979   0.142   6.969  0.3081  0.4719 -0.4163
  164DOPC   C2119825   1.045   0.104   6.854  0.4214 -0.1120  0.0612
  164DOPC   O2219826   1.130   0.017   6.855 -0.4271  0.0469 -0.2258
  164DOPC   C2219827   0.996   0.184   6.738 -0.8100 -0.1416 -0.3293
  164DOPC   H2R19828   1.037   0.287   6.746 -0.2051 -0.3590 -0.5374
  164DOPC   H2S19829   0.886   0.192   6.748 -0.6084  1.4539  1.1047
  164DOPC    C319830   0.918  -0.061   7.121  0.6043 -0.5664  0.2301
  164DOPC    HX19831   0.817  -0.023   7.147 -0.4575 -2.1156 -1.3729
  164DOPC    HY19832   0.962  -0.110   7.210 -2.7051  0.4129  2.5994
  164DOPC   O3119833   0.900  -0.153   7.013 -0.1498  0.3077 -0.1200
  164DOPC   C3119834   0.797  -0.123   6.928 -0.5480 -0.0940  0.1581
  164DOPC   O3219835   0.712  -0.038   6.952  0.4018  0.0668 -0.2721
  164DOPC   C3219836   0.820  -0.210   6.803 -0.3552 -0.1682 -0.0984
  164DOPC   H2X19837   0.909  -0.170   6.749 -0.5730 -0.2044 -0.4886
  164DOPC   H2Y19838   0.832  -0.316   6.835  0.5499 -0.4756 -1.3504
  164DOPC   C2319839   1.051   0.132   6.607  0.5725  0.1852 -0.4442
  164DOPC   H3R19840   1.010   0.031   6.585 -2.1470  1.0874  0.1314
  164DOPC   H3S19841   1.161   0.115   6.613  0.4994 -1.4666 -2.3919
  164DOPC   C2419842   0.999   0.217   6.493  0.0210 -0.0625 -0.2233
  164DOPC   H4R19843   0.999   0.322   6.530  0.7854 -0.5150  1.1147
  164DOPC   H4S19844   0.891   0.199   6.475 -0.2376 -2.0084  2.6259
  164DOPC   C2519845   1.083   0.213   6.363 -0.7585  0.7499 -0.2795
  164DOPC   H5R19846   1.073   0.107   6.330  1.6134  0.1824  0.6025
  164DOPC   H5S19847   1.192   0.222   6.385 -0.3895  0.5159 -1.8699
  164DOPC   C2619848   1.043   0.316   6.255  0.7470  0.2666  0.4142
  164DOPC   H6R19849   1.062   0.419   6.295  0.4081  0.1903  0.7767
  164DOPC   H6S19850   0.933   0.307   6.241  0.9414 -1.0004 -0.4465
  164DOPC   C2719851   1.115   0.293   6.121 -0.3938 -0.5720  0.8263
  164DOPC   H7R19852   1.090   0.185   6.108  0.0293 -0.6846  0.9333
  164DOPC   H7S19853   1.224   0.290   6.139 -0.6346  2.1297  3.5166
  164DOPC   C2819854   1.081   0.371   5.992  0.3062 -0.6233 -0.5487
  164DOPC   H8R19855   0.971   0.362   5.983  0.2030  0.3920 -0.4241
  164DOPC   H8S19856   1.113   0.301   5.911 -0.5738 -0.2053 -1.2813
  164DOPC   C2919857   1.129   0.515   5.979  0.0153 -0.0507 -0.6327
  164DOPC   H9R19858   1.234   0.522   5.949 -0.1537  0.3287 -1.1423
  164DOPC  C21019859   1.065   0.631   6.005  0.4087  0.0251  0.1773
  164DOPC  H10R19860   1.110   0.730   5.990 -1.3342  0.6319 -1.6009
  164DOPC  C21119861   0.917   0.645   6.048 -0.2891 -0.0716 -0.1506
  164DOPC  H11R19862   0.903   0.705   6.140 -0.5656  1.0885 -0.9280
  164DOPC  H11S19863   0.871   0.547   6.073 -0.4793  0.4064  1.4931
  164DOPC  C21219864   0.823   0.705   5.941  0.3874 -0.3163 -1.1993
  164DOPC  H12R19865   0.849   0.806   5.901  2.7930 -0.6386 -0.5742
  164DOPC  H12S19866   0.717   0.708   5.974  0.7776 -1.8385  0.2918
  164DOPC  C21319867   0.829   0.624   5.809  0.2211  0.2405  0.1908
  164DOPC  H13R19868   0.811   0.519   5.838  2.7101 -0.3906 -0.3377
  164DOPC  H13S19869   0.929   0.627   5.761  1.6893 -2.3941  2.7691
  164DOPC  C21419870   0.724   0.687   5.711  0.2027 -0.1627 -0.7666
  164DOPC  H14R19871   0.755   0.793   5.699  0.5011  0.2756  2.7099
  164DOPC  H14S19872   0.625   0.688   5.762 -0.0133 -2.1361 -1.0877
  164DOPC  C21519873   0.706   0.629   5.573 -0.5648  0.3185 -0.0338
  164DOPC  H15R19874   0.695   0.519   5.579 -1.1682  0.2649 -1.6978
  164DOPC  H15S19875   0.799   0.640   5.513 -1.4990  1.5531 -1.3249
  164DOPC  C21619876   0.601   0.691   5.477 -0.0298  0.3873 -0.5035
  164DOPC  H16R19877   0.600   0.801   5.489  1.5652  0.1653  2.6026
  164DOPC  H16S19878   0.500   0.649   5.495  0.0378  0.7845  0.9026
  164DOPC  C21719879   0.629   0.664   5.329 -0.5398 -0.6349  0.3438
  164DOPC  H17R19880   0.652   0.557   5.309  0.2591 -0.3576 -0.2726
  164DOPC  H17S19881   0.718   0.723   5.300 -1.2766 -0.3345 -1.4326
  164DOPC  C21819882   0.508   0.697   5.243  0.0175  0.2284 -0.5300
  164DOPC  H18R19883   0.502   0.626   5.157  0.9837 -0.2740 -0.2054
  164DOPC  H18S19884   0.486   0.804   5.223 -0.4897  0.0575 -0.9027
  164DOPC  H18T19885   0.420   0.662   5.301  1.2854 -2.2194  0.0572
  164DOPC   C3319886   0.714  -0.202   6.693  0.6323 -0.2233  0.7745
  164DOPC   H3X19887   0.725  -0.101   6.648 -0.4044  0.5518  2.1748
  164DOPC   H3Y19888   0.610  -0.213   6.732 -0.0753  0.5671 -0.7788
  164DOPC   C3419889   0.737  -0.313   6.591 -0.0744  0.0372  0.8873
  164DOPC   H4X19890   0.648  -0.334   6.528 -2.8573 -0.5150  4.6837
  164DOPC   H4Y19891   0.753  -0.410   6.643  1.7649 -0.4123 -0.4149
  164DOPC   C3519892   0.862  -0.283   6.508 -0.1883 -0.4910  0.5209
  164DOPC   H5X19893   0.896  -0.381   6.467 -0.8710 -0.5742  0.1403
  164DOPC   H5Y19894   0.953  -0.251   6.564 -1.5556  0.5789  2.2142
  164DOPC   C3619895   0.828  -0.201   6.389 -0.2165  0.2443  0.3747
  164DOPC   H6X19896   0.732  -0.240   6.348 -1.6911  1.0514  2.8521
  164DOPC   H6Y19897   0.795  -0.105   6.435  0.6807  0.8144 -0.1602
  164DOPC   C3719898   0.938  -0.177   6.282 -0.2830  0.6208 -0.4514
  164DOPC   H7X19899   1.031  -0.142   6.331 -0.5346  0.3100  0.2608
  164DOPC   H7Y19900   0.963  -0.269   6.225 -0.7141 -0.0843  0.4777
  164DOPC   C3819901   0.892  -0.082   6.169  0.2444  0.1776 -0.3513
  164DOPC   H8X19902   0.976  -0.085   6.096  0.1882 -1.2307 -0.3748
  164DOPC   H8Y19903   0.873   0.020   6.209 -0.6633  0.4302 -1.3856
  164DOPC   C3919904   0.774  -0.137   6.104  0.1353  0.9120 -0.4572
  164DOPC   H9X19905   0.685  -0.124   6.167 -0.2080  2.0219 -1.1493
  164DOPC  C31019906   0.760  -0.182   5.981 -0.1553  0.0729  0.3628
  164DOPC  H10X19907   0.664  -0.215   5.937  0.6758 -2.0824  0.0359
  164DOPC  C31119908   0.874  -0.190   5.881 -0.1736 -0.6605  0.0385
  164DOPC  H11X19909   0.845  -0.257   5.797 -0.6110  1.5705 -1.6771
  164DOPC  H11Y19910   0.965  -0.231   5.931  1.1940  0.6233 -1.3012
  164DOPC  C31219911   0.911  -0.057   5.810  0.3114 -0.7739 -0.3743
  164DOPC  H12X19912   1.004  -0.077   5.752  2.7094  1.1075  2.5363
  164DOPC  H12Y19913   0.928   0.016   5.892  0.2633 -0.0513 -0.9972
  164DOPC  C31319914   0.803  -0.000   5.720 -0.2020  0.6178 -0.0862
  164DOPC  H13X19915   0.770  -0.081   5.651 -1.1789  0.9009  0.0385
  164DOPC  H13Y19916   0.714   0.029   5.779  0.2042  0.3981  0.6438
  164DOPC  C31419917   0.862   0.128   5.652  0.0725  0.1471  0.5473
  164DOPC  H14X19918   0.954   0.101   5.596 -0.6659  1.3694 -1.3651
  164DOPC  H14Y19919   0.878   0.194   5.740 -2.3710 -1.0788  2.0342
  164DOPC  C31519920   0.771   0.201   5.547  0.1502 -0.6250  0.2260
  164DOPC  H15X19921   0.819   0.294   5.511  1.1253 -0.8078  1.0055
  164DOPC  H15Y19922   0.675   0.232   5.593 -0.8245 -2.1646 -0.6693
  164DOPC  C31619923   0.743   0.139   5.404  0.0737  0.6939 -0.7758
  164DOPC  H16X19924   0.843   0.108   5.365 -0.7866 -1.7378 -1.2189
  164DOPC  H16Y19925   0.691   0.042   5.412 -0.0157  0.6352 -1.8477
  164DOPC  C31719926   0.657   0.220   5.314  0.1917  0.7449 -0.0633
  164DOPC  H17X19927   0.601   0.149   5.250  2.0876 -0.6465 -0.2608
  164DOPC  H17Y19928   0.580   0.275   5.372 -0.1635  0.5660 -0.3622
  164DOPC  C31819929   0.737   0.308   5.223  0.8748  0.6828  0.2765
  164DOPC  H18X19930   0.670   0.358   5.150  1.1972 -0.9092 -1.1682
  164DOPC  H18Y19931   0.801   0.382   5.276  0.8065  1.1735 -0.3100
  164DOPC  H18Z19932   0.811   0.258   5.156  0.1297 -0.1138  0.0328
  165DOPC     N19933   4.055   0.530   6.899 -0.4246  0.0218  0.5829
  165DOPC   C1219934   4.087   0.591   7.034  0.1579  0.5925  0.1661
  165DOPC  H12A19935   4.119   0.511   7.098  1.2083  0.7559 -0.1319
  165DOPC  H12B19936   3.998   0.643   7.068  1.4545  2.2333  1.1869
  165DOPC   C1319937   4.182   0.506   6.807  0.1685  0.2170 -0.5062
  165DOPC  H13A19938   4.245   0.593   6.795 -0.5968  0.9890  0.8130
  165DOPC  H13B19939   4.243   0.428   6.850  1.2666  1.3923  0.1451
  165DOPC  H13C19940   4.149   0.475   6.709  1.6878  0.1526 -1.0198
  165DOPC   C1419941   3.962   0.628   6.822 -0.1694 -0.5727  0.1159
  165DOPC  H14A19942   4.002   0.728   6.816 -0.8751 -0.3382 -0.8220
  165DOPC  H14B19943   3.964   0.600   6.717 -2.0934  0.6079 -0.2704
  165DOPC  H14C19944   3.859   0.632   6.854 -0.6026  1.5597 -1.2907
  165DOPC   C1519945   3.990   0.400   6.918  0.1487  0.1086  0.1111
  165DOPC  H15A19946   4.069   0.335   6.953  0.5015  0.6899  0.4126
  165DOPC  H15B19947   3.957   0.353   6.826  2.5660 -1.7572  0.0801
  165DOPC  H15C19948   3.913   0.402   6.994  0.3004 -2.9531  0.4793
  165DOPC   C1119949   4.203   0.700   7.041  0.3502  0.5868  0.0446
  165DOPC  H11A19950   4.200   0.751   6.942  0.2307 -0.5911 -0.5697
  165DOPC  H11B19951   4.188   0.774   7.123  1.2490 -0.2580  0.9923
  165DOPC     P19952   4.367   0.568   7.194 -0.0564 -0.1006  0.0458
  165DOPC   O1319953   4.503   0.509   7.186 -0.4193 -0.0844 -0.4625
  165DOPC   O1419954   4.252   0.489   7.249  0.3248 -0.0281  0.3348
  165DOPC   O1219955   4.323   0.628   7.057  0.4485 -0.0731 -0.2019
  165DOPC   O1119956   4.381   0.705   7.275  0.2203 -0.0395  0.6524
  165DOPC    C119957   4.505   0.753   7.315  0.0669 -0.0915 -0.1198
  165DOPC    HA19958   4.590   0.681   7.306 -0.5663 -1.3805  3.0321
  165DOPC    HB19959   4.488   0.789   7.418 -0.9089 -0.3226 -0.1946
  165DOPC    C219960   4.547   0.876   7.228  0.0492 -0.6372 -0.6875
  165DOPC    HS19961   4.457   0.941   7.221  0.2491 -0.3405 -0.5354
  165DOPC   O2119962   4.603   0.832   7.105  0.7828  0.0958  0.1503
  165DOPC   C2119963   4.526   0.850   7.002 -0.1825 -0.8983 -0.7674
  165DOPC   O2219964   4.429   0.925   7.002 -0.1722 -0.0214 -0.1306
  165DOPC   C2219965   4.576   0.764   6.882  0.0495 -0.1302  0.1388
  165DOPC   H2R19966   4.489   0.712   6.835  0.0738 -0.1580  0.1241
  165DOPC   H2S19967   4.660   0.699   6.912  0.3311 -0.4644 -1.3061
  165DOPC    C319968   4.654   0.963   7.301  0.4606 -0.5563  0.4975
  165DOPC    HX19969   4.746   0.902   7.299  0.8077 -0.1121  2.0792
  165DOPC    HY19970   4.615   0.981   7.403  0.6164  1.5292  0.2300
  165DOPC   O3119971   4.668   1.090   7.242  0.0457 -0.1696  0.4304
  165DOPC   C3119972   4.792   1.137   7.246 -0.2850  0.5473 -0.2451
  165DOPC   O3219973   4.887   1.069   7.281  0.2696 -0.4033  0.1741
  165DOPC   C3219974   4.816   1.284   7.188  0.1266  0.0355 -1.3108
  165DOPC   H2X19975   4.715   1.326   7.207 -0.5878 -2.2170  0.3392
  165DOPC   H2Y19976   4.897   1.331   7.247  1.3897 -4.2553  0.7839
  165DOPC   C2319977   4.625   0.862   6.776  0.4502 -0.1249  0.2570
  165DOPC   H3R19978   4.721   0.906   6.810  0.5962 -0.2960  0.0642
  165DOPC   H3S19979   4.557   0.948   6.756  1.9237  0.8804 -0.6783
  165DOPC   C2419980   4.666   0.793   6.642  0.5252 -0.7637  0.0101
  165DOPC   H4R19981   4.580   0.738   6.599  0.0017  1.0541 -1.3725
  165DOPC   H4S19982   4.747   0.720   6.663 -0.7402 -2.6122 -1.2959
  165DOPC   C2519983   4.719   0.903   6.553  0.7092 -0.2699 -0.2363
  165DOPC   H5R19984   4.792   0.965   6.610 -0.5553  0.4510  0.6661
  165DOPC   H5S19985   4.633   0.967   6.524  0.9303  0.2505  0.2404
  165DOPC   C2619986   4.769   0.850   6.418 -0.2539 -0.6869 -0.1210
  165DOPC   H6R19987   4.789   0.937   6.352  2.6186  1.0464  2.7699
  165DOPC   H6S19988   4.694   0.782   6.372 -0.0992  0.3888 -2.0751
  165DOPC   C2719989   4.900   0.767   6.437  0.8949  0.5865  0.2348
  165DOPC   H7R19990   4.885   0.667   6.481  2.8731  0.7418  1.3820
  165DOPC   H7S19991   4.963   0.815   6.515 -0.1459 -1.6148  2.5747
  165DOPC   C2819992   4.988   0.754   6.310  0.1402  0.3265 -0.1328
  165DOPC   H8R19993   5.012   0.851   6.260  0.5428  0.6252  0.6127
  165DOPC   H8S19994   4.938   0.680   6.246  0.4431 -0.4865  0.5479
  165DOPC   C2919995   5.114   0.679   6.348 -0.5189  0.4653 -0.0413
  165DOPC   H9R19996   5.100   0.579   6.392 -0.8496  0.3642 -0.3793
  165DOPC  C21019997   5.236   0.720   6.322 -0.0252 -0.0440  0.4117
  165DOPC  H10R19998   5.322   0.657   6.349 -1.8713 -1.6666  2.8978
  165DOPC  C21119999   5.272   0.841   6.239  0.7852 -0.4104  0.6059
  165DOPC  H11R20000   5.305   0.928   6.301  1.2608 -1.2383  1.5422
  165DOPC  H11S20001   5.188   0.881   6.178  1.2651 -0.3577 -0.0340
  165DOPC  C21220002   5.387   0.817   6.141  0.0762  0.3885 -0.3536
  165DOPC  H12R20003   5.372   0.727   6.078  0.0132 -0.6092  1.0383
  165DOPC  H12S20004   5.480   0.802   6.201 -0.7481 -2.5500  0.3504
  165DOPC  C21320005   5.405   0.924   6.038 -0.6768  0.1978 -0.7059
  165DOPC  H13R20006   5.418   1.026   6.080 -0.5712 -0.4460  0.8772
  165DOPC  H13S20007   5.312   0.930   5.977 -1.5396 -1.4885  0.3628
  165DOPC  C21420008   5.510   0.881   5.936  0.0531 -0.2724  0.0918
  165DOPC  H14R20009   5.473   0.792   5.881 -0.2187  0.2716 -0.6228
  165DOPC  H14S20010   5.605   0.853   5.985 -0.6911 -1.0144  1.1655
  165DOPC  C21520011   5.544   0.987   5.826 -0.5114  0.0533 -0.2182
  165DOPC  H15R20012   5.451   1.046   5.814 -0.3917  0.4133  0.5561
  165DOPC  H15S20013   5.560   0.930   5.732  1.2001  0.5100 -0.2325
  165DOPC  C21620014   5.675   1.063   5.851 -0.4065 -0.1160 -0.1983
  165DOPC  H16R20015   5.763   1.000   5.828 -1.2616 -1.0616 -0.9646
  165DOPC  H16S20016   5.681   1.103   5.955  0.7894  1.8175 -0.9558
  165DOPC  C21720017   5.693   1.196   5.773  1.1088 -0.1736  0.8999
  165DOPC  H17R20018   5.603   1.250   5.812  0.5748 -1.4459  1.4928
  165DOPC  H17S20019   5.668   1.178   5.666 -0.8747  1.5095  1.0060
  165DOPC  C21820020   5.826   1.271   5.796  0.3644  0.3770 -0.2633
  165DOPC  H18R20021   5.851   1.278   5.904  0.1428  0.5590 -0.2246
  165DOPC  H18S20022   5.834   1.372   5.752  1.4119  0.3019 -0.2799
  165DOPC  H18T20023   5.907   1.218   5.741  2.0739  1.7756  0.8315
  165DOPC   C3320024   4.848   1.276   7.039 -0.1992  0.6050 -0.2119
  165DOPC   H3X20025   4.922   1.196   7.021  0.1466  0.8346  0.1446
  165DOPC   H3Y20026   4.893   1.376   7.018  1.5039 -0.0034  0.3579
  165DOPC   C3420027   4.721   1.252   6.962  0.3377 -0.1969  0.2672
  165DOPC   H4X20028   4.641   1.327   6.974 -0.5543 -0.6738 -2.1538
  165DOPC   H4Y20029   4.681   1.159   7.008  0.1145 -0.2767 -0.0863
  165DOPC   C3520030   4.738   1.243   6.812 -0.2663 -0.8233 -0.0474
  165DOPC   H5X20031   4.652   1.185   6.771  0.7823 -1.8129 -0.9373
  165DOPC   H5Y20032   4.827   1.181   6.786  1.3121  1.2936  0.0058
  165DOPC   C3620033   4.760   1.379   6.744  0.1509 -0.1648  0.5754
  165DOPC   H6X20034   4.675   1.442   6.781  0.8597  0.2625  1.5334
  165DOPC   H6Y20035   4.855   1.429   6.771  0.1675  1.2490 -1.8347
  165DOPC   C3720036   4.777   1.373   6.593 -0.1126 -0.0523 -0.0870
  165DOPC   H7X20037   4.686   1.325   6.553  0.5332 -1.0187 -0.4273
  165DOPC   H7Y20038   4.872   1.325   6.561 -0.3154 -0.2974 -0.3262
  165DOPC   C3820039   4.786   1.513   6.535  0.3199 -0.0925 -0.4029
  165DOPC   H8X20040   4.890   1.552   6.542  0.6766 -0.6968 -1.9243
  165DOPC   H8Y20041   4.709   1.567   6.594  1.1467 -2.1782  2.8398
  165DOPC   C3920042   4.754   1.511   6.385 -0.7444 -0.1713  0.6466
  165DOPC   H9X20043   4.668   1.449   6.357  0.0742  0.3385 -3.7390
  165DOPC  C31020044   4.818   1.571   6.289 -0.2974 -0.0631 -0.0107
  165DOPC  H10X20045   4.772   1.571   6.189 -0.4994  0.4740  0.0805
  165DOPC  C31120046   4.931   1.674   6.302 -0.4896  0.2136  0.1660
  165DOPC  H11X20047   5.032   1.630   6.312 -0.1660  1.3042  2.0716
  165DOPC  H11Y20048   4.918   1.737   6.393  1.6705 -0.1008  0.7407
  165DOPC  C31220049   4.946   1.773   6.185  0.3639 -0.7961  0.0536
  165DOPC  H12X20050   4.968   1.722   6.089  2.3001  1.1073 -0.6039
  165DOPC  H12Y20051   5.039   1.833   6.191  1.1821 -1.8905 -1.0774
  165DOPC  C31320052   4.816   1.864   6.161 -0.4297 -0.4293 -0.3649
  165DOPC  H13X20053   4.833   1.929   6.073 -0.1959  0.1827  0.1291
  165DOPC  H13Y20054   4.731   1.799   6.129  1.5660 -2.3703 -2.0926
  165DOPC  C31420055   4.767   1.949   6.281  0.4600  0.1298  1.1423
  165DOPC  H14X20056   4.685   2.010   6.236  0.8635 -0.2059 -0.0839
  165DOPC  H14Y20057   4.722   1.888   6.361  1.1995 -0.6410  0.9861
  165DOPC  C31520058   4.880   2.036   6.339 -0.6030  1.0547  0.5551
  165DOPC  H15X20059   4.920   2.100   6.257 -1.8060  0.3585 -0.6078
  165DOPC  H15Y20060   4.956   1.973   6.391 -1.6438  0.8319  1.8697
  165DOPC  C31620061   4.820   2.139   6.436 -0.2419  0.7621  0.0204
  165DOPC  H16X20062   4.843   2.241   6.399  1.6402  0.4119  0.1401
  165DOPC  H16Y20063   4.709   2.142   6.424 -0.3797  0.0447  0.9823
  165DOPC  C31720064   4.863   2.120   6.576  0.0759 -0.4652 -0.0937
  165DOPC  H17X20065   4.863   2.013   6.607 -0.8631 -0.2912  0.5642
  165DOPC  H17Y20066   4.971   2.136   6.596 -0.1213 -0.3104  0.9033
  165DOPC  C31820067   4.772   2.193   6.678 -0.1923  0.4520  0.3863
  165DOPC  H18X20068   4.669   2.154   6.672 -0.1262  0.5106 -2.5208
  165DOPC  H18Y20069   4.817   2.172   6.778 -0.1350 -1.6615 -0.0395
  165DOPC  H18Z20070   4.760   2.302   6.658 -2.8285  0.4198  1.3946
  166DOPC     N20071   7.013   2.704   8.169  0.4332 -0.4578 -0.1340
  166DOPC   C1220072   7.031   2.567   8.240 -0.5370  0.0759  0.2649
  166DOPC  H12A20073   7.113   2.568   8.311 -0.0001  0.7377 -0.3526
  166DOPC  H12B20074   7.068   2.499   8.165 -0.2870 -0.1447  0.5814
  166DOPC   C1320075   6.914   2.688   8.056  0.1682  0.1115 -0.4063
  166DOPC  H13A20076   6.874   2.782   8.021  2.3439  0.4928 -2.0953
  166DOPC  H13B20077   6.955   2.649   7.964 -0.5139 -1.2692 -0.1410
  166DOPC  H13C20078   6.836   2.618   8.080  0.2924 -0.6128 -2.0212
  166DOPC   C1420079   7.143   2.754   8.111  0.3814 -0.1919  0.1370
  166DOPC  H14A20080   7.136   2.853   8.070  2.7189  0.7435  1.7750
  166DOPC  H14B20081   7.218   2.744   8.188  0.8600 -3.0814 -0.5719
  166DOPC  H14C20082   7.175   2.689   8.031  1.3877  1.0187 -0.4745
  166DOPC   C1520083   6.959   2.797   8.268 -0.0968 -0.2323 -0.5100
  166DOPC  H15A20084   7.039   2.802   8.340  1.4609  1.2164 -2.2117
  166DOPC  H15B20085   6.867   2.761   8.310 -1.7356  3.1111 -0.8579
  166DOPC  H15C20086   6.946   2.903   8.247  1.3991 -0.2397 -1.7415
  166DOPC   C1120087   6.908   2.495   8.283  0.3940 -0.1064 -0.9098
  166DOPC  H11A20088   6.931   2.413   8.354  0.9024 -0.0501 -1.0112
  166DOPC  H11B20089   6.839   2.562   8.340 -2.3686 -1.1487 -2.8338
  166DOPC     P20090   6.889   2.311   8.108  0.1502 -0.0752  0.3808
  166DOPC   O1320091   6.842   2.198   8.186 -0.0524  0.6033 -0.1452
  166DOPC   O1420092   7.039   2.316   8.089  0.2422  0.5039 -0.0439
  166DOPC   O1220093   6.830   2.438   8.177 -0.3868  0.1588 -0.1737
  166DOPC   O1120094   6.822   2.301   7.962  0.4835  0.7383  0.2208
  166DOPC    C120095   6.682   2.308   7.936  0.5851  0.8662  0.5360
  166DOPC    HA20096   6.661   2.388   7.863 -1.4526  0.6483  0.8342
  166DOPC    HB20097   6.624   2.318   8.030 -1.1363 -0.7830 -0.2846
  166DOPC    C220098   6.623   2.172   7.884 -0.0487 -0.4225 -0.5493
  166DOPC    HS20099   6.625   2.091   7.960 -0.1536 -0.9095 -1.0542
  166DOPC   O2120100   6.704   2.116   7.779  0.1728 -0.6425  0.2074
  166DOPC   C2120101   6.674   1.990   7.733 -0.9837  0.2761  0.0987
  166DOPC   O2220102   6.594   1.914   7.790 -0.5099  0.4827 -0.4006
  166DOPC   C2220103   6.762   1.955   7.606  0.3929  0.4834  0.4695
  166DOPC   H2R20104   6.873   1.950   7.619  0.6785 -2.4727 -1.9655
  166DOPC   H2S20105   6.740   2.027   7.525  0.5569  1.5621  1.3592
  166DOPC    C320106   6.468   2.185   7.848 -0.2420 -0.6336  0.5960
  166DOPC    HX20107   6.403   2.209   7.934 -1.1697  2.2586 -0.8053
  166DOPC    HY20108   6.428   2.088   7.812 -1.4196  0.0024  0.1192
  166DOPC   O3120109   6.435   2.288   7.754  0.1456  0.1027 -0.2630
  166DOPC   C3120110   6.411   2.255   7.622  0.3167 -0.0434  0.0438
  166DOPC   O3220111   6.398   2.140   7.582 -0.9475  0.5311  0.2472
  166DOPC   C3220112   6.362   2.380   7.547 -0.1990 -0.8783  0.3995
  166DOPC   H2X20113   6.255   2.404   7.564  0.4180  1.4409  1.3920
  166DOPC   H2Y20114   6.418   2.464   7.592 -0.4933 -0.7497  0.5284
  166DOPC   C2320115   6.726   1.811   7.558 -0.4285  0.6998  0.2288
  166DOPC   H3R20116   6.619   1.794   7.535 -0.1982 -0.4068 -0.1097
  166DOPC   H3S20117   6.757   1.739   7.637 -1.5047  1.0347  0.9609
  166DOPC   C2420118   6.793   1.768   7.422 -0.2387  0.1285 -0.3375
  166DOPC   H4R20119   6.760   1.838   7.342 -1.7875 -1.3750 -1.0698
  166DOPC   H4S20120   6.756   1.665   7.406 -1.8192  0.3125  1.7293
  166DOPC   C2520121   6.946   1.767   7.422 -0.2278 -0.7070 -0.1769
  166DOPC   H5R20122   6.992   1.700   7.498  0.2980  0.3427  0.4340
  166DOPC   H5S20123   6.986   1.866   7.450  0.7961 -0.6499 -1.6777
  166DOPC   C2620124   6.994   1.720   7.284  0.2236 -0.0989 -0.7001
  166DOPC   H6R20125   6.938   1.773   7.204 -0.6138 -0.4161 -0.3417
  166DOPC   H6S20126   6.980   1.610   7.274  1.2968 -0.4175  0.8724
  166DOPC   C2720127   7.143   1.754   7.259 -0.2629 -0.1764 -0.5256
  166DOPC   H7R20128   7.200   1.689   7.329 -2.2450  1.8514  3.3325
  166DOPC   H7S20129   7.160   1.861   7.281  1.1118 -0.3564 -0.6711
  166DOPC   C2820130   7.206   1.720   7.127  0.8297  0.1629  0.9179
  166DOPC   H8R20131   7.169   1.620   7.098  1.3674 -0.5021  2.4469
  166DOPC   H8S20132   7.313   1.697   7.146  0.3433 -1.0673  2.3220
  166DOPC   C2920133   7.185   1.828   7.025 -0.2655  0.6809 -0.7809
  166DOPC   H9R20134   7.229   1.926   7.045 -0.4249  0.5419  0.3014
  166DOPC  C21020135   7.109   1.824   6.914 -0.3578 -0.0229  0.3623
  166DOPC  H10R20136   7.114   1.906   6.841 -2.8016  0.6651  0.8781
  166DOPC  C21120137   7.030   1.710   6.857  0.4718  0.0374 -0.3565
  166DOPC  H11R20138   6.926   1.712   6.896 -0.1211 -0.4095 -1.8522
  166DOPC  H11S20139   7.071   1.619   6.906  0.0823  0.9546  1.8146
  166DOPC  C21220140   7.014   1.699   6.701  0.3297 -0.6138  0.8735
  166DOPC  H12R20141   6.946   1.613   6.682 -1.5309  1.0067 -0.1467
  166DOPC  H12S20142   7.115   1.687   6.656  0.3624 -0.5155  0.9205
  166DOPC  C21320143   6.934   1.821   6.649  0.2204 -0.3195  0.3387
  166DOPC  H13R20144   6.986   1.910   6.691 -0.7689  0.4903 -0.1244
  166DOPC  H13S20145   6.833   1.836   6.692 -0.1146  0.5036 -0.6750
  166DOPC  C21420146   6.921   1.823   6.495 -0.5006 -0.5294 -0.6937
  166DOPC  H14R20147   7.011   1.833   6.430  0.3754 -2.3873  0.1444
  166DOPC  H14S20148   6.862   1.910   6.461 -1.4484 -0.7868  0.2554
  166DOPC  C21520149   6.841   1.695   6.451  0.2769  0.0947 -0.7373
  166DOPC  H15R20150   6.749   1.699   6.513  0.1578 -1.1035 -0.8136
  166DOPC  H15S20151   6.885   1.598   6.481  0.4728  0.4842  0.2737
  166DOPC  C21620152   6.809   1.692   6.304  0.7505  0.2157  0.1873
  166DOPC  H16R20153   6.755   1.786   6.279  1.4388  0.2276 -1.3754
  166DOPC  H16S20154   6.739   1.607   6.290  0.5953  0.7161 -2.8717
  166DOPC  C21720155   6.926   1.690   6.210 -0.6401  0.3141 -0.1516
  166DOPC  H17R20156   6.994   1.605   6.232 -0.7708  0.7902  2.3552
  166DOPC  H17S20157   7.002   1.771   6.218  0.0306 -0.4471  2.0056
  166DOPC  C21820158   6.888   1.668   6.061  0.2268 -0.0461 -0.0202
  166DOPC  H18R20159   6.980   1.689   6.002  1.0949 -0.3533  1.1762
  166DOPC  H18S20160   6.806   1.735   6.027  0.5120  0.1784 -0.2690
  166DOPC  H18T20161   6.849   1.566   6.042 -1.7002 -0.0967  3.3700
  166DOPC   C3320162   6.376   2.375   7.396  0.0196  0.0744  0.0585
  166DOPC   H3X20163   6.320   2.288   7.356  2.0326 -1.4400  0.3424
  166DOPC   H3Y20164   6.483   2.353   7.377 -0.1967 -1.1638  0.1865
  166DOPC   C3420165   6.326   2.508   7.331  0.0080  0.4978  0.2954
  166DOPC   H4X20166   6.372   2.585   7.397 -1.0200  1.0236  0.4299
  166DOPC   H4Y20167   6.216   2.519   7.342 -0.0256 -0.1974  0.7183
  166DOPC   C3520168   6.372   2.524   7.187 -0.4332  0.0380 -0.5183
  166DOPC   H5X20169   6.321   2.614   7.148 -0.1221  1.4409  2.0886
  166DOPC   H5Y20170   6.351   2.432   7.127  0.8817 -0.5783 -0.0635
  166DOPC   C3620171   6.528   2.544   7.184  0.0613  0.2009 -0.0664
  166DOPC   H6X20172   6.568   2.646   7.200 -0.3332  0.8619 -2.7965
  166DOPC   H6Y20173   6.584   2.478   7.255 -1.5167  0.0016  1.0620
  166DOPC   C3720174   6.583   2.502   7.046  0.0260 -0.0977  0.2351
  166DOPC   H7X20175   6.692   2.525   7.050  0.4162 -1.7540 -0.1764
  166DOPC   H7Y20176   6.560   2.394   7.042  0.5146 -0.1725 -0.7262
  166DOPC   C3820177   6.523   2.570   6.918 -0.0607  0.7298 -0.4450
  166DOPC   H8X20178   6.413   2.562   6.931 -0.0826  0.8253 -0.5642
  166DOPC   H8Y20179   6.556   2.513   6.829  1.5248  0.6345  0.1818
  166DOPC   C3920180   6.568   2.715   6.910 -0.0855  0.6697  0.1174
  166DOPC   H9X20181   6.534   2.779   6.992 -2.2191 -0.5145  0.2387
  166DOPC  C31020182   6.628   2.778   6.808 -0.4113 -0.5872  1.0020
  166DOPC  H10X20183   6.669   2.877   6.835 -1.4889 -0.5677  2.7294
  166DOPC  C31120184   6.672   2.724   6.671  1.0603 -0.0196 -0.5882
  166DOPC  H11X20185   6.641   2.618   6.656 -1.1916  0.4380  0.4387
  166DOPC  H11Y20186   6.783   2.733   6.663  1.0282  1.0590  0.0587
  166DOPC  C31220187   6.611   2.812   6.554 -0.1415  0.4014 -0.2567
  166DOPC  H12X20188   6.664   2.909   6.553  0.8798 -0.1381 -0.2298
  166DOPC  H12Y20189   6.503   2.822   6.575  0.0524 -1.7931  2.4626
  166DOPC  C31320190   6.649   2.745   6.426 -0.0976  0.9389  0.1624
  166DOPC  H13X20191   6.751   2.783   6.403 -0.9309  2.7923 -0.6829
  166DOPC  H13Y20192   6.659   2.634   6.431 -3.4388  0.5544  0.4497
  166DOPC  C31420193   6.553   2.782   6.316  0.4599  1.0376 -0.1514
  166DOPC  H14X20194   6.557   2.708   6.233 -1.5150  1.0184 -0.2686
  166DOPC  H14Y20195   6.447   2.781   6.348  0.8626 -0.5968  1.3023
  166DOPC  C31520196   6.591   2.911   6.238 -0.2858  1.2029  0.3685
  166DOPC  H15X20197   6.691   2.889   6.196 -0.7654  0.1634 -0.2830
  166DOPC  H15Y20198   6.587   2.999   6.306 -0.4999  1.1370  0.4420
  166DOPC  C31620199   6.492   2.936   6.119  0.0279 -0.2461  0.0697
  166DOPC  H16X20200   6.478   2.844   6.057  1.5103 -0.6458  0.2879
  166DOPC  H16Y20201   6.394   2.971   6.159 -1.0120 -0.6332 -2.0232
  166DOPC  C31720202   6.545   3.050   6.035  0.1994 -0.1530  0.0800
  166DOPC  H17X20203   6.544   3.144   6.094 -0.0514  0.2758 -0.5830
  166DOPC  H17Y20204   6.651   3.038   6.003  0.3663  0.7654  0.2489
  166DOPC  C31820205   6.456   3.077   5.913 -0.2300  0.5462 -0.1318
  166DOPC  H18X20206   6.441   2.991   5.845 -2.4832 -0.2250  1.2503
  166DOPC  H18Y20207   6.361   3.128   5.937 -0.3951  0.5081 -0.6953
  166DOPC  H18Z20208   6.509   3.156   5.854  0.7334  0.8899  1.1554
  167DOPC     N20209   7.577   0.852   8.240 -0.0783  0.0781  0.4433
  167DOPC   C1220210   7.461   0.853   8.148  0.2833  0.0460  0.0474
  167DOPC  H12A20211   7.382   0.906   8.198 -0.0631 -0.9247  0.5439
  167DOPC  H12B20212   7.428   0.751   8.133 -0.7946  0.3979 -0.0393
  167DOPC   C1320213   7.544   0.796   8.371  0.0845  0.2111 -0.2448
  167DOPC  H13A20214   7.482   0.708   8.363  1.0653 -0.4634 -0.7415
  167DOPC  H13B20215   7.636   0.780   8.426 -0.9807  0.5328  1.7101
  167DOPC  H13C20216   7.501   0.874   8.431  0.6377 -0.4813  1.0910
  167DOPC   C1420217   7.650   0.981   8.253 -0.3218  0.1596 -0.0945
  167DOPC  H14A20218   7.727   0.983   8.329  1.3262 -3.9820 -1.3977
  167DOPC  H14B20219   7.699   0.999   8.158 -1.7483 -1.5006 -1.1931
  167DOPC  H14C20220   7.572   1.053   8.271 -0.7222  0.0057 -1.1567
  167DOPC   C1520221   7.692   0.758   8.188 -0.0623 -0.1920  0.2877
  167DOPC  H15A20222   7.658   0.655   8.185 -1.6721  0.3193 -1.7030
  167DOPC  H15B20223   7.772   0.768   8.259  0.5177  0.5440 -0.4577
  167DOPC  H15C20224   7.718   0.787   8.088  0.1958 -0.5436  0.2498
  167DOPC   C1120225   7.495   0.895   8.001 -0.0519 -0.2912 -0.4995
  167DOPC  H11A20226   7.573   0.832   7.954 -0.0112  1.1249 -2.4448
  167DOPC  H11B20227   7.396   0.883   7.953 -1.9117 -0.0993  2.9431
  167DOPC     P20228   7.446   1.156   8.020 -0.1633 -0.0767  0.2073
  167DOPC   O1320229   7.524   1.281   8.004 -0.3084  0.3985  0.3530
  167DOPC   O1420230   7.380   1.140   8.149  0.3676  0.8131 -0.0311
  167DOPC   O1220231   7.538   1.035   7.991 -0.3312  1.0177  0.1192
  167DOPC   O1120232   7.335   1.139   7.912 -0.4627 -0.1254 -0.0454
  167DOPC    C120233   7.361   1.117   7.771  0.0909 -0.0071  0.4066
  167DOPC    HA20234   7.425   1.028   7.760 -1.6564 -1.4008  1.0161
  167DOPC    HB20235   7.417   1.197   7.718  0.3671 -1.2710 -1.2949
  167DOPC    C220236   7.229   1.088   7.691 -0.1577 -0.1174  0.1039
  167DOPC    HS20237   7.262   1.033   7.600  0.3585 -1.1774  0.9124
  167DOPC   O2120238   7.153   1.212   7.661 -0.0773 -0.7822  0.0114
  167DOPC   C2120239   7.203   1.281   7.558  0.1819 -0.1527 -0.7369
  167DOPC   O2220240   7.297   1.254   7.493 -0.9178  0.5945  0.9065
  167DOPC   C2220241   7.120   1.402   7.531 -0.3569 -0.1919 -0.6912
  167DOPC   H2R20242   7.157   1.442   7.434  1.6487  2.8446  1.1516
  167DOPC   H2S20243   7.143   1.471   7.615  0.0300 -1.0190 -0.1012
  167DOPC    C320244   7.135   0.994   7.772  0.1429  0.0868  0.2560
  167DOPC    HX20245   7.086   1.051   7.854 -0.1445  2.0873 -1.2253
  167DOPC    HY20246   7.202   0.922   7.825 -1.4682 -0.1535  2.1123
  167DOPC   O3120247   7.040   0.915   7.697  0.2083 -0.2870  0.0191
  167DOPC   C3120248   6.914   0.954   7.699 -0.2358  0.0580  0.1191
  167DOPC   O3220249   6.860   1.021   7.782 -0.1155  0.3549 -0.5886
  167DOPC   C3220250   6.837   0.885   7.584 -0.1697  0.1911 -0.0228
  167DOPC   H2X20251   6.859   0.952   7.498  1.3297 -0.7440 -0.4020
  167DOPC   H2Y20252   6.884   0.786   7.567  0.4075  0.4491  0.0535
  167DOPC   C2320253   6.971   1.383   7.533  0.0224  0.3507 -0.2429
  167DOPC   H3R20254   6.928   1.485   7.522  2.0640  1.0512 -2.5644
  167DOPC   H3S20255   6.930   1.328   7.621  1.8079  1.2228  1.2007
  167DOPC   C2420256   6.924   1.293   7.416  0.1561 -0.6243 -0.1076
  167DOPC   H4R20257   6.956   1.187   7.421  0.8994 -0.4404 -0.6954
  167DOPC   H4S20258   6.972   1.334   7.324 -2.0317 -1.0402 -1.4997
  167DOPC   C2520259   6.769   1.293   7.390 -0.2242  0.2265  0.0638
  167DOPC   H5R20260   6.727   1.384   7.342 -2.4070 -0.0516  1.3090
  167DOPC   H5S20261   6.709   1.293   7.484 -1.3400 -1.1917 -0.5976
  167DOPC   C2620262   6.716   1.167   7.327 -0.7160  0.1829  0.2467
  167DOPC   H6R20263   6.736   1.095   7.409 -1.6861 -0.8297 -0.3855
  167DOPC   H6S20264   6.781   1.133   7.244 -0.0662  3.1978 -0.6074
  167DOPC   C2720265   6.571   1.190   7.290  0.6010 -0.5728 -0.8236
  167DOPC   H7R20266   6.573   1.290   7.243  0.7794  0.9472  2.2050
  167DOPC   H7S20267   6.512   1.198   7.384 -0.7293  1.2519 -1.7506
  167DOPC   C2820268   6.515   1.079   7.200 -0.0071 -0.1064  0.2040
  167DOPC   H8R20269   6.519   0.981   7.251 -1.0629 -0.3337 -0.1238
  167DOPC   H8S20270   6.584   1.071   7.113 -0.2526 -3.7199  0.2012
  167DOPC   C2920271   6.378   1.119   7.152 -0.3290 -0.2468 -0.8708
  167DOPC   H9R20272   6.381   1.190   7.068 -0.0139  0.0610 -0.6079
  167DOPC  C21020273   6.259   1.066   7.177  0.5732 -0.2504  0.4077
  167DOPC  H10R20274   6.171   1.111   7.127  1.2703 -0.1129 -0.7317
  167DOPC  C21120275   6.229   0.939   7.242 -0.2255 -1.0177 -0.1456
  167DOPC  H11R20276   6.140   0.957   7.307 -0.5354  0.1294 -0.8577
  167DOPC  H11S20277   6.309   0.918   7.316  0.8561 -0.8242 -1.2427
  167DOPC  C21220278   6.227   0.821   7.153 -0.3267 -0.0854 -0.1557
  167DOPC  H12R20279   6.331   0.806   7.115 -0.6610 -0.9441 -0.7568
  167DOPC  H12S20280   6.188   0.732   7.207 -1.6537  0.6223  0.0944
  167DOPC  C21320281   6.151   0.834   7.027  0.2182  0.3565  0.0505
  167DOPC  H13R20282   6.189   0.924   6.973 -0.8118  0.5749 -0.3357
  167DOPC  H13S20283   6.047   0.864   7.052  0.0792 -0.5378  0.5990
  167DOPC  C21420284   6.170   0.713   6.930  0.6433  0.7382 -0.1430
  167DOPC  H14R20285   6.146   0.628   6.998  0.1931 -1.5995 -3.0278
  167DOPC  H14S20286   6.274   0.696   6.894  0.8728 -0.6280  1.0531
  167DOPC  C21520287   6.089   0.707   6.804  0.0475 -0.2379 -0.1961
  167DOPC  H15R20288   6.105   0.806   6.755 -0.8181 -0.3933 -0.8306
  167DOPC  H15S20289   5.983   0.702   6.836  0.2836 -1.8802  0.3840
  167DOPC  C21620290   6.110   0.594   6.700  0.0436  0.1900 -0.5308
  167DOPC  H16R20291   6.087   0.493   6.742 -0.1752  0.9790  1.3193
  167DOPC  H16S20292   6.215   0.601   6.664 -0.7667 -0.2332 -3.1617
  167DOPC  C21720293   6.013   0.597   6.574 -0.6231  0.2770  0.0648
  167DOPC  H17R20294   5.912   0.585   6.620 -1.6912  1.0377 -1.9587
  167DOPC  H17S20295   6.037   0.514   6.505 -0.0484  0.1344  0.4315
  167DOPC  C21820296   6.011   0.733   6.497  0.3165 -0.1563  0.3278
  167DOPC  H18R20297   6.110   0.781   6.482  0.3151 -0.0602  0.6212
  167DOPC  H18S20298   5.947   0.810   6.546 -0.6944  0.5737 -2.0219
  167DOPC  H18T20299   5.962   0.713   6.400  0.4060  1.6946 -0.1253
  167DOPC   C3320300   6.683   0.884   7.627 -0.5812 -0.5937  0.3182
  167DOPC   H3X20301   6.648   0.988   7.643 -3.5034 -1.2427 -1.2478
  167DOPC   H3Y20302   6.652   0.825   7.716  0.3003  0.9239  1.6822
  167DOPC   C3420303   6.587   0.834   7.518  0.0570 -0.6576 -0.0540
  167DOPC   H4X20304   6.588   0.891   7.423 -0.5454  0.2163  0.4438
  167DOPC   H4Y20305   6.485   0.845   7.560  1.5189 -0.0963  3.7346
  167DOPC   C3520306   6.604   0.684   7.471 -0.0241  0.1795 -0.5112
  167DOPC   H5X20307   6.595   0.617   7.559 -0.0113 -0.3102 -0.8763
  167DOPC   H5Y20308   6.701   0.665   7.420 -0.4164  0.5599 -1.4344
  167DOPC   C3620309   6.494   0.633   7.377 -0.2660 -0.0215 -0.3417
  167DOPC   H6X20310   6.395   0.647   7.425 -0.1803  0.3820 -0.2716
  167DOPC   H6Y20311   6.488   0.696   7.285 -3.8798 -2.3063 -1.8730
  167DOPC   C3720312   6.525   0.494   7.322  0.4318 -0.0253  0.4533
  167DOPC   H7X20313   6.603   0.500   7.244 -0.0067  0.7342  0.0662
  167DOPC   H7Y20314   6.561   0.419   7.397 -1.7487  0.0981  1.6936
  167DOPC   C3820315   6.396   0.441   7.260  0.7347  0.5291  0.1825
  167DOPC   H8X20316   6.358   0.507   7.179  0.0324 -1.0581 -0.8328
  167DOPC   H8Y20317   6.318   0.446   7.339 -0.7075  1.5519 -1.2401
  167DOPC   C3920318   6.416   0.305   7.202 -0.2547 -0.4761  0.1817
  167DOPC   H9X20319   6.441   0.226   7.276 -3.0889 -0.7716  0.9407
  167DOPC  C31020320   6.421   0.274   7.066  0.4930 -0.7011 -0.1930
  167DOPC  H10X20321   6.429   0.168   7.039 -0.2426 -1.1637  1.2855
  167DOPC  C31120322   6.396   0.367   6.948 -0.3458  0.0252  0.2606
  167DOPC  H11X20323   6.459   0.459   6.953 -2.6627  1.6396  1.3547
  167DOPC  H11Y20324   6.296   0.414   6.945 -0.2171  0.2471 -1.7870
  167DOPC  C31220325   6.403   0.289   6.815 -0.6361  0.5314  0.6925
  167DOPC  H12X20326   6.477   0.207   6.822 -1.4777 -0.3505 -0.4406
  167DOPC  H12Y20327   6.424   0.358   6.730  0.5598 -3.9331 -2.9924
  167DOPC  C31320328   6.270   0.219   6.782 -0.6513 -0.4332  0.6768
  167DOPC  H13X20329   6.237   0.166   6.873 -1.3010  0.0098  0.7049
  167DOPC  H13Y20330   6.194   0.296   6.755  1.3548  1.8304  1.1256
  167DOPC  C31420331   6.289   0.121   6.669  0.3441 -0.0167  0.6872
  167DOPC  H14X20332   6.338   0.175   6.585  0.0775 -0.0048  0.5395
  167DOPC  H14Y20333   6.365   0.042   6.690  1.9557  0.8682 -1.4732
  167DOPC  C31520334   6.163   0.046   6.628 -0.0097  0.1865 -1.1790
  167DOPC  H15X20335   6.103   0.010   6.714  1.5185 -0.9183 -0.5291
  167DOPC  H15Y20336   6.190  -0.049   6.576 -1.8484 -0.5237 -0.9112
  167DOPC  C31620337   6.067   0.121   6.536 -0.1390  0.0181  0.0266
  167DOPC  H16X20338   6.059   0.218   6.589 -0.0905 -0.5888  1.1729
  167DOPC  H16Y20339   6.096   0.144   6.431  1.2307 -0.4267  0.2949
  167DOPC  C31720340   5.929   0.057   6.528 -0.0110  0.0331  0.3723
  167DOPC  H17X20341   5.934  -0.050   6.498  1.1879 -0.2314  1.4378
  167DOPC  H17Y20342   5.882   0.067   6.628 -2.0313 -1.4530 -0.3672
  167DOPC  C31820343   5.836   0.131   6.433 -0.4451  0.4699  0.3399
  167DOPC  H18X20344   5.805   0.228   6.476  1.5191  1.2536  0.0531
  167DOPC  H18Y20345   5.883   0.147   6.334 -0.8510 -2.3121 -0.3988
  167DOPC  H18Z20346   5.746   0.067   6.418 -0.1404  0.0916  0.0841
  168DOPC     N20347   1.381   6.972   6.805 -0.7276  0.1850  0.0790
  168DOPC   C1220348   1.449   6.916   6.923  0.3928  1.1836  0.6014
  168DOPC  H12A20349   1.410   6.818   6.948  2.8710 -0.1732 -0.4397
  168DOPC  H12B20350   1.424   6.977   7.009 -0.2411  1.4785  0.2117
  168DOPC   C1320351   1.236   6.996   6.834  0.0645  0.8735 -0.3540
  168DOPC  H13A20352   1.189   6.915   6.887  0.8847  1.5819  1.5801
  168DOPC  H13B20353   1.224   7.072   6.910 -0.5986  2.2981 -1.8073
  168DOPC  H13C20354   1.185   7.021   6.742  0.3343  2.1363 -0.1908
  168DOPC   C1420355   1.394   6.879   6.683 -0.7165 -0.7060 -0.2182
  168DOPC  H14A20356   1.498   6.866   6.657 -0.4948 -0.1996  0.4033
  168DOPC  H14B20357   1.346   6.785   6.707  0.2115 -1.4828 -1.2599
  168DOPC  H14C20358   1.344   6.934   6.605 -1.4801  2.6787  2.4413
  168DOPC   C1520359   1.437   7.107   6.769 -0.2308 -0.7247 -0.2796
  168DOPC  H15A20360   1.409   7.191   6.831  1.1743 -0.0325 -0.5458
  168DOPC  H15B20361   1.411   7.128   6.666  0.6576  1.7985 -0.0653
  168DOPC  H15C20362   1.544   7.107   6.778 -0.2403  2.4650  1.3074
  168DOPC   C1120363   1.599   6.888   6.915  0.0396  0.6985 -0.4335
  168DOPC  H11A20364   1.635   6.869   7.018 -0.2462  0.5435 -0.3618
  168DOPC  H11B20365   1.605   6.799   6.848  0.8381 -0.3428  0.9581
  168DOPC     P20366   1.833   6.968   6.838 -0.0035  0.5029  0.4027
  168DOPC   O1320367   1.882   6.926   6.971  0.3515 -0.2615 -0.1647
  168DOPC   O1420368   1.889   7.101   6.800  0.0764  0.1258 -0.6146
  168DOPC   O1220369   1.673   6.985   6.856 -0.4964 -0.4011  0.6248
  168DOPC   O1120370   1.852   6.860   6.732  0.0868 -0.2170 -0.8647
  168DOPC    C120371   1.778   6.868   6.601 -0.6986 -0.7268  0.0825
  168DOPC    HA20372   1.732   6.967   6.582 -2.9970 -1.9280 -1.0160
  168DOPC    HB20373   1.697   6.793   6.608 -0.6527 -0.7215  0.7109
  168DOPC    C220374   1.867   6.821   6.482  0.7565  0.4653 -0.1938
  168DOPC    HS20375   1.909   6.725   6.519  0.5188  0.5159  0.2249
  168DOPC   O2120376   1.969   6.910   6.457 -0.0880 -0.3170  1.0218
  168DOPC   C2120377   2.073   6.856   6.388  0.1311 -0.0646  0.4042
  168DOPC   O2220378   2.090   6.739   6.360 -0.0922 -0.3460  0.0010
  168DOPC   C2220379   2.173   6.963   6.353  0.0871  0.5368 -0.0121
  168DOPC   H2R20380   2.214   6.975   6.456 -1.4480  2.4085  0.4350
  168DOPC   H2S20381   2.108   7.049   6.327 -3.5548 -1.8472  0.3771
  168DOPC    C320382   1.778   6.771   6.356 -0.5136  0.5757  0.4062
  168DOPC    HX20383   1.704   6.694   6.387  1.4386 -0.9833  1.4556
  168DOPC    HY20384   1.848   6.729   6.281 -1.5148  1.3891 -1.0300
  168DOPC   O3120385   1.714   6.880   6.285 -1.0438  0.3148 -0.3450
  168DOPC   C3120386   1.589   6.909   6.310  0.5517 -0.2618 -0.1367
  168DOPC   O3220387   1.516   6.845   6.386 -0.2425 -0.3046 -0.0729
  168DOPC   C3220388   1.549   7.046   6.255 -0.3730 -0.2379  0.0913
  168DOPC   H2X20389   1.438   7.056   6.252 -0.2555  1.4048  0.5499
  168DOPC   H2Y20390   1.597   7.115   6.328 -0.0997  1.2167 -1.4084
  168DOPC   C2320391   2.268   6.925   6.238  0.4814 -0.0873  0.8838
  168DOPC   H3R20392   2.311   6.823   6.235  1.8378  0.4570 -2.6196
  168DOPC   H3S20393   2.355   6.989   6.265  0.6408 -0.4518  1.2388
  168DOPC   C2420394   2.213   6.986   6.110 -0.0801 -0.1473  0.0587
  168DOPC   H4R20395   2.293   6.980   6.034  1.1531  2.4368  1.0398
  168DOPC   H4S20396   2.190   7.094   6.125 -0.8194 -0.0602 -1.5639
  168DOPC   C2520397   2.080   6.914   6.064 -0.7420 -0.6897 -0.5700
  168DOPC   H5R20398   1.999   6.923   6.139  0.5219 -0.6785  0.8422
  168DOPC   H5S20399   2.097   6.805   6.047 -0.9475 -0.9154  0.6063
  168DOPC   C2620400   2.031   6.966   5.923 -0.0152 -0.3168  0.1557
  168DOPC   H6R20401   2.125   6.962   5.864  0.7557 -1.7892  1.4128
  168DOPC   H6S20402   2.001   7.071   5.906 -0.2055 -0.4275 -0.1912
  168DOPC   C2720403   1.909   6.893   5.860  0.0487 -0.3390  0.1309
  168DOPC   H7R20404   1.824   6.922   5.926 -0.9002  0.5138 -1.4019
  168DOPC   H7S20405   1.916   6.782   5.858 -0.1127 -0.3423 -0.4701
  168DOPC   C2820406   1.883   6.946   5.713 -0.6546  0.0147 -0.8509
  168DOPC   H8R20407   1.975   6.913   5.661  0.5868  0.2372  1.0951
  168DOPC   H8S20408   1.883   7.057   5.712 -0.4128  0.1063  1.8353
  168DOPC   C2920409   1.765   6.892   5.631 -1.0268 -0.0641  0.7199
  168DOPC   H9R20410   1.696   6.830   5.690  0.8343  0.1734  3.3409
  168DOPC  C21020411   1.724   6.940   5.515  0.0452 -0.1093  0.2816
  168DOPC  H10R20412   1.649   6.885   5.457 -0.3723 -0.0837  0.7919
  168DOPC  C21120413   1.802   7.043   5.434 -0.8037 -0.4548 -0.1860
  168DOPC  H11R20414   1.905   7.042   5.475 -1.0502 -0.6842  0.4292
  168DOPC  H11S20415   1.745   7.138   5.449 -0.6768 -0.2953 -0.6899
  168DOPC  C21220416   1.800   7.008   5.285  0.2143  0.5126  0.5088
  168DOPC  H12R20417   1.815   6.900   5.265 -0.4959  0.5230 -0.1274
  168DOPC  H12S20418   1.882   7.070   5.243 -0.1797  0.9009  0.3072
  168DOPC  C21320419   1.667   7.059   5.221  0.1701 -0.2500 -0.0468
  168DOPC  H13R20420   1.673   7.170   5.233 -1.3642 -0.2697  1.3903
  168DOPC  H13S20421   1.579   7.027   5.281  0.6208  0.9198  1.2778
  168DOPC  C21420422   1.651   7.017   5.081 -0.2309  0.1421 -0.2351
  168DOPC  H14R20423   1.628   6.909   5.082  0.4512 -0.0379 -1.8337
  168DOPC  H14S20424   1.744   7.024   5.022 -0.2892 -1.3877 -0.5325
  168DOPC  C21520425   1.558   7.091   4.986  0.5793  0.5935 -0.1500
  168DOPC  H15R20426   1.533   7.025   4.900  0.5077 -1.6372  1.5146
  168DOPC  H15S20427   1.609   7.182   4.949  1.0330  0.5951  0.4714
  168DOPC  C21620428   1.417   7.110   5.044 -0.0513  0.1464 -0.5601
  168DOPC  H16R20429   1.430   7.168   5.137  2.3009  1.8977 -1.8766
  168DOPC  H16S20430   1.377   7.010   5.072  0.8903 -0.5446 -1.5700
  168DOPC  C21720431   1.314   7.176   4.957 -0.2995  0.2952  0.3351
  168DOPC  H17R20432   1.219   7.185   5.013 -0.7489  1.4868 -0.5885
  168DOPC  H17S20433   1.296   7.106   4.873  0.6038 -0.2446  0.5778
  168DOPC  C21820434   1.364   7.312   4.910  0.6247  0.1764  0.7811
  168DOPC  H18R20435   1.459   7.310   4.853 -0.1348  0.2784 -0.5507
  168DOPC  H18S20436   1.365   7.379   4.999 -2.2326  0.9762  0.3150
  168DOPC  H18T20437   1.285   7.348   4.840  1.3111  0.8979  0.3695
  168DOPC   C3320438   1.603   7.057   6.111 -0.1800 -0.4961  0.1936
  168DOPC   H3X20439   1.573   6.969   6.050  0.8150 -0.9340  0.3206
  168DOPC   H3Y20440   1.713   7.056   6.123 -0.1941 -1.2564  0.2702
  168DOPC   C3420441   1.544   7.184   6.040 -0.3837  0.2142 -0.0533
  168DOPC   H4X20442   1.585   7.273   6.092  0.2962  0.3323 -0.7710
  168DOPC   H4Y20443   1.433   7.185   6.040 -0.3881 -0.1809 -0.1045
  168DOPC   C3520444   1.583   7.179   5.890 -0.3131  0.4001  0.1234
  168DOPC   H5X20445   1.545   7.080   5.857 -1.7629  1.8562 -2.9848
  168DOPC   H5Y20446   1.694   7.181   5.882 -0.3996  1.7224 -1.2411
  168DOPC   C3620447   1.517   7.285   5.801 -0.1205  0.3957 -0.1489
  168DOPC   H6X20448   1.411   7.289   5.834 -0.0242  1.1678  0.0858
  168DOPC   H6Y20449   1.552   7.388   5.823 -1.1318  0.8080 -0.3940
  168DOPC   C3720450   1.525   7.243   5.650  0.2296  0.0180 -0.6811
  168DOPC   H7X20451   1.632   7.218   5.633  1.0245  2.8160 -0.3829
  168DOPC   H7Y20452   1.474   7.147   5.628  0.4473  0.3140 -2.6652
  168DOPC   C3820453   1.480   7.358   5.558 -0.0608 -0.0206  0.0816
  168DOPC   H8X20454   1.552   7.442   5.570  3.0694 -2.5892  0.9024
  168DOPC   H8Y20455   1.382   7.391   5.597 -0.5958 -0.4079 -0.8953
  168DOPC   C3920456   1.466   7.324   5.415  0.2492 -0.3911 -0.5456
  168DOPC   H9X20457   1.445   7.218   5.395 -0.7769  0.1134 -2.4510
  168DOPC  C31020458   1.471   7.404   5.308 -0.0722 -0.4925 -0.8369
  168DOPC  H10X20459   1.454   7.348   5.215 -2.7048 -3.0227  1.0044
  168DOPC  C31120460   1.496   7.556   5.312  0.6286 -0.5377 -0.0040
  168DOPC  H11X20461   1.576   7.571   5.236 -1.4904  1.4469 -2.0025
  168DOPC  H11Y20462   1.523   7.577   5.418 -1.5475 -1.3815  0.7769
  168DOPC  C31220463   1.370   7.637   5.270 -0.5082  0.2143  0.4247
  168DOPC  H12X20464   1.291   7.581   5.323 -2.0044  0.3004 -1.5991
  168DOPC  H12Y20465   1.352   7.629   5.161  1.3135  0.1693  0.0988
  168DOPC  C31320466   1.387   7.785   5.304  0.6141 -0.5953 -0.2512
  168DOPC  H13X20467   1.409   7.794   5.412 -2.5782  2.1887  0.3043
  168DOPC  H13Y20468   1.472   7.821   5.242  0.0453 -2.8504 -2.5051
  168DOPC  C31420469   1.260   7.861   5.275 -0.9926 -0.7734 -0.0973
  168DOPC  H14X20470   1.245   7.856   5.165 -1.6010 -0.6731 -0.0231
  168DOPC  H14Y20471   1.175   7.804   5.319 -1.6322  2.4763  3.4545
  168DOPC  C31520472   1.255   8.006   5.323  0.8118 -0.2591  0.3590
  168DOPC  H15X20473   1.352   8.057   5.306  1.7069 -2.3228 -1.1802
  168DOPC  H15Y20474   1.233   7.994   5.431 -0.3953 -0.3636  0.1185
  168DOPC  C31620475   1.131   8.084   5.278 -0.9978 -0.0677 -0.0814
  168DOPC  H16X20476   1.134   8.123   5.174 -0.8720  3.7269  1.1930
  168DOPC  H16Y20477   1.037   8.024   5.281 -0.7188 -0.4552  1.3133
  168DOPC  C31720478   1.097   8.208   5.362  0.4392 -0.2880 -0.0548
  168DOPC  H17X20479   1.059   8.170   5.460 -0.2941 -0.1309 -0.2689
  168DOPC  H17Y20480   1.188   8.260   5.396 -0.3662  0.6539  0.7196
  168DOPC  C31820481   1.006   8.311   5.293 -0.3237  0.3134  0.1609
  168DOPC  H18X20482   1.076   8.370   5.230  0.8684 -0.0996  1.0707
  168DOPC  H18Y20483   0.926   8.257   5.238 -0.7821  2.1841 -1.1099
  168DOPC  H18Z20484   0.964   8.375   5.373 -0.7546 -0.8994  0.9244
  169DOPC     N20485   1.099   1.237   7.634  0.3670  0.5973  0.3982
  169DOPC   C1220486   1.103   1.182   7.487  0.0832 -0.3125  0.2724
  169DOPC  H12A20487   1.202   1.152   7.458  0.3745  1.4266 -0.6364
  169DOPC  H12B20488   1.075   1.262   7.420  1.0308  0.2955  0.5990
  169DOPC   C1320489   1.189   1.351   7.653  0.0378  0.0838  0.2324
  169DOPC  H13A20490   1.290   1.313   7.650  0.5598  1.4845 -1.3240
  169DOPC  H13B20491   1.186   1.426   7.576 -0.2254  1.8440  1.8780
  169DOPC  H13C20492   1.171   1.401   7.747  1.7806 -0.4570  0.9037
  169DOPC   C1420493   1.149   1.129   7.731  0.1812 -0.1729 -0.6162
  169DOPC  H14A20494   1.096   1.035   7.729  1.5695 -0.9907 -2.3684
  169DOPC  H14B20495   1.253   1.110   7.709  0.8487  1.9654  0.3591
  169DOPC  H14C20496   1.144   1.175   7.828  1.1478  0.7747 -0.9879
  169DOPC   C1520497   0.960   1.270   7.654  0.6314 -0.1173  0.2260
  169DOPC  H15A20498   0.935   1.273   7.759 -1.8737  0.5380 -0.3298
  169DOPC  H15B20499   0.895   1.202   7.602  0.0158  0.0909  0.7115
  169DOPC  H15C20500   0.933   1.362   7.604 -0.0952 -1.4630 -2.0010
  169DOPC   C1120501   1.013   1.057   7.449 -0.2699 -0.0301  0.6495
  169DOPC  H11A20502   1.035   1.021   7.346 -1.8791  0.0022  0.2604
  169DOPC  H11B20503   1.028   0.969   7.514 -1.4659 -1.7141 -1.2003
  169DOPC     P20504   0.759   1.049   7.359  0.3863 -0.0848  0.2499
  169DOPC   O1320505   0.641   1.140   7.394  0.0078 -0.1904 -0.0675
  169DOPC   O1420506   0.747   0.901   7.377  0.3367  0.1891 -0.1992
  169DOPC   O1220507   0.879   1.103   7.445 -0.3688  0.5860 -0.0024
  169DOPC   O1120508   0.804   1.072   7.205  0.6356 -0.2247  0.4416
  169DOPC    C120509   0.806   1.211   7.160  0.3104  0.3166  0.6963
  169DOPC    HA20510   0.891   1.237   7.093  0.9304  1.0866  1.7468
  169DOPC    HB20511   0.814   1.278   7.248 -1.9864  2.1439 -0.3813
  169DOPC    C220512   0.678   1.252   7.083  0.1303 -0.6906 -0.4125
  169DOPC    HS20513   0.594   1.249   7.156  0.5050 -1.1430  0.0108
  169DOPC   O2120514   0.656   1.164   6.973 -0.1325 -0.6126  0.0154
  169DOPC   C2120515   0.598   1.047   7.002 -0.0708 -0.6811  0.3636
  169DOPC   O2220516   0.547   1.025   7.110 -0.2427  0.1640 -0.2498
  169DOPC   C2220517   0.601   0.964   6.868 -0.1234  0.1539 -0.0867
  169DOPC   H2R20518   0.704   0.924   6.877  0.2071  1.2866  1.7504
  169DOPC   H2S20519   0.605   1.036   6.784 -1.9561 -1.3748 -1.5770
  169DOPC    C320520   0.684   1.389   7.017 -1.3908 -0.7176  0.1424
  169DOPC    HX20521   0.771   1.387   6.948  0.1274 -1.4977  1.9829
  169DOPC    HY20522   0.717   1.460   7.095 -0.6918 -2.0047  1.0588
  169DOPC   O3120523   0.564   1.414   6.941  1.1944 -0.0440 -0.1879
  169DOPC   C3120524   0.479   1.473   7.034 -0.7276  0.4706  0.0580
  169DOPC   O3220525   0.513   1.539   7.127 -0.0149 -0.1257 -0.0753
  169DOPC   C3220526   0.332   1.442   6.996 -0.6237  0.6205 -0.2191
  169DOPC   H2X20527   0.298   1.498   6.907  0.2070 -0.7789 -1.4727
  169DOPC   H2Y20528   0.339   1.339   6.954 -2.1604  0.3351  0.1707
  169DOPC   C2320529   0.494   0.860   6.858  0.1505 -0.4330 -0.2434
  169DOPC   H3R20530   0.480   0.812   6.957  1.0465  0.2498  0.2382
  169DOPC   H3S20531   0.548   0.785   6.796 -1.0599 -0.7157 -0.9848
  169DOPC   C2420532   0.366   0.904   6.786  0.1103  1.0101 -0.1251
  169DOPC   H4R20533   0.322   0.806   6.757  0.0397 -0.4568  4.1562
  169DOPC   H4S20534   0.386   0.963   6.694 -0.4666  0.2620 -0.7501
  169DOPC   C2520535   0.267   0.979   6.880  0.2955 -0.6393 -0.0107
  169DOPC   H5R20536   0.316   1.078   6.886  1.8065 -1.3551  0.0220
  169DOPC   H5S20537   0.265   0.952   6.987 -0.0773  1.3711  0.5290
  169DOPC   C2620538   0.144   1.009   6.797 -0.4006 -0.4417 -0.2800
  169DOPC   H6R20539   0.170   1.022   6.690  1.1444 -2.0084 -0.1362
  169DOPC   H6S20540   0.103   1.102   6.841 -0.0696 -1.0321  1.3544
  169DOPC   C2720541   0.039   0.898   6.815  0.6255 -0.5721 -0.3776
  169DOPC   H7R20542  -0.014   0.924   6.909 -0.6574  2.0411 -1.7157
  169DOPC   H7S20543   0.099   0.808   6.841  1.2541  0.3352  1.5429
  169DOPC   C2820544  -0.054   0.892   6.700  0.0048  0.3870 -0.1774
  169DOPC   H8R20545  -0.007   0.835   6.617  1.2261  0.6224  0.3334
  169DOPC   H8S20546  -0.072   0.994   6.658  0.2658 -0.0221 -1.3144
  169DOPC   C2920547  -0.180   0.830   6.741  0.0148 -0.2614  0.0068
  169DOPC   H9R20548  -0.207   0.853   6.845 -0.9484  0.0206 -0.2887
  169DOPC  C21020549  -0.245   0.732   6.684  0.1540  0.2034  0.0516
  169DOPC  H10R20550  -0.334   0.693   6.735  0.9421 -0.8875  0.6314
  169DOPC  C21120551  -0.219   0.676   6.547  0.6672  0.2875 -0.2969
  169DOPC  H11R20552  -0.204   0.566   6.556  0.8453  0.1597 -1.8583
  169DOPC  H11S20553  -0.123   0.706   6.499  1.5365 -2.4700 -0.4857
  169DOPC  C21220554  -0.326   0.725   6.444 -0.6703  0.3443 -0.7182
  169DOPC  H12R20555  -0.303   0.833   6.439 -0.0402  0.4432  2.2577
  169DOPC  H12S20556  -0.429   0.721   6.486 -0.1940  1.1174  0.5625
  169DOPC  C21320557  -0.320   0.659   6.305  0.0592  0.0315  0.0401
  169DOPC  H13R20558  -0.395   0.578   6.301 -1.7087  1.5606  0.4233
  169DOPC  H13S20559  -0.220   0.616   6.289 -0.7192 -2.9753  2.4005
  169DOPC  C21420560  -0.348   0.748   6.186 -0.3125 -0.3351  0.0170
  169DOPC  H14R20561  -0.265   0.823   6.178 -1.0381  0.3365 -1.9780
  169DOPC  H14S20562  -0.439   0.812   6.189  0.7632  1.3010 -0.6922
  169DOPC  C21520563  -0.351   0.678   6.050  0.1398 -0.2151  0.3123
  169DOPC  H15R20564  -0.428   0.598   6.046  1.8156 -1.8260 -1.5450
  169DOPC  H15S20565  -0.261   0.618   6.023 -0.8045 -0.7628 -1.8825
  169DOPC  C21620566  -0.368   0.783   5.939 -0.6058  0.1053 -0.0135
  169DOPC  H16R20567  -0.287   0.859   5.928 -0.7500  0.3997  0.8895
  169DOPC  H16S20568  -0.466   0.831   5.961 -1.1912 -0.0859 -1.9979
  169DOPC  C21720569  -0.392   0.709   5.800  0.5885  0.0953 -0.0075
  169DOPC  H17R20570  -0.474   0.636   5.816 -0.0497  0.4833 -1.3897
  169DOPC  H17S20571  -0.306   0.643   5.776  0.3066  0.6442 -2.9223
  169DOPC  C21820572  -0.437   0.789   5.667  1.1026 -0.6585 -0.6585
  169DOPC  H18R20573  -0.539   0.827   5.685  1.7568  0.0323  2.2747
  169DOPC  H18S20574  -0.428   0.732   5.572  0.1818  1.2680 -1.9595
  169DOPC  H18T20575  -0.376   0.882   5.658 -0.5756  0.6375  0.7193
  169DOPC   C3320576   0.217   1.441   7.102  0.3657 -0.2822 -0.4572
  169DOPC   H3X20577   0.219   1.542   7.147  0.9762 -0.3817 -0.2565
  169DOPC   H3Y20578   0.243   1.366   7.180  3.2562  1.5863  0.5150
  169DOPC   C3420579   0.080   1.422   7.038  0.2812  0.2486 -0.4213
  169DOPC   H4X20580   0.084   1.320   6.994 -1.4234 -0.2112  0.4156
  169DOPC   H4Y20581   0.063   1.501   6.962  0.3489  0.9170  0.2500
  169DOPC   C3520582  -0.043   1.412   7.135 -0.5858 -0.0459 -0.2820
  169DOPC   H5X20583  -0.044   1.502   7.200  1.5443 -0.8033  0.9101
  169DOPC   H5Y20584  -0.039   1.325   7.204 -1.6247 -0.2901 -0.5113
  169DOPC   C3620585  -0.172   1.394   7.061 -0.0842 -0.7302 -0.2049
  169DOPC   H6X20586  -0.251   1.407   7.139 -1.1826  1.3001 -1.5684
  169DOPC   H6Y20587  -0.184   1.480   6.993  0.7456  0.5255  1.1740
  169DOPC   C3720588  -0.182   1.261   6.987  0.1675  0.5903 -0.1879
  169DOPC   H7X20589  -0.101   1.252   6.912 -0.2545  1.0029 -0.6994
  169DOPC   H7Y20590  -0.158   1.178   7.058 -2.1522  0.3919  0.4439
  169DOPC   C3820591  -0.320   1.250   6.916 -0.7504 -0.6169 -1.2109
  169DOPC   H8X20592  -0.406   1.258   6.986  0.1150  0.6837 -0.2370
  169DOPC   H8Y20593  -0.330   1.147   6.877 -0.0220 -0.4973 -1.7486
  169DOPC   C3920594  -0.335   1.361   6.812 -0.3466 -0.1701  0.2288
  169DOPC   H9X20595  -0.372   1.457   6.850 -0.0752  0.5546 -1.2864
  169DOPC  C31020596  -0.301   1.336   6.684 -0.1813 -0.5510 -0.1284
  169DOPC  H10X20597  -0.315   1.422   6.617 -2.3423  0.8085  1.8983
  169DOPC  C31120598  -0.250   1.208   6.628 -0.2845  0.7801  0.1355
  169DOPC  H11X20599  -0.243   1.129   6.706 -0.8350  2.9066  2.4426
  169DOPC  H11Y20600  -0.144   1.228   6.600 -0.8595 -0.0675 -3.0796
  169DOPC  C31220601  -0.315   1.162   6.492  0.1269 -0.3789 -0.4817
  169DOPC  H12X20602  -0.281   1.057   6.476 -0.5348 -0.3315 -2.4200
  169DOPC  H12Y20603  -0.274   1.234   6.417  1.3401  0.3135  0.7837
  169DOPC  C31320604  -0.473   1.159   6.501 -0.7684  0.1655  0.0532
  169DOPC  H13X20605  -0.491   1.107   6.597  0.5216 -0.4198  0.0018
  169DOPC  H13Y20606  -0.510   1.263   6.504  0.1763  0.5452 -0.7858
  169DOPC  C31420607  -0.543   1.087   6.381 -0.4140  0.0355 -0.2414
  169DOPC  H14X20608  -0.489   0.993   6.359  0.8217  1.3377 -3.4400
  169DOPC  H14Y20609  -0.644   1.055   6.414 -0.7028  0.7103 -0.4476
  169DOPC  C31520610  -0.539   1.182   6.264 -0.9935  0.4140  0.4023
  169DOPC  H15X20611  -0.444   1.239   6.264 -0.7389 -0.0092  0.7757
  169DOPC  H15Y20612  -0.614   1.264   6.274 -2.9023 -0.8922 -1.9622
  169DOPC  C31620613  -0.559   1.109   6.130  0.3178  0.1101 -1.0516
  169DOPC  H16X20614  -0.542   1.191   6.056 -2.0483  1.5658 -0.1121
  169DOPC  H16Y20615  -0.473   1.040   6.119  1.4032  1.2013  0.1927
  169DOPC  C31720616  -0.696   1.051   6.118 -0.1473 -0.0750  0.7843
  169DOPC  H17X20617  -0.718   0.974   6.195 -1.0520 -1.1260 -0.4696
  169DOPC  H17Y20618  -0.771   1.131   6.134  0.4322  0.4720  0.8011
  169DOPC  C31820619  -0.726   1.006   5.969 -0.1888 -0.5504 -1.0147
  169DOPC  H18X20620  -0.833   0.984   5.946 -0.0829 -0.0252 -2.0916
  169DOPC  H18Y20621  -0.702   1.092   5.902  0.6113 -0.2206 -0.3207
  169DOPC  H18Z20622  -0.658   0.922   5.942  2.1536  0.1232  2.2217
  170DOPC     N20623   7.368   7.338   7.816  0.1385 -0.8120 -0.8470
  170DOPC   C1220624   7.372   7.396   7.680 -0.1954 -0.1392 -0.2021
  170DOPC  H12A20625   7.279   7.452   7.672 -0.9319 -0.9601  1.8781
  170DOPC  H12B20626   7.364   7.311   7.614  2.5527 -1.0041  0.4711
  170DOPC   C1320627   7.494   7.297   7.865  0.6015 -0.4824  0.3339
  170DOPC  H13A20628   7.567   7.376   7.865  1.0361 -0.8527 -0.9318
  170DOPC  H13B20629   7.485   7.259   7.966  1.3265 -2.6257 -0.3406
  170DOPC  H13C20630   7.549   7.216   7.818  0.9877 -1.8150  2.9219
  170DOPC   C1420631   7.269   7.230   7.821  0.4844  0.4096  0.0690
  170DOPC  H14A20632   7.267   7.172   7.913  1.7133  2.2529  1.3190
  170DOPC  H14B20633   7.172   7.276   7.807  0.2704 -0.3798 -1.1331
  170DOPC  H14C20634   7.287   7.161   7.740 -0.3758 -2.5579  2.2267
  170DOPC   C1520635   7.299   7.440   7.903  1.0435  0.2527 -0.0320
  170DOPC  H15A20636   7.284   7.397   8.001 -1.6281 -1.1237 -0.9515
  170DOPC  H15B20637   7.203   7.481   7.876  0.1577 -0.8393  1.3319
  170DOPC  H15C20638   7.369   7.522   7.910  0.8964  0.4426 -0.7099
  170DOPC   C1120639   7.488   7.490   7.638 -0.1842  0.4087 -0.4156
  170DOPC  H11A20640   7.582   7.445   7.677 -1.6434  1.0930  4.5002
  170DOPC  H11B20641   7.475   7.501   7.528  0.9690  2.6882 -0.3715
  170DOPC     P20642   7.371   7.726   7.657  0.1005 -0.6802 -0.2095
  170DOPC   O1320643   7.440   7.852   7.628 -0.1304 -0.3468 -0.0038
  170DOPC   O1420644   7.256   7.735   7.749  0.3420 -0.4524 -0.0800
  170DOPC   O1220645   7.469   7.613   7.717  0.2925 -0.1339 -0.4846
  170DOPC   O1120646   7.328   7.671   7.517  0.0218  0.0545  0.0726
  170DOPC    C120647   7.258   7.747   7.416 -0.3842  0.2514  0.1205
  170DOPC    HA20648   7.267   7.856   7.437 -1.3569  0.5416 -0.8958
  170DOPC    HB20649   7.152   7.722   7.435 -0.0122  0.5306  3.0618
  170DOPC    C220650   7.313   7.723   7.267 -0.5618 -0.0840  0.4846
  170DOPC    HS20651   7.261   7.799   7.204 -0.3435 -1.0840 -0.9551
  170DOPC   O2120652   7.289   7.594   7.212 -0.3680  0.0368 -0.0282
  170DOPC   C2120653   7.166   7.559   7.203  0.2391  0.2260  0.2782
  170DOPC   O2220654   7.070   7.634   7.206  0.0191  0.2804  0.2998
  170DOPC   C2220655   7.165   7.407   7.148 -0.8354 -0.0622 -0.7471
  170DOPC   H2R20656   7.134   7.340   7.231  0.5829 -0.6902 -0.6973
  170DOPC   H2S20657   7.272   7.382   7.131 -1.4516 -2.6307 -1.3117
  170DOPC    C320658   7.459   7.761   7.249  0.1950 -0.9002 -0.1272
  170DOPC    HX20659   7.512   7.682   7.305 -0.0557  0.7037  2.5395
  170DOPC    HY20660   7.492   7.856   7.298  2.8803 -0.2118 -2.9061
  170DOPC   O3120661   7.485   7.786   7.107  0.0820 -0.6612 -0.0358
  170DOPC   C3120662   7.537   7.686   7.044  0.0415 -0.5392 -0.1268
  170DOPC   O3220663   7.579   7.580   7.083  0.0251  0.0399 -0.4073
  170DOPC   C3220664   7.558   7.727   6.906 -0.1950 -0.2979 -0.0369
  170DOPC   H2X20665   7.502   7.819   6.881 -0.4679 -0.8069 -1.4081
  170DOPC   H2Y20666   7.664   7.755   6.887  0.5837 -1.2881  2.4183
  170DOPC   C2320667   7.089   7.384   7.007 -0.2524  0.2150  0.2527
  170DOPC   H3R20668   6.982   7.407   7.024 -0.2982  0.7717 -0.6919
  170DOPC   H3S20669   7.086   7.276   6.983 -0.8681  0.0791  0.9055
  170DOPC   C2420670   7.163   7.459   6.897  0.9681  0.0855 -0.3763
  170DOPC   H4R20671   7.271   7.430   6.897  1.0690  0.4546 -0.2907
  170DOPC   H4S20672   7.156   7.566   6.924  0.0755 -0.5555  2.2955
  170DOPC   C2520673   7.108   7.415   6.765 -0.1053  0.4513 -0.2357
  170DOPC   H5R20674   6.999   7.433   6.781 -0.0695  1.4301 -1.0764
  170DOPC   H5S20675   7.126   7.307   6.746  1.0676  0.7943 -1.1791
  170DOPC   C2620676   7.166   7.477   6.638  0.2123  0.7332 -0.0099
  170DOPC   H6R20677   7.273   7.447   6.628  0.1964 -0.1005  1.8008
  170DOPC   H6S20678   7.173   7.588   6.636  2.1070  0.6418 -0.5570
  170DOPC   C2720679   7.094   7.435   6.507 -0.0502 -0.9857 -0.7054
  170DOPC   H7R20680   6.996   7.488   6.504  0.6238  0.3095 -0.6765
  170DOPC   H7S20681   7.084   7.325   6.501 -0.4105 -0.9885 -0.1256
  170DOPC   C2820682   7.175   7.488   6.383  0.4977 -0.4866 -0.4373
  170DOPC   H8R20683   7.282   7.459   6.392 -0.0078 -2.0361  1.1173
  170DOPC   H8S20684   7.163   7.598   6.381 -1.5320 -0.5212  2.6846
  170DOPC   C2920685   7.105   7.433   6.256 -0.1003 -0.2374  0.5395
  170DOPC   H9R20686   7.010   7.479   6.225  1.6647  1.9119 -2.1254
  170DOPC  C21020687   7.166   7.361   6.162 -0.8560 -0.4762 -0.2436
  170DOPC  H10R20688   7.115   7.327   6.071  1.7581 -0.3297 -1.8812
  170DOPC  C21120689   7.314   7.314   6.168  0.3157 -0.6222  0.1346
  170DOPC  H11R20690   7.327   7.221   6.110  1.4968 -0.6207  0.3563
  170DOPC  H11S20691   7.343   7.275   6.268 -0.6608 -2.3876 -0.2416
  170DOPC  C21220692   7.419   7.409   6.099 -0.0570  0.3057 -0.2690
  170DOPC  H12R20693   7.516   7.356   6.107 -1.2869 -1.8764  1.3182
  170DOPC  H12S20694   7.411   7.500   6.162 -0.9140 -2.3159  3.7352
  170DOPC  C21320695   7.385   7.464   5.958 -0.1622 -0.1972  0.9004
  170DOPC  H13R20696   7.455   7.547   5.937  0.5336 -0.7784  0.9137
  170DOPC  H13S20697   7.282   7.507   5.963 -0.2967 -0.3784 -0.0406
  170DOPC  C21420698   7.401   7.362   5.843 -0.0177 -0.4222 -0.0654
  170DOPC  H14R20699   7.350   7.267   5.868 -0.5839 -0.3375 -0.8584
  170DOPC  H14S20700   7.510   7.344   5.840 -0.2132 -1.7186 -0.1357
  170DOPC  C21520701   7.361   7.419   5.708  0.3293 -0.1870  0.7813
  170DOPC  H15R20702   7.413   7.513   5.682  0.4622 -0.6050 -0.5613
  170DOPC  H15S20703   7.251   7.436   5.708  0.0907 -1.2467 -1.8152
  170DOPC  C21620704   7.384   7.309   5.597 -0.0193 -0.4281 -0.4808
  170DOPC  H16R20705   7.335   7.216   5.634  0.2388 -0.1503  0.6100
  170DOPC  H16S20706   7.494   7.297   5.582  0.2052  0.8078  0.0413
  170DOPC  C21720707   7.329   7.354   5.472  1.1161 -0.1683 -0.2278
  170DOPC  H17R20708   7.377   7.452   5.450  0.9410 -0.0885 -0.2608
  170DOPC  H17S20709   7.221   7.380   5.478  0.7912 -1.7405  3.2693
  170DOPC  C21820710   7.357   7.256   5.357  0.1700  0.0775 -0.7136
  170DOPC  H18R20711   7.308   7.160   5.382 -0.8177  0.4419 -1.1978
  170DOPC  H18S20712   7.463   7.225   5.340  1.0981  2.3593  0.4667
  170DOPC  H18T20713   7.311   7.293   5.262 -0.5938  0.4407 -0.2065
  170DOPC   C3320714   7.514   7.621   6.805 -0.3419  0.0414 -0.0180
  170DOPC   H3X20715   7.411   7.580   6.814 -0.3313  0.0797  0.2920
  170DOPC   H3Y20716   7.571   7.526   6.816  0.2022  0.5288  1.6608
  170DOPC   C3420717   7.532   7.656   6.661 -0.2181 -0.1448 -0.0382
  170DOPC   H4X20718   7.553   7.763   6.642 -0.7314 -0.0309  0.0195
  170DOPC   H4Y20719   7.437   7.630   6.611 -0.5842  1.6361 -0.3306
  170DOPC   C3520720   7.643   7.569   6.593 -0.1713 -0.6404 -0.2830
  170DOPC   H5X20721   7.624   7.461   6.610 -1.0488 -0.4659 -0.0798
  170DOPC   H5Y20722   7.747   7.585   6.628  0.1660 -1.4267 -0.8917
  170DOPC   C3620723   7.645   7.598   6.444 -0.7199  0.3758  0.0338
  170DOPC   H6X20724   7.734   7.541   6.411  0.6965  1.7765  1.2670
  170DOPC   H6Y20725   7.559   7.537   6.410 -0.0490 -1.1685  0.9975
  170DOPC   C3720726   7.635   7.738   6.398  0.7106  0.2794  0.7205
  170DOPC   H7X20727   7.542   7.790   6.429 -0.9834 -0.4896 -2.5917
  170DOPC   H7Y20728   7.717   7.786   6.455  0.1681 -0.6706  2.3506
  170DOPC   C3820729   7.640   7.745   6.243  0.1092  0.4453 -0.9259
  170DOPC   H8X20730   7.596   7.843   6.215  1.8790  1.5512 -0.0608
  170DOPC   H8Y20731   7.576   7.667   6.197 -1.2881  1.7423 -1.2667
  170DOPC   C3920732   7.782   7.757   6.189  0.1523  0.6041  0.0739
  170DOPC   H9X20733   7.851   7.823   6.243  1.1419 -0.6204  0.3345
  170DOPC  C31020734   7.834   7.714   6.077  0.0023  0.1316  0.1937
  170DOPC  H10X20735   7.937   7.745   6.052 -1.1304  2.2345 -2.2613
  170DOPC  C31120736   7.755   7.637   5.979  0.2032 -0.3764  0.5357
  170DOPC  H11X20737   7.650   7.672   5.975 -0.0176 -1.0278  0.3980
  170DOPC  H11Y20738   7.771   7.528   5.996  4.1050 -0.0208  0.1350
  170DOPC  C31220739   7.808   7.655   5.834  0.1282  0.1918 -0.1835
  170DOPC  H12X20740   7.909   7.612   5.817  0.2854  0.4896 -0.0061
  170DOPC  H12Y20741   7.813   7.763   5.808 -0.2998  0.6487  1.5270
  170DOPC  C31320742   7.721   7.595   5.722 -0.2007 -0.2714  0.9621
  170DOPC  H13X20743   7.707   7.489   5.753  1.2463 -0.8521 -0.2675
  170DOPC  H13Y20744   7.621   7.643   5.712  0.3491  1.0159  1.5043
  170DOPC  C31420745   7.789   7.580   5.590  0.3901 -0.3795 -0.2872
  170DOPC  H14X20746   7.767   7.670   5.528  0.8989  1.4077  1.9634
  170DOPC  H14Y20747   7.899   7.579   5.604  0.5419  1.7324 -0.9272
  170DOPC  C31520748   7.748   7.455   5.511 -0.1494 -0.1068 -0.0704
  170DOPC  H15X20749   7.638   7.458   5.530  0.0592  0.3658  1.1092
  170DOPC  H15Y20750   7.793   7.364   5.555 -0.6493 -0.4742 -0.3056
  170DOPC  C31620751   7.779   7.482   5.361 -0.3653 -0.2425 -0.7556
  170DOPC  H16X20752   7.747   7.586   5.339  0.7829 -0.0069 -1.3980
  170DOPC  H16Y20753   7.890   7.486   5.352 -0.3976  0.5631 -0.8216
  170DOPC  C31720754   7.715   7.385   5.258  0.1238  0.2837 -0.1031
  170DOPC  H17X20755   7.607   7.409   5.250  0.1216  0.6991  1.0345
  170DOPC  H17Y20756   7.754   7.398   5.154  2.5600 -0.7224  0.6141
  170DOPC  C31820757   7.738   7.243   5.278 -0.6378 -0.1777 -0.1105
  170DOPC  H18X20758   7.697   7.206   5.375  0.0853  0.5402  0.4905
  170DOPC  H18Y20759   7.702   7.189   5.188  0.5512 -1.3476  0.0846
  170DOPC  H18Z20760   7.848   7.227   5.282 -0.5169  0.4769 -0.7106
  171DOPC     N20761   4.100   3.364   2.011 -0.1046 -0.1683  0.7280
  171DOPC   C1220762   3.949   3.345   2.024 -0.3925  0.1212 -0.0092
  171DOPC  H12A20763   3.919   3.249   1.987 -0.9624  0.1005  0.5060
  171DOPC  H12B20764   3.904   3.413   1.953 -0.9620  0.2803  0.4918
  171DOPC   C1320765   4.140   3.355   1.867 -0.0631 -0.6514  0.1706
  171DOPC  H13A20766   4.127   3.257   1.823 -1.8022 -0.5268  0.3400
  171DOPC  H13B20767   4.076   3.420   1.809  1.9670  0.5544 -0.8324
  171DOPC  H13C20768   4.243   3.380   1.846 -0.8681  2.0411 -1.1162
  171DOPC   C1420769   4.175   3.260   2.089 -0.7570  0.4537 -0.0844
  171DOPC  H14A20770   4.281   3.275   2.079 -0.6150 -1.3082 -1.8719
  171DOPC  H14B20771   4.148   3.258   2.194 -0.1926  1.5039  0.0876
  171DOPC  H14C20772   4.155   3.159   2.056 -0.3545 -0.1739  1.5040
  171DOPC   C1520773   4.141   3.505   2.057  0.4722  0.8239  0.2890
  171DOPC  H15A20774   4.095   3.583   1.998 -2.1573  0.2061  1.3647
  171DOPC  H15B20775   4.247   3.523   2.053  0.5834  0.1350 -0.0549
  171DOPC  H15C20776   4.120   3.526   2.161  0.9519 -1.1522  0.8344
  171DOPC   C1120777   3.880   3.374   2.157  0.1620  0.5671 -0.6570
  171DOPC  H11A20778   3.894   3.477   2.198  0.5988 -0.1759  1.1389
  171DOPC  H11B20779   3.771   3.352   2.155  0.2929 -1.1281  2.9668
  171DOPC     P20780   3.870   3.163   2.324 -0.5132  0.0003  0.1565
  171DOPC   O1320781   3.953   3.041   2.291  0.2190 -0.3613 -0.3687
  171DOPC   O1420782   3.734   3.152   2.276  1.0390  0.2263  0.0033
  171DOPC   O1220783   3.938   3.285   2.255 -0.1518 -0.1265 -0.2731
  171DOPC   O1120784   3.876   3.199   2.478  0.3537  0.5572  0.6174
  171DOPC    C120785   3.846   3.093   2.576 -0.1026  0.9057  0.1322
  171DOPC    HA20786   3.800   2.999   2.540 -1.4326  1.1907  0.9963
  171DOPC    HB20787   3.761   3.130   2.637 -1.9436  0.7149 -2.1812
  171DOPC    C220788   3.968   3.064   2.675  0.6804  0.5855  0.2266
  171DOPC    HS20789   4.055   3.029   2.616  0.6223 -0.7155  0.8757
  171DOPC   O2120790   3.925   2.958   2.757  0.2818  0.0755 -0.3852
  171DOPC   C2120791   4.017   2.874   2.796  0.0302  0.2473 -0.0216
  171DOPC   O2220792   4.138   2.887   2.773 -0.0876  0.3450  0.1121
  171DOPC   C2220793   3.964   2.748   2.871  0.4667  0.9451  0.3798
  171DOPC   H2R20794   3.888   2.704   2.803 -0.7455  1.4341  1.3629
  171DOPC   H2S20795   3.911   2.783   2.962 -0.9295  2.6984 -1.0505
  171DOPC    C320796   4.018   3.179   2.766 -0.2929  0.8122  0.1954
  171DOPC    HX20797   4.082   3.241   2.699  0.8432 -0.0679  0.4398
  171DOPC    HY20798   4.089   3.135   2.839  0.7451  0.1620 -1.1602
  171DOPC   O3120799   3.910   3.244   2.830  0.2794  0.4761 -1.1507
  171DOPC   C3120800   3.913   3.378   2.838 -0.4245  0.3890 -0.3620
  171DOPC   O3220801   4.009   3.444   2.804 -0.4373  0.3834 -0.1129
  171DOPC   C3220802   3.779   3.432   2.880 -0.1289 -0.3102 -0.1062
  171DOPC   H2X20803   3.737   3.475   2.786  0.8128 -0.4485 -0.5971
  171DOPC   H2Y20804   3.713   3.352   2.920  0.3365  0.8818  3.5116
  171DOPC   C2320805   4.065   2.643   2.923  0.7079  0.6442 -0.4319
  171DOPC   H3R20806   4.120   2.605   2.834 -1.7991 -1.6658 -1.1491
  171DOPC   H3S20807   4.001   2.562   2.963 -0.1668  0.2556 -2.4972
  171DOPC   C2420808   4.177   2.700   3.014  0.0379 -0.1025  0.3148
  171DOPC   H4R20809   4.157   2.807   3.036  1.7428  0.4579 -0.6671
  171DOPC   H4S20810   4.269   2.696   2.952 -0.8503  1.2687 -1.1741
  171DOPC   C2520811   4.182   2.629   3.148 -0.1340  0.6379 -0.7062
  171DOPC   H5R20812   4.266   2.665   3.211 -0.5756 -0.1833  0.3889
  171DOPC   H5S20813   4.193   2.519   3.131  0.7509  0.7050 -0.6454
  171DOPC   C2620814   4.051   2.648   3.226  0.1128  0.4738 -0.4606
  171DOPC   H6R20815   3.959   2.645   3.165 -0.6572  2.7187  0.4845
  171DOPC   H6S20816   4.050   2.753   3.262 -0.5701  0.5787 -0.7703
  171DOPC   C2720817   4.035   2.561   3.343 -0.4189  0.1610 -0.9103
  171DOPC   H7R20818   4.117   2.570   3.418 -1.3631  1.8636 -0.0453
  171DOPC   H7S20819   4.062   2.463   3.297  3.0954  1.5401 -2.0965
  171DOPC   C2820820   3.891   2.554   3.402 -0.7259  0.6341 -0.2779
  171DOPC   H8R20821   3.881   2.465   3.468 -2.1788  1.3064  0.4372
  171DOPC   H8S20822   3.817   2.542   3.320 -0.7193 -1.4172 -0.0360
  171DOPC   C2920823   3.845   2.666   3.478  0.1255 -0.1197 -0.0822
  171DOPC   H9R20824   3.778   2.729   3.418 -1.1516 -2.2805 -1.0188
  171DOPC  C21020825   3.850   2.681   3.612  0.8135  0.7833  0.6847
  171DOPC  H10R20826   3.808   2.775   3.651  0.6914  1.1007 -0.2022
  171DOPC  C21120827   3.902   2.591   3.715 -0.1840 -0.1721  0.0464
  171DOPC  H11R20828   4.002   2.636   3.733 -0.3210  0.1608 -0.0107
  171DOPC  H11S20829   3.908   2.486   3.681  1.3970 -0.5780  1.4359
  171DOPC  C21220830   3.815   2.581   3.838  0.5772 -0.3543 -0.1119
  171DOPC  H12R20831   3.838   2.488   3.894 -0.3510  0.0368  0.9811
  171DOPC  H12S20832   3.709   2.581   3.803  0.3898  2.7391  0.1387
  171DOPC  C21320833   3.816   2.699   3.932  0.3233  0.2270 -0.6702
  171DOPC  H13R20834   3.765   2.778   3.873 -2.8073 -2.6074 -2.0786
  171DOPC  H13S20835   3.918   2.736   3.958  0.7341 -1.4578  0.2336
  171DOPC  C21420836   3.726   2.671   4.057 -0.6743 -0.3170  0.0749
  171DOPC  H14R20837   3.778   2.583   4.101  0.0872 -1.0786 -2.1904
  171DOPC  H14S20838   3.627   2.639   4.020  0.2629 -2.8869 -0.4471
  171DOPC  C21520839   3.699   2.780   4.154  0.3740 -0.0503  0.7957
  171DOPC  H15R20840   3.606   2.840   4.140  0.1243 -0.8618 -1.4199
  171DOPC  H15S20841   3.778   2.858   4.145 -0.9146  1.1172 -1.0913
  171DOPC  C21620842   3.683   2.725   4.292 -0.1702  0.6589 -0.8836
  171DOPC  H16R20843   3.783   2.681   4.316 -0.5236 -0.1494 -0.8480
  171DOPC  H16S20844   3.610   2.641   4.291  0.4857 -0.0004  1.3411
  171DOPC  C21720845   3.652   2.828   4.403 -0.0545  0.8825  0.0733
  171DOPC  H17R20846   3.569   2.891   4.365 -1.0742  1.3384  2.8510
  171DOPC  H17S20847   3.739   2.895   4.412  0.4854  0.3347 -0.8875
  171DOPC  C21820848   3.614   2.758   4.532  0.2729 -1.0204  0.5321
  171DOPC  H18R20849   3.695   2.690   4.565 -1.6626 -3.1624  1.0882
  171DOPC  H18S20850   3.518   2.703   4.521 -1.4026  1.9073 -0.4661
  171DOPC  H18T20851   3.578   2.833   4.605 -4.8986 -1.0040 -1.6083
  171DOPC   C3320852   3.778   3.548   2.993  0.3936  0.1848  0.1565
  171DOPC   H3X20853   3.678   3.596   2.986  0.4524  0.1553 -0.9892
  171DOPC   H3Y20854   3.849   3.630   2.971  0.1027  0.1790 -0.8286
  171DOPC   C3420855   3.796   3.487   3.131  0.0082 -0.4640 -0.4138
  171DOPC   H4X20856   3.894   3.434   3.136  0.2831  0.0866  0.0918
  171DOPC   H4Y20857   3.719   3.409   3.150 -0.1008 -0.7903 -2.0685
  171DOPC   C3520858   3.788   3.594   3.245  0.0225  1.1770  0.2684
  171DOPC   H5X20859   3.696   3.655   3.229  0.8151  2.0067 -1.2545
  171DOPC   H5Y20860   3.874   3.664   3.249  1.9443 -1.1066  1.6969
  171DOPC   C3620861   3.771   3.531   3.387  0.4623 -0.1709 -0.6324
  171DOPC   H6X20862   3.856   3.463   3.407  0.3233 -0.3866 -0.7695
  171DOPC   H6Y20863   3.772   3.612   3.463 -1.2479 -2.2370  1.7391
  171DOPC   C3720864   3.643   3.451   3.405 -0.3099 -0.2979 -0.1493
  171DOPC   H7X20865   3.561   3.514   3.365 -0.7002 -1.1456 -0.7040
  171DOPC   H7Y20866   3.641   3.357   3.346  0.0498  0.1645 -0.9228
  171DOPC   C3820867   3.615   3.414   3.554  0.2911  0.1007  0.0955
  171DOPC   H8X20868   3.509   3.379   3.560  0.6035 -0.6378  1.8241
  171DOPC   H8Y20869   3.625   3.507   3.614 -0.6357 -0.2032  0.7438
  171DOPC   C3920870   3.693   3.305   3.613 -0.3171  0.5983 -0.3236
  171DOPC   H9X20871   3.766   3.343   3.686 -0.3246 -0.9299  0.5091
  171DOPC  C31020872   3.683   3.169   3.611 -0.4446 -0.6633 -0.8892
  171DOPC  H10X20873   3.753   3.098   3.658  0.3444  0.7621  0.1691
  171DOPC  C31120874   3.573   3.097   3.540  0.1830  0.2523 -0.4752
  171DOPC  H11X20875   3.613   2.998   3.506  1.9757  1.2161 -1.3355
  171DOPC  H11Y20876   3.542   3.152   3.449  1.5063  2.0887  0.1200
  171DOPC  C31220877   3.446   3.080   3.626  0.0808 -0.3623  0.2190
  171DOPC  H12X20878   3.374   3.013   3.575 -1.4115 -0.2731  2.0931
  171DOPC  H12Y20879   3.395   3.179   3.635 -0.2440 -0.5658  0.6056
  171DOPC  C31320880   3.464   3.029   3.764  0.2748 -0.2257  0.1609
  171DOPC  H13X20881   3.519   2.932   3.762 -0.2643 -0.5937  1.7305
  171DOPC  H13Y20882   3.519   3.104   3.824 -2.0846  1.4639  0.3541
  171DOPC  C31420883   3.333   3.003   3.843  0.1094 -0.0673 -0.7614
  171DOPC  H14X20884   3.258   3.084   3.834  1.6524  1.4087 -0.6600
  171DOPC  H14Y20885   3.286   2.905   3.816 -1.1396  0.6302 -1.2215
  171DOPC  C31520886   3.374   2.986   3.991  0.0988 -0.7367 -0.6082
  171DOPC  H15X20887   3.444   3.058   4.040  0.3362 -2.1273  1.1667
  171DOPC  H15Y20888   3.431   2.891   3.985  0.2888 -0.5530 -2.7119
  171DOPC  C31620889   3.255   2.970   4.089  0.2199 -0.2675 -0.0332
  171DOPC  H16X20890   3.178   2.899   4.052  1.0710 -1.0785 -0.2678
  171DOPC  H16Y20891   3.293   2.930   4.185  1.7216  0.3752 -0.3319
  171DOPC  C31720892   3.193   3.106   4.114  1.4862  0.2871 -0.2918
  171DOPC  H17X20893   3.252   3.173   4.180 -0.9733  2.6873 -0.3374
  171DOPC  H17Y20894   3.179   3.158   4.016  2.0265 -2.7749 -2.1224
  171DOPC  C31820895   3.057   3.090   4.175  0.3533 -0.5768 -0.1612
  171DOPC  H18X20896   3.023   3.191   4.206  2.0391 -0.0438  0.0981
  171DOPC  H18Y20897   2.982   3.054   4.102 -0.7185 -0.0596  0.6601
  171DOPC  H18Z20898   3.063   3.033   4.270  0.6622  0.6315  0.5772
  172DOPC     N20899   3.008   5.477   2.391  0.1626 -0.1101 -0.3636
  172DOPC   C1220900   2.929   5.394   2.493  0.0766  0.0376  0.0690
  172DOPC  H12A20901   2.877   5.313   2.444  0.0033  0.7547 -1.0956
  172DOPC  H12B20902   2.848   5.459   2.522 -1.4532 -1.0057 -1.6080
  172DOPC   C1320903   2.916   5.526   2.288  0.1345 -0.1262  0.1837
  172DOPC  H13A20904   2.856   5.449   2.240 -0.8239  0.2290  0.7819
  172DOPC  H13B20905   2.860   5.611   2.323  2.4302  1.5246  0.0528
  172DOPC  H13C20906   2.971   5.580   2.212  2.5389 -0.7801  1.3890
  172DOPC   C1420907   3.104   5.386   2.322  0.2075 -0.0355  0.6032
  172DOPC  H14A20908   3.151   5.448   2.247 -1.6838  2.2086  1.1450
  172DOPC  H14B20909   3.174   5.342   2.391  0.4397 -0.5859  0.0205
  172DOPC  H14C20910   3.058   5.302   2.272  0.7487  0.5885 -1.0007
  172DOPC   C1520911   3.078   5.592   2.453 -0.1343 -0.0772 -0.7482
  172DOPC  H15A20912   3.118   5.668   2.386  0.5255  0.1894 -0.0720
  172DOPC  H15B20913   3.168   5.554   2.499 -1.1563 -4.1227 -1.7040
  172DOPC  H15C20914   3.013   5.636   2.527 -1.6496 -1.9713 -0.8730
  172DOPC   C1120915   3.001   5.326   2.610  0.8604 -0.3585  0.1707
  172DOPC  H11A20916   3.074   5.399   2.653 -1.9332  1.1250  2.7889
  172DOPC  H11B20917   2.931   5.299   2.692 -0.5284  1.9296 -0.1847
  172DOPC     P20918   3.016   5.072   2.588  0.1664  0.2379  0.1902
  172DOPC   O1320919   3.111   4.978   2.533 -0.1881  0.2321  0.2474
  172DOPC   O1420920   2.875   5.059   2.546  0.0517 -0.6963 -0.4720
  172DOPC   O1220921   3.066   5.216   2.552 -0.5418  0.3604  0.5757
  172DOPC   O1120922   3.029   5.079   2.744  0.2715  0.0446  0.0029
  172DOPC    C120923   3.151   5.077   2.816 -0.7214 -0.0571 -0.5637
  172DOPC    HA20924   3.131   5.122   2.915 -1.2334 -0.3509 -0.5314
  172DOPC    HB20925   3.234   5.130   2.764 -1.0510  1.1196  0.0685
  172DOPC    C220926   3.215   4.937   2.833 -0.2597  0.2335  0.4186
  172DOPC    HS20927   3.217   4.884   2.735  1.5161 -1.3336  1.2416
  172DOPC   O2120928   3.147   4.857   2.922 -0.5084  0.0229  0.4563
  172DOPC   C2120929   3.135   4.727   2.901 -0.4314  0.1150 -0.2966
  172DOPC   O2220930   3.194   4.666   2.806  0.3311 -0.3186 -0.3246
  172DOPC   C2220931   3.041   4.669   3.001  0.4276 -0.0525  0.9270
  172DOPC   H2R20932   3.036   4.559   2.986 -0.4966 -0.1981  2.1431
  172DOPC   H2S20933   2.941   4.708   2.974  1.2827  0.1217 -2.4361
  172DOPC    C320934   3.369   4.953   2.872 -0.2908 -0.2783  0.7707
  172DOPC    HX20935   3.409   5.035   2.808 -1.9644  0.4606  0.6310
  172DOPC    HY20936   3.421   4.859   2.844 -2.9027 -1.8810  0.9346
  172DOPC   O3120937   3.386   4.994   3.008 -0.3331  0.0959  0.0491
  172DOPC   C3120938   3.410   4.901   3.096  0.1260  0.1607 -0.3163
  172DOPC   O3220939   3.410   4.778   3.076 -0.8061 -0.0148  0.4717
  172DOPC   C3220940   3.439   4.973   3.223 -0.9728  0.5367  0.2089
  172DOPC   H2X20941   3.543   5.012   3.217 -1.2155  1.1126 -0.4324
  172DOPC   H2Y20942   3.365   5.054   3.241 -0.7308  0.6331  0.7972
  172DOPC   C2320943   3.078   4.717   3.149  0.0789 -0.5489  0.0109
  172DOPC   H3R20944   3.072   4.828   3.152  0.7607 -0.5167  1.2470
  172DOPC   H3S20945   3.186   4.692   3.157  0.8595  1.7907 -1.9815
  172DOPC   C2420946   2.983   4.653   3.257 -0.5196  0.1612 -0.2996
  172DOPC   H4R20947   3.010   4.546   3.263 -0.6672  0.1399  0.0334
  172DOPC   H4S20948   2.877   4.661   3.226 -0.3117 -0.2981 -1.1313
  172DOPC   C2520949   2.995   4.711   3.396 -0.0409  0.6631 -0.2524
  172DOPC   H5R20950   2.959   4.816   3.395  0.6636  0.9176  0.5174
  172DOPC   H5S20951   3.102   4.707   3.424 -0.1481 -0.5363  0.0734
  172DOPC   C2620952   2.914   4.619   3.498  0.1140  0.2380  0.5267
  172DOPC   H6R20953   2.959   4.518   3.499  2.2994  1.1536  0.3985
  172DOPC   H6S20954   2.811   4.616   3.456  0.2657 -0.6223  0.1987
  172DOPC   C2720955   2.924   4.668   3.640 -0.0913 -0.3211  0.3333
  172DOPC   H7R20956   2.850   4.615   3.703 -0.5761 -2.2022 -1.6942
  172DOPC   H7S20957   2.899   4.776   3.640  0.5197 -0.1396  2.3568
  172DOPC   C2820958   3.059   4.651   3.697 -0.4341  0.2352  0.6212
  172DOPC   H8R20959   3.126   4.716   3.636 -2.1918  0.4943 -1.1314
  172DOPC   H8S20960   3.105   4.550   3.687 -0.7917  0.2750 -2.1969
  172DOPC   C2920961   3.061   4.705   3.833 -0.4545 -0.0968  0.4840
  172DOPC   H9R20962   3.010   4.802   3.846  1.8313  1.1173  0.8441
  172DOPC  C21020963   3.117   4.661   3.946 -0.4877  0.3884 -0.0546
  172DOPC  H10R20964   3.098   4.714   4.041  0.7722 -0.2447  0.5787
  172DOPC  C21120965   3.202   4.536   3.952  0.3391  0.8068  0.1463
  172DOPC  H11R20966   3.307   4.561   3.924 -0.2151  2.8615 -0.3099
  172DOPC  H11S20967   3.161   4.461   3.881 -1.5961  1.2738  0.6933
  172DOPC  C21220968   3.204   4.464   4.093 -0.4040 -0.1464  0.8076
  172DOPC  H12R20969   3.243   4.362   4.073 -0.5106 -0.0059 -0.1977
  172DOPC  H12S20970   3.106   4.444   4.141 -1.8166  0.6541 -1.5264
  172DOPC  C21320971   3.291   4.546   4.195  0.7510  0.6943  0.1019
  172DOPC  H13R20972   3.234   4.639   4.214 -0.0594  0.2041  0.0870
  172DOPC  H13S20973   3.383   4.570   4.137 -0.6266  4.1544 -0.9029
  172DOPC  C21420974   3.323   4.460   4.325  0.3550  0.0003 -1.1992
  172DOPC  H14R20975   3.393   4.381   4.292  0.1608 -0.7229  0.0573
  172DOPC  H14S20976   3.230   4.415   4.367  0.6044  2.8182  3.0516
  172DOPC  C21520977   3.384   4.536   4.448  0.3708  0.1407  0.6532
  172DOPC  H15R20978   3.381   4.466   4.534 -1.4485 -1.0227 -0.2816
  172DOPC  H15S20979   3.306   4.611   4.474  0.8839  0.5437  1.0665
  172DOPC  C21620980   3.523   4.596   4.415  0.0994 -0.1260  0.2936
  172DOPC  H16R20981   3.514   4.669   4.331 -1.0874 -0.9576 -0.3194
  172DOPC  H16S20982   3.595   4.518   4.383  0.4387  0.2464  0.1310
  172DOPC  C21720983   3.584   4.668   4.530 -0.2717 -1.1802  0.3776
  172DOPC  H17R20984   3.520   4.750   4.568  0.2174 -0.7312  0.2501
  172DOPC  H17S20985   3.677   4.710   4.487 -0.7147  0.1146  0.6381
  172DOPC  C21820986   3.609   4.576   4.652 -0.4779  0.3972 -0.2998
  172DOPC  H18R20987   3.515   4.559   4.708 -0.0909  0.0750  0.2544
  172DOPC  H18S20988   3.679   4.625   4.722  0.5104  0.0751 -1.0478
  172DOPC  H18T20989   3.657   4.481   4.622  1.9522  1.7570 -0.9578
  172DOPC   C3320990   3.429   4.874   3.344  0.7032  0.1926 -0.3192
  172DOPC   H3X20991   3.490   4.783   3.327  0.6026  0.3720 -1.7990
  172DOPC   H3Y20992   3.323   4.842   3.345  1.4907 -2.7126 -0.6489
  172DOPC   C3420993   3.465   4.946   3.475  0.3358  0.2104 -0.2282
  172DOPC   H4X20994   3.423   5.049   3.474 -0.7418 -0.1446 -3.2969
  172DOPC   H4Y20995   3.575   4.952   3.463  0.2613  2.6466 -0.2847
  172DOPC   C3520996   3.423   4.872   3.599  0.1866 -0.8014  0.2838
  172DOPC   H5X20997   3.469   4.771   3.601 -0.4152 -1.2338 -2.6315
  172DOPC   H5Y20998   3.312   4.864   3.594  0.0008 -1.2164  3.2768
  172DOPC   C3620999   3.470   4.939   3.729 -0.5121  0.0487  0.4809
  172DOPC   H6X21000   3.579   4.953   3.710 -0.5491 -1.8748 -1.4890
  172DOPC   H6Y21001   3.406   5.028   3.746 -0.7572 -0.3208  1.4945
  172DOPC   C3721002   3.450   4.870   3.862 -0.4273  0.4086  0.0273
  172DOPC   H7X21003   3.345   4.833   3.869  0.2949 -1.6932  0.4362
  172DOPC   H7Y21004   3.521   4.784   3.865 -0.1665  0.5403 -1.6387
  172DOPC   C3821005   3.468   4.960   3.986 -0.0933  0.5150 -0.2361
  172DOPC   H8X21006   3.388   5.037   3.988 -0.1704  0.4176  1.0859
  172DOPC   H8Y21007   3.565   5.012   3.976  0.9152 -1.5462 -2.4180
  172DOPC   C3921008   3.468   4.883   4.115  0.3168  1.3593 -0.2529
  172DOPC   H9X21009   3.535   4.796   4.122  0.9140  1.9337  1.5475
  172DOPC  C31021010   3.407   4.918   4.228  0.0281 -0.0221 -0.4174
  172DOPC  H10X21011   3.388   4.854   4.316 -3.3398  2.3106  0.7931
  172DOPC  C31121012   3.326   5.038   4.258 -0.4459 -0.1822 -0.1887
  172DOPC  H11X21013   3.305   5.094   4.165 -0.7174  0.0785  0.0273
  172DOPC  H11Y21014   3.378   5.115   4.319 -1.3627 -0.5290  1.0790
  172DOPC  C31221015   3.190   5.001   4.314  0.0985 -0.6744  0.3279
  172DOPC  H12X21016   3.146   4.920   4.252 -0.4130  0.7866 -1.3177
  172DOPC  H12Y21017   3.116   5.083   4.304 -0.7032 -1.2349  1.4836
  172DOPC  C31321018   3.185   4.972   4.467 -0.1951 -0.0264 -0.3603
  172DOPC  H13X21019   3.254   4.887   4.479 -1.3604 -0.7471  1.7552
  172DOPC  H13Y21020   3.214   5.063   4.524  3.2881 -1.2911  0.0574
  172DOPC  C31421021   3.049   4.926   4.518  0.0531 -0.0986  0.9621
  172DOPC  H14X21022   2.973   5.006   4.505 -0.9702 -1.2763 -0.8170
  172DOPC  H14Y21023   3.019   4.849   4.443  3.1573 -1.4931  0.9679
  172DOPC  C31521024   3.057   4.870   4.657  0.3121 -0.5972  0.3151
  172DOPC  H15X21025   3.088   4.947   4.730  1.4223  1.3933 -2.0819
  172DOPC  H15Y21026   3.136   4.792   4.651  2.2507  1.3226 -0.4984
  172DOPC  C31621027   2.921   4.811   4.706 -0.1553  0.1890 -0.1588
  172DOPC  H16X21028   2.855   4.901   4.716 -0.6060  0.0033 -1.3113
  172DOPC  H16Y21029   2.896   4.734   4.631  1.4689 -1.5511  1.0088
  172DOPC  C31721030   2.934   4.736   4.842 -0.5967 -0.1241 -0.2124
  172DOPC  H17X21031   2.995   4.646   4.817  2.6675  1.1229  2.4771
  172DOPC  H17Y21032   3.003   4.797   4.905 -0.2993  1.5669 -2.0662
  172DOPC  C31821033   2.810   4.689   4.914  0.4555  0.1079  0.2807
  172DOPC  H18X21034   2.749   4.629   4.844  1.1048  0.1402 -0.3200
  172DOPC  H18Y21035   2.844   4.630   5.002 -1.4707 -0.7933  0.4802
  172DOPC  H18Z21036   2.752   4.774   4.954  2.3315  1.1608  0.8953
  173DOPC     N21037   2.557   3.348   2.651  0.3122 -0.2846  0.6926
  173DOPC   C1221038   2.435   3.322   2.739 -0.0916 -0.1569  0.4709
  173DOPC  H12A21039   2.353   3.385   2.709  1.7457  1.9846 -0.3659
  173DOPC  H12B21040   2.466   3.352   2.838 -1.6351  1.3314  0.5485
  173DOPC   C1321041   2.508   3.362   2.507  0.0795  0.3234 -0.0272
  173DOPC  H13A21042   2.460   3.270   2.475  1.0643  0.5611 -2.3361
  173DOPC  H13B21043   2.430   3.436   2.499  0.8112  1.0176 -0.8306
  173DOPC  H13C21044   2.591   3.374   2.440  0.4467 -1.4263  0.0620
  173DOPC   C1421045   2.667   3.241   2.668  0.2932  0.1924 -1.0994
  173DOPC  H14A21046   2.634   3.140   2.653  0.9901 -0.1568 -0.3631
  173DOPC  H14B21047   2.747   3.262   2.598  0.1875 -3.0484 -2.3381
  173DOPC  H14C21048   2.708   3.247   2.767 -1.3757 -0.9098 -0.3047
  173DOPC   C1521049   2.625   3.477   2.685 -0.4981 -0.7037 -0.2904
  173DOPC  H15A21050   2.566   3.565   2.666 -0.4165 -0.5312  0.2393
  173DOPC  H15B21051   2.717   3.489   2.628 -0.1431 -1.4686  0.1118
  173DOPC  H15C21052   2.646   3.484   2.791 -1.3295  0.2810 -0.1803
  173DOPC   C1121053   2.370   3.181   2.729 -0.0432  0.1117 -0.2458
  173DOPC  H11A21054   2.454   3.113   2.757 -1.3157 -0.3713  2.7807
  173DOPC  H11B21055   2.302   3.185   2.817  2.4212 -1.1636  1.8545
  173DOPC     P21056   2.179   3.183   2.539  0.1652  0.3245 -0.2098
  173DOPC   O1321057   2.142   3.096   2.422  0.3075  0.0576 -0.2144
  173DOPC   O1421058   2.193   3.329   2.515 -0.3533  0.0726  0.6088
  173DOPC   O1221059   2.315   3.149   2.596 -0.9037 -0.3231  0.1659
  173DOPC   O1121060   2.091   3.143   2.666  0.3102  0.1958 -0.1298
  173DOPC    C121061   2.072   3.003   2.694  0.3743  0.5414 -0.2927
  173DOPC    HA21062   2.117   2.985   2.794  3.4650  1.3710 -1.4232
  173DOPC    HB21063   2.113   2.934   2.618 -3.1146  0.9665 -2.8132
  173DOPC    C221064   1.917   2.969   2.703 -0.6574 -1.1314 -0.6767
  173DOPC    HS21065   1.867   2.975   2.604 -1.1553  3.1004 -0.3510
  173DOPC   O2121066   1.863   3.078   2.787 -0.1143  0.1542 -0.0563
  173DOPC   C2121067   1.740   3.104   2.781 -0.2954  0.1698 -0.1848
  173DOPC   O2221068   1.657   3.056   2.708  0.2425 -0.0156 -0.1263
  173DOPC   C2221069   1.725   3.227   2.874  0.6746 -0.5675  0.3849
  173DOPC   H2R21070   1.628   3.275   2.848  0.9507  0.5036  1.2602
  173DOPC   H2S21071   1.809   3.298   2.857  0.0807  0.2918  0.9360
  173DOPC    C321072   1.883   2.831   2.778 -0.5859 -0.6096  0.7833
  173DOPC    HX21073   1.910   2.748   2.709  0.1319 -0.0547  0.3865
  173DOPC    HY21074   1.773   2.829   2.794 -0.9826  0.9692 -1.4059
  173DOPC   O3121075   1.962   2.835   2.900 -0.2778  0.4059 -0.4464
  173DOPC   C3121076   1.937   2.743   2.992  0.8642 -0.0113  0.3993
  173DOPC   O3221077   1.864   2.644   2.977 -0.0905 -0.3039 -0.7277
  173DOPC   C3221078   1.999   2.797   3.119 -0.3883  0.8011  0.5948
  173DOPC   H2X21079   2.109   2.783   3.107 -0.6071 -2.2589  1.3526
  173DOPC   H2Y21080   1.989   2.907   3.125  0.6425  0.9546 -0.2035
  173DOPC   C2321081   1.730   3.178   3.018  0.0537 -0.2923  0.2959
  173DOPC   H3R21082   1.687   3.260   3.080 -0.6422 -0.3088 -0.1565
  173DOPC   H3S21083   1.837   3.171   3.048 -0.0663  1.2299  1.1949
  173DOPC   C2421084   1.649   3.054   3.047  0.4361  0.4895 -0.0648
  173DOPC   H4R21085   1.686   2.972   2.982  0.9820  1.2120 -0.6896
  173DOPC   H4S21086   1.542   3.075   3.024  0.2570  0.0288  0.3221
  173DOPC   C2521087   1.664   3.020   3.202  1.0645  0.2700  0.4438
  173DOPC   H5R21088   1.619   3.102   3.261 -1.8982 -0.4839 -0.5985
  173DOPC   H5S21089   1.772   3.004   3.226  1.1183 -1.7879 -0.8730
  173DOPC   C2621090   1.583   2.895   3.244  0.0820 -0.2206 -0.7742
  173DOPC   H6R21091   1.620   2.846   3.337  1.9049 -0.9952 -1.8566
  173DOPC   H6S21092   1.591   2.809   3.174  0.2631 -1.9116  1.2172
  173DOPC   C2721093   1.428   2.895   3.267 -0.5169 -0.2499  0.2709
  173DOPC   H7R21094   1.390   2.791   3.273 -0.0533 -0.3579  1.8502
  173DOPC   H7S21095   1.385   2.944   3.177 -0.0989  1.1856  0.8205
  173DOPC   C2821096   1.386   2.978   3.394 -0.1228  0.9198 -0.0320
  173DOPC   H8R21097   1.415   3.084   3.378 -0.6096  0.9481 -0.7516
  173DOPC   H8S21098   1.442   2.934   3.480  0.1124  0.5302 -0.3798
  173DOPC   C2921099   1.236   2.957   3.420  0.2383 -0.1722  0.4575
  173DOPC   H9R21100   1.188   2.896   3.341  4.6778 -0.6865 -2.1637
  173DOPC  C21021101   1.181   2.970   3.540 -0.4820  0.7319 -0.0616
  173DOPC  H10R21102   1.073   2.960   3.559 -0.4386 -0.5345 -0.3679
  173DOPC  C21121103   1.252   3.008   3.671  0.2898  0.0428  0.3515
  173DOPC  H11R21104   1.236   3.115   3.699 -2.5439 -0.9206  3.1414
  173DOPC  H11S21105   1.362   3.009   3.657  0.4035 -0.4335  1.1341
  173DOPC  C21221106   1.212   2.912   3.789 -0.1203  0.6625  0.2124
  173DOPC  H12R21107   1.226   2.804   3.767 -1.1681  0.7373 -0.9530
  173DOPC  H12S21108   1.107   2.914   3.826 -0.0260  0.9523  0.4701
  173DOPC  C21321109   1.289   2.956   3.914 -0.4693 -0.2636  0.4577
  173DOPC  H13R21110   1.257   3.058   3.945 -1.4906 -0.3079 -0.3817
  173DOPC  H13S21111   1.396   2.964   3.886 -0.5551  1.9950  0.5662
  173DOPC  C21421112   1.269   2.862   4.033  0.1693 -0.4414  0.7554
  173DOPC  H14R21113   1.291   2.758   4.001 -0.0796 -0.5607  0.9723
  173DOPC  H14S21114   1.160   2.878   4.050 -0.0449  1.5397 -1.7694
  173DOPC  C21521115   1.353   2.897   4.149  0.0674  0.2981 -0.1210
  173DOPC  H15R21116   1.329   2.994   4.199 -0.8786  1.0656 -1.9563
  173DOPC  H15S21117   1.457   2.906   4.111 -0.0336 -1.8403 -1.0212
  173DOPC  C21621118   1.345   2.786   4.251 -0.2569  0.0717 -0.5214
  173DOPC  H16R21119   1.364   2.681   4.221 -0.7460 -0.1285 -0.1428
  173DOPC  H16S21120   1.241   2.789   4.290 -0.3318  1.2841 -0.7662
  173DOPC  C21721121   1.449   2.805   4.360 -1.0391  0.0010 -0.0419
  173DOPC  H17R21122   1.452   2.911   4.394  1.6872  0.0084 -0.0973
  173DOPC  H17S21123   1.553   2.780   4.331 -0.9457  1.4189 -1.0193
  173DOPC  C21821124   1.413   2.714   4.482 -0.1637 -0.1048  0.6843
  173DOPC  H18R21125   1.369   2.616   4.454 -1.4378  0.4197  0.7881
  173DOPC  H18S21126   1.336   2.765   4.544  1.4721  1.9435  1.1494
  173DOPC  H18T21127   1.506   2.717   4.543  1.0631  1.2915 -1.1590
  173DOPC   C3321128   1.941   2.728   3.242  0.3699  0.3696 -0.1234
  173DOPC   H3X21129   1.971   2.621   3.254 -1.3240  0.0242  1.5445
  173DOPC   H3Y21130   1.831   2.739   3.241  0.2636 -0.5600  0.2957
  173DOPC   C3421131   1.991   2.802   3.369  0.2412  0.5177 -0.0253
  173DOPC   H4X21132   1.957   2.907   3.362  0.0134  0.4500  0.0632
  173DOPC   H4Y21133   2.102   2.800   3.371  0.2789  0.7155 -1.1724
  173DOPC   C3521134   1.933   2.739   3.501 -0.8747  0.0375  0.2505
  173DOPC   H5X21135   1.979   2.640   3.520  2.3617  1.6629  1.6837
  173DOPC   H5Y21136   1.822   2.728   3.496 -0.7931 -0.6714 -0.0217
  173DOPC   C3621137   1.968   2.821   3.629  0.0732  0.2472  0.0676
  173DOPC   H6X21138   2.072   2.860   3.625 -0.1662  0.8625 -0.5066
  173DOPC   H6Y21139   1.907   2.914   3.630  0.4877  0.5515 -1.1230
  173DOPC   C3721140   1.950   2.744   3.767  0.1385  0.6682 -0.1854
  173DOPC   H7X21141   1.879   2.665   3.735 -0.6694  2.4886 -3.3247
  173DOPC   H7Y21142   2.048   2.695   3.785 -0.8729 -0.7585  1.7940
  173DOPC   C3821143   1.913   2.837   3.888  0.2170  0.7144 -0.7066
  173DOPC   H8X21144   1.970   2.932   3.881  0.6444  0.4638 -0.6530
  173DOPC   H8Y21145   1.949   2.780   3.976 -1.1525 -0.2984 -0.7689
  173DOPC   C3921146   1.762   2.864   3.905  0.4753  0.5460  0.1362
  173DOPC   H9X21147   1.714   2.804   3.984 -0.1195  0.2044 -0.4643
  173DOPC  C31021148   1.698   2.973   3.861 -0.1729 -0.2985 -0.5693
  173DOPC  H10X21149   1.588   2.973   3.861 -0.3345 -0.1897  3.8273
  173DOPC  C31121150   1.753   3.086   3.774 -0.3002 -0.9049 -0.0878
  173DOPC  H11X21151   1.862   3.067   3.757 -0.1216  0.8291 -1.1027
  173DOPC  H11Y21152   1.753   3.184   3.826 -2.7267 -1.9877  2.1929
  173DOPC  C31221153   1.675   3.112   3.644 -0.5568 -0.1181  0.0638
  173DOPC  H12X21154   1.566   3.125   3.663 -0.8524 -0.1166 -1.4535
  173DOPC  H12Y21155   1.681   3.019   3.583 -0.4518 -0.9502  1.3101
  173DOPC  C31321156   1.716   3.229   3.557 -0.1800  0.4447 -0.0710
  173DOPC  H13X21157   1.649   3.248   3.471 -0.2397  1.3383  0.1595
  173DOPC  H13Y21158   1.721   3.323   3.617  0.0283  1.3214 -1.4251
  173DOPC  C31421159   1.858   3.201   3.494  0.0828 -0.4009  0.0646
  173DOPC  H14X21160   1.914   3.132   3.561 -0.5982  0.8550  2.0336
  173DOPC  H14Y21161   1.839   3.155   3.395 -0.3401 -0.1374  0.0201
  173DOPC  C31521162   1.934   3.327   3.447  0.2273  0.2378  0.2005
  173DOPC  H15X21163   1.871   3.378   3.371  0.9111 -1.6454 -1.7307
  173DOPC  H15Y21164   2.022   3.295   3.388 -0.7467 -1.1268 -0.5518
  173DOPC  C31621165   1.990   3.412   3.563 -0.2087  0.3874  0.4569
  173DOPC  H16X21166   2.032   3.502   3.512  0.5315  0.0135  0.3961
  173DOPC  H16Y21167   1.907   3.445   3.630 -1.7262 -0.1796 -1.0601
  173DOPC  C31721168   2.094   3.344   3.655  0.0804  0.1040  0.1143
  173DOPC  H17X21169   2.104   3.413   3.742  0.2445  0.7577 -0.4210
  173DOPC  H17Y21170   2.058   3.243   3.686 -1.3043  0.1850 -1.1202
  173DOPC  C31821171   2.235   3.333   3.596 -0.3165  0.2684  0.2871
  173DOPC  H18X21172   2.227   3.262   3.511 -2.2456  1.2098 -0.3863
  173DOPC  H18Y21173   2.278   3.429   3.559  0.7079 -0.4815 -0.5150
  173DOPC  H18Z21174   2.301   3.291   3.674  0.0460  1.9828  0.9555
  174DOPC     N21175   4.796   2.096   2.150 -0.2541  0.1449  0.5165
  174DOPC   C1221176   4.736   2.136   2.290 -0.2704 -0.1707 -0.2768
  174DOPC  H12A21177   4.669   2.058   2.322 -2.5178  1.6753 -0.1798
  174DOPC  H12B21178   4.682   2.229   2.277  1.0259  0.5989 -0.2630
  174DOPC   C1321179   4.831   2.230   2.083  0.5744 -0.6415  0.3377
  174DOPC  H13A21180   4.862   2.209   1.982  0.0544 -1.7051  0.3826
  174DOPC  H13B21181   4.739   2.286   2.074  0.0551 -0.6509  3.9311
  174DOPC  H13C21182   4.913   2.274   2.137  0.2929  1.8099 -1.0742
  174DOPC   C1421183   4.704   2.032   2.054 -0.3271  0.4905 -0.2181
  174DOPC  H14A21184   4.601   2.061   2.065 -0.5006  0.4374 -1.5015
  174DOPC  H14B21185   4.736   2.048   1.952 -2.0285 -2.0330 -1.2446
  174DOPC  H14C21186   4.700   1.925   2.065 -0.3197  0.6284  1.3028
  174DOPC   C1521187   4.919   2.017   2.161 -0.1802 -0.1938  0.0375
  174DOPC  H15A21188   4.967   2.003   2.066  0.5679  1.2475  0.1710
  174DOPC  H15B21189   4.902   1.923   2.213 -0.4174  0.1130  0.5257
  174DOPC  H15C21190   4.982   2.073   2.229 -0.5098  0.4864 -0.2108
  174DOPC   C1121191   4.831   2.182   2.402 -0.0957 -0.3390  0.4221
  174DOPC  H11A21192   4.776   2.217   2.492  0.9272  0.2560  0.8428
  174DOPC  H11B21193   4.898   2.099   2.434 -1.1974 -2.1222 -1.6968
  174DOPC     P21194   4.885   2.444   2.388 -0.1001  0.4025  0.0215
  174DOPC   O1321195   4.742   2.476   2.351  0.6305  0.1945 -0.1895
  174DOPC   O1421196   4.990   2.522   2.316 -0.2590  0.0170 -0.1852
  174DOPC   O1221197   4.919   2.291   2.361 -0.0145  0.3361 -0.2917
  174DOPC   O1121198   4.901   2.457   2.543  0.2106 -0.1142 -0.1737
  174DOPC    C121199   5.027   2.413   2.600  0.1443 -0.2816  0.4116
  174DOPC    HA21200   5.110   2.430   2.528 -1.1066  1.0019 -0.8222
  174DOPC    HB21201   5.023   2.303   2.614 -0.9021 -0.2330  0.5941
  174DOPC    C221202   5.057   2.485   2.730  0.8038  0.7149  0.2725
  174DOPC    HS21203   5.161   2.452   2.756  1.8344  1.7705 -2.2330
  174DOPC   O2121204   4.955   2.444   2.820 -0.0214  0.0302 -0.3369
  174DOPC   C2121205   4.976   2.327   2.874 -0.2036 -0.1690  0.6029
  174DOPC   O2221206   5.052   2.238   2.832  0.0157 -0.0370 -0.1040
  174DOPC   C2221207   4.901   2.329   3.005  0.1095  0.2698  0.0455
  174DOPC   H2R21208   4.891   2.221   3.029  2.0151 -0.2396 -1.2814
  174DOPC   H2S21209   4.799   2.373   2.995  1.1235  3.2470  1.6512
  174DOPC    C321210   5.055   2.640   2.713  0.1734 -0.7991 -0.3368
  174DOPC    HX21211   4.957   2.679   2.679  1.2053  1.6768 -0.6267
  174DOPC    HY21212   5.126   2.662   2.631 -0.1128 -0.4147 -0.4793
  174DOPC   O3121213   5.107   2.705   2.826 -0.2812 -0.0343  0.1117
  174DOPC   C3121214   5.081   2.839   2.820 -0.3375 -0.2198  0.1465
  174DOPC   O3221215   5.056   2.896   2.719 -0.2322  0.1930 -0.9291
  174DOPC   C3221216   5.095   2.895   2.964 -0.1957 -0.4144 -0.2544
  174DOPC   H2X21217   5.011   2.858   3.026  0.1305 -0.9105 -0.1024
  174DOPC   H2Y21218   5.185   2.857   3.018 -1.1529 -1.6418  0.5391
  174DOPC   C2321219   4.971   2.397   3.124 -0.3816  1.1155  0.1633
  174DOPC   H3R21220   5.002   2.500   3.100  2.0881 -0.2427 -3.1224
  174DOPC   H3S21221   5.067   2.349   3.154 -0.7134 -2.1734 -3.3360
  174DOPC   C2421222   4.870   2.390   3.250 -0.3964  0.0569 -0.1849
  174DOPC   H4R21223   4.890   2.288   3.290  0.4309  0.1647 -0.2938
  174DOPC   H4S21224   4.772   2.401   3.199  0.6006 -2.9676 -3.1045
  174DOPC   C2521225   4.890   2.512   3.348  0.2262  0.1022 -0.0275
  174DOPC   H5R21226   4.848   2.602   3.298 -2.0443 -0.9657 -0.1592
  174DOPC   H5S21227   4.999   2.525   3.367  0.6421 -2.3858 -0.3327
  174DOPC   C2621228   4.807   2.510   3.473  0.5520  0.0175 -0.3633
  174DOPC   H6R21229   4.836   2.420   3.532  0.5854  0.1592 -0.1633
  174DOPC   H6S21230   4.701   2.488   3.450  0.9942 -2.1851 -0.4960
  174DOPC   C2721231   4.833   2.635   3.554 -0.3281  0.3489 -0.6157
  174DOPC   H7R21232   4.802   2.730   3.507  0.1768  1.7531  1.7268
  174DOPC   H7S21233   4.943   2.645   3.563 -0.1493 -0.9727 -1.0636
  174DOPC   C2821234   4.792   2.626   3.703  0.3624 -0.7186  0.3679
  174DOPC   H8R21235   4.869   2.571   3.761  1.8967 -0.2982 -1.2104
  174DOPC   H8S21236   4.695   2.571   3.700 -1.5657  2.4010  0.9006
  174DOPC   C2921237   4.774   2.765   3.758  0.4675 -0.1488 -0.2645
  174DOPC   H9R21238   4.822   2.853   3.713  0.5229  0.4496  0.9371
  174DOPC  C21021239   4.684   2.802   3.854 -0.0307  0.0146 -0.4030
  174DOPC  H10R21240   4.671   2.908   3.882 -2.5709 -0.3281 -0.0276
  174DOPC  C21121241   4.592   2.711   3.934  0.3270 -1.0549 -0.8586
  174DOPC  H11R21242   4.641   2.614   3.957  0.8123 -0.5701  0.2498
  174DOPC  H11S21243   4.499   2.695   3.875 -1.0228 -1.6436  1.2893
  174DOPC  C21221244   4.550   2.765   4.077  0.0419  0.2391  0.2051
  174DOPC  H12R21245   4.644   2.757   4.135 -1.1164 -1.7971  1.9111
  174DOPC  H12S21246   4.483   2.691   4.125 -0.3597 -0.6274 -1.5840
  174DOPC  C21321247   4.477   2.900   4.077  0.1612  0.3715 -0.6953
  174DOPC  H13R21248   4.402   2.910   3.996  0.9006  1.8601 -1.2477
  174DOPC  H13S21249   4.562   2.969   4.053  1.5667 -1.8622 -2.5352
  174DOPC  C21421250   4.405   2.941   4.207  0.4502 -0.1286  0.3328
  174DOPC  H14R21251   4.309   2.886   4.217  0.6262 -0.6058 -0.4456
  174DOPC  H14S21252   4.386   3.050   4.203  1.1173  0.0175  0.9143
  174DOPC  C21521253   4.500   2.917   4.334  0.1342 -0.2468  0.0318
  174DOPC  H15R21254   4.597   2.969   4.319 -0.5160  0.7441 -0.8956
  174DOPC  H15S21255   4.516   2.807   4.345 -0.0042 -0.3877 -1.0189
  174DOPC  C21621256   4.451   2.979   4.464 -0.3466  0.2104  0.0431
  174DOPC  H16R21257   4.519   2.970   4.551 -0.7113  1.0180  0.4179
  174DOPC  H16S21258   4.363   2.925   4.505  1.2817 -0.0945  3.4609
  174DOPC  C21721259   4.403   3.127   4.464  0.0250 -0.5555 -0.1692
  174DOPC  H17R21260   4.313   3.148   4.401 -0.0202  1.3499  0.4812
  174DOPC  H17S21261   4.490   3.187   4.430 -1.4880  1.5405 -0.5632
  174DOPC  C21821262   4.386   3.170   4.616 -0.2836  0.1912  0.4507
  174DOPC  H18R21263   4.482   3.198   4.664  0.5965 -0.1548 -1.0354
  174DOPC  H18S21264   4.330   3.090   4.669  1.8779 -2.0090 -0.4060
  174DOPC  H18T21265   4.332   3.266   4.603  1.5460  0.9142 -3.4623
  174DOPC   C3321266   5.103   3.052   2.971  0.0742  1.0114  0.0126
  174DOPC   H3X21267   5.090   3.074   3.079  2.9556 -0.9376  0.8783
  174DOPC   H3Y21268   5.025   3.092   2.903 -0.8647 -1.0818 -0.2279
  174DOPC   C3421269   5.241   3.111   2.923 -0.5902 -0.1590  0.4571
  174DOPC   H4X21270   5.271   3.086   2.819 -0.3685  1.0604  0.2090
  174DOPC   H4Y21271   5.317   3.059   2.986  1.1914 -0.1349 -1.5243
  174DOPC   C3521272   5.270   3.261   2.962  0.0072  0.5361  0.7598
  174DOPC   H5X21273   5.215   3.284   3.055  0.5164  0.9083  0.9734
  174DOPC   H5Y21274   5.236   3.325   2.877 -1.1975  0.0322  0.8430
  174DOPC   C3621275   5.414   3.300   2.993  0.1558 -0.3659  0.7931
  174DOPC   H6X21276   5.426   3.391   3.055  0.1392  0.0265  0.2296
  174DOPC   H6Y21277   5.449   3.220   3.062  0.2910  0.0708  1.2290
  174DOPC   C3721278   5.509   3.299   2.880 -0.5592  0.2344 -0.2613
  174DOPC   H7X21279   5.495   3.211   2.814  2.1279  1.5892 -2.8878
  174DOPC   H7Y21280   5.488   3.393   2.824 -1.3817  0.1671 -0.0851
  174DOPC   C3821281   5.657   3.288   2.931  0.2937 -0.1161  0.1671
  174DOPC   H8X21282   5.719   3.228   2.861  0.6206 -2.5237  2.3612
  174DOPC   H8Y21283   5.667   3.231   3.026 -0.3866 -2.6082 -1.1787
  174DOPC   C3921284   5.720   3.424   2.948 -0.1739 -0.1245  0.2162
  174DOPC   H9X21285   5.747   3.482   2.859 -2.1140  0.8531  0.2041
  174DOPC  C31021286   5.770   3.465   3.065  0.5712 -0.1286  0.1731
  174DOPC  H10X21287   5.832   3.555   3.079 -0.7055  0.7475  0.3940
  174DOPC  C31121288   5.765   3.400   3.196 -0.0452  0.6058 -0.1234
  174DOPC  H11X21289   5.843   3.322   3.212 -0.0760  0.6956  0.4904
  174DOPC  H11Y21290   5.666   3.352   3.207 -0.5356  1.2798 -1.4495
  174DOPC  C31221291   5.776   3.510   3.311 -0.2166  0.3206  0.7457
  174DOPC  H12X21292   5.715   3.601   3.294  0.3033  0.2509 -1.8607
  174DOPC  H12Y21293   5.882   3.543   3.317  0.4146 -1.5724  0.7001
  174DOPC  C31321294   5.750   3.452   3.452 -0.0097 -0.6730  1.3938
  174DOPC  H13X21295   5.642   3.426   3.453 -0.5191  0.8443 -1.8122
  174DOPC  H13Y21296   5.810   3.359   3.439 -0.7572 -1.0813  0.7404
  174DOPC  C31421297   5.795   3.546   3.558  0.2442  0.4937 -0.7032
  174DOPC  H14X21298   5.898   3.584   3.541  1.4325 -2.6597 -1.1470
  174DOPC  H14Y21299   5.732   3.636   3.570  1.1330  0.9766  0.6317
  174DOPC  C31521300   5.804   3.478   3.699  0.1023  0.1356 -0.8425
  174DOPC  H15X21301   5.874   3.393   3.684 -1.2747 -0.8555 -1.9204
  174DOPC  H15Y21302   5.706   3.427   3.716  0.8520 -1.3709 -0.8559
  174DOPC  C31621303   5.856   3.571   3.810  0.4183  0.5656 -0.0177
  174DOPC  H16X21304   5.883   3.520   3.905  3.0348  1.4439 -0.2120
  174DOPC  H16Y21305   5.950   3.618   3.775 -1.5078  3.3975 -1.8391
  174DOPC  C31721306   5.761   3.688   3.855 -0.2033 -0.1019  0.0481
  174DOPC  H17X21307   5.815   3.747   3.932  0.8347 -1.0648  0.0932
  174DOPC  H17Y21308   5.745   3.748   3.763  1.9717  1.6143  0.6940
  174DOPC  C31821309   5.628   3.649   3.924 -0.0897  0.4233 -0.0188
  174DOPC  H18X21310   5.565   3.740   3.921 -0.2601  0.3097  0.1168
  174DOPC  H18Y21311   5.580   3.569   3.864 -1.5892  1.1341  0.2038
  174DOPC  H18Z21312   5.629   3.608   4.027 -0.6741  0.8105  0.1442
  175DOPC     N21313   3.696   6.480   2.632  0.4685 -0.8783 -0.8148
  175DOPC   C1221314   3.628   6.448   2.763  0.4683  0.2103  0.1421
  175DOPC  H12A21315   3.527   6.483   2.750  0.8966  0.9578 -1.4082
  175DOPC  H12B21316   3.663   6.511   2.844  1.3745  0.2274 -0.2547
  175DOPC   C1321317   3.664   6.624   2.604 -0.7520 -0.1349 -0.9292
  175DOPC  H13A21318   3.708   6.691   2.677  0.4818  0.0533 -1.8371
  175DOPC  H13B21319   3.695   6.652   2.505  0.7100 -1.1485 -0.7837
  175DOPC  H13C21320   3.557   6.642   2.606 -0.6750  0.4048  1.3992
  175DOPC   C1421321   3.647   6.388   2.526 -0.8463  0.7063  0.8256
  175DOPC  H14A21322   3.682   6.426   2.432  2.1224 -2.0366  0.6669
  175DOPC  H14B21323   3.683   6.288   2.543 -1.7107 -0.0017 -1.2296
  175DOPC  H14C21324   3.540   6.377   2.516 -0.5302 -0.3805 -2.4755
  175DOPC   C1521325   3.841   6.464   2.640 -0.2095 -0.6083 -0.4319
  175DOPC  H15A21326   3.889   6.508   2.726  1.5184  1.8660 -2.5096
  175DOPC  H15B21327   3.893   6.507   2.555 -3.3119 -0.5304 -2.4532
  175DOPC  H15C21328   3.871   6.362   2.658  1.5600  0.3789  2.9320
  175DOPC   C1121329   3.631   6.302   2.803  0.3677 -0.0438  0.8812
  175DOPC  H11A21330   3.573   6.301   2.897 -1.2849 -1.1425 -0.0802
  175DOPC  H11B21331   3.582   6.241   2.724 -1.0828  0.1367  1.6134
  175DOPC     P21332   3.803   6.107   2.865 -0.0006  0.1198 -0.3340
  175DOPC   O1321333   3.895   6.106   2.977  0.1523  0.5319 -0.8266
  175DOPC   O1421334   3.862   6.057   2.738 -0.7102  0.1862 -0.2783
  175DOPC   O1221335   3.767   6.260   2.839  0.0650  0.1674 -0.5774
  175DOPC   O1121336   3.664   6.040   2.895  0.3446 -0.2741  0.0230
  175DOPC    C121337   3.634   5.972   3.016  0.3444 -0.0695  0.0933
  175DOPC    HA21338   3.600   6.048   3.089  2.0276 -0.1467  1.0050
  175DOPC    HB21339   3.723   5.927   3.065  0.4191 -0.8325 -0.7192
  175DOPC    C221340   3.530   5.864   2.986  0.4673  0.4488 -0.6635
  175DOPC    HS21341   3.564   5.838   2.883  3.9617 -3.6874  1.2497
  175DOPC   O2121342   3.397   5.924   2.993 -0.6767  0.1609  0.1735
  175DOPC   C2121343   3.308   5.857   2.914 -0.2448  0.7786 -0.5005
  175DOPC   O2221344   3.338   5.748   2.866  0.0780  0.1372  0.1207
  175DOPC   C2221345   3.181   5.937   2.887  0.1862 -0.0776 -0.7585
  175DOPC   H2R21346   3.146   5.900   2.789 -1.3184 -0.9437  0.0627
  175DOPC   H2S21347   3.217   6.043   2.886 -0.3384  0.2474  2.3866
  175DOPC    C321348   3.542   5.742   3.085 -0.6593  0.7753 -0.4353
  175DOPC    HX21349   3.651   5.721   3.083 -0.8932 -0.4779 -0.9031
  175DOPC    HY21350   3.500   5.643   3.056  0.2475 -0.1292  1.2493
  175DOPC   O3121351   3.514   5.767   3.220  0.3458  0.2976 -0.1083
  175DOPC   C3121352   3.399   5.725   3.265 -0.0474 -0.3007 -0.4082
  175DOPC   O3221353   3.315   5.664   3.202  0.2455  0.3927  0.8245
  175DOPC   C3221354   3.369   5.773   3.407 -0.0327 -0.3528 -0.2812
  175DOPC   H2X21355   3.464   5.783   3.463 -0.1870 -0.3375 -0.0222
  175DOPC   H2Y21356   3.309   5.867   3.405  0.1562 -0.2392 -1.2863
  175DOPC   C2321357   3.074   5.909   2.992 -0.2578 -0.3548 -0.1322
  175DOPC   H3R21358   3.049   5.803   3.013  0.8444 -0.7473 -0.7231
  175DOPC   H3S21359   2.984   5.960   2.951 -0.7274  1.1954  2.5960
  175DOPC   C2421360   3.108   5.975   3.123 -0.9663  0.5081  0.1581
  175DOPC   H4R21361   3.122   6.085   3.108 -0.8546  0.3750 -0.8022
  175DOPC   H4S21362   3.207   5.939   3.156 -1.0883 -0.2267 -0.2579
  175DOPC   C2521363   3.005   5.946   3.231  0.1725  0.2752  0.2219
  175DOPC   H5R21364   3.006   5.837   3.255  2.4667 -0.9232 -4.2288
  175DOPC   H5S21365   2.903   5.954   3.187 -0.2065 -0.3492  0.9683
  175DOPC   C2621366   3.010   6.032   3.361 -0.1620  0.7984 -0.2290
  175DOPC   H6R21367   2.977   6.133   3.327 -1.5394  0.3255 -0.3735
  175DOPC   H6S21368   3.112   6.037   3.404 -1.0028  1.3819  1.8306
  175DOPC   C2721369   2.916   5.973   3.465 -0.0410 -0.0305 -0.5588
  175DOPC   H7R21370   2.946   5.875   3.508 -0.4436  0.2265  0.3314
  175DOPC   H7S21371   2.814   5.968   3.421  0.1350  0.7119 -1.0777
  175DOPC   C2821372   2.913   6.062   3.587 -0.2892 -0.2012 -0.3229
  175DOPC   H8R21373   2.859   6.159   3.573  1.7230  0.9189 -0.7255
  175DOPC   H8S21374   3.016   6.096   3.612 -1.0468  0.9427  1.4583
  175DOPC   C2921375   2.857   5.996   3.712  0.4429  0.1464 -0.3621
  175DOPC   H9R21376   2.814   5.897   3.693  0.5491 -0.1327  0.8057
  175DOPC  C21021377   2.871   6.049   3.839  0.1646 -0.2250 -0.1959
  175DOPC  H10R21378   2.841   5.997   3.931 -2.7867  0.5426 -0.6190
  175DOPC  C21121379   2.920   6.192   3.868  0.1255  0.6047 -0.0182
  175DOPC  H11R21380   2.845   6.268   3.836  0.8085  1.0847 -0.5306
  175DOPC  H11S21381   3.010   6.209   3.805  1.2421  1.6231  1.7451
  175DOPC  C21221382   2.955   6.204   4.016 -0.0755 -0.4106 -0.3904
  175DOPC  H12R21383   3.008   6.300   4.033 -0.3848 -0.2392 -0.3923
  175DOPC  H12S21384   3.020   6.119   4.048 -3.5964 -2.9602  0.5801
  175DOPC  C21321385   2.833   6.205   4.110  0.2179 -0.4887  0.2722
  175DOPC  H13R21386   2.854   6.136   4.195  0.7497  0.4654  0.9277
  175DOPC  H13S21387   2.759   6.142   4.057  0.9038 -0.9294 -0.1779
  175DOPC  C21421388   2.776   6.338   4.143 -0.1317  0.0417 -0.3183
  175DOPC  H14R21389   2.676   6.322   4.189  0.0738 -2.3759 -0.6030
  175DOPC  H14S21390   2.766   6.400   4.052 -2.5009  0.4953  0.1865
  175DOPC  C21521391   2.852   6.427   4.245  0.5917 -0.6436 -0.2716
  175DOPC  H15R21392   2.946   6.462   4.198  0.5700  3.3343  2.1526
  175DOPC  H15S21393   2.880   6.369   4.335 -1.0227  0.2522  0.8482
  175DOPC  C21621394   2.765   6.545   4.282  0.2631 -0.2108  0.0483
  175DOPC  H16R21395   2.818   6.600   4.363  2.3793 -0.7803 -0.8651
  175DOPC  H16S21396   2.672   6.503   4.325 -1.2978  0.2540 -2.6385
  175DOPC  C21721397   2.732   6.644   4.160  0.2118 -0.4601 -0.7488
  175DOPC  H17R21398   2.671   6.582   4.091  0.1306 -1.3096  0.0716
  175DOPC  H17S21399   2.819   6.665   4.095  0.3027 -1.1746 -0.8585
  175DOPC  C21821400   2.672   6.786   4.189 -0.3053  0.0440 -0.1692
  175DOPC  H18R21401   2.568   6.770   4.223 -0.6015 -1.2269 -1.5395
  175DOPC  H18S21402   2.677   6.848   4.097  1.7898 -2.0469 -1.6085
  175DOPC  H18T21403   2.729   6.849   4.260 -1.9890 -0.1157  1.3921
  175DOPC   C3321404   3.278   5.691   3.495  0.3953 -0.4291  0.2291
  175DOPC   H3X21405   3.338   5.599   3.504  1.8881  0.4200 -0.7544
  175DOPC   H3Y21406   3.180   5.674   3.445 -0.5181  1.2237  1.3489
  175DOPC   C3421407   3.246   5.758   3.629  0.5117 -0.4757  0.2995
  175DOPC   H4X21408   3.186   5.849   3.607  0.8506 -0.2273  0.3907
  175DOPC   H4Y21409   3.339   5.797   3.677 -0.4134  1.3907  0.6973
  175DOPC   C3521410   3.170   5.676   3.725  0.8057 -0.4942  0.0200
  175DOPC   H5X21411   3.210   5.573   3.734  1.3400 -0.3321 -0.4591
  175DOPC   H5Y21412   3.066   5.666   3.685 -0.4946  1.6834  2.5624
  175DOPC   C3621413   3.168   5.737   3.864 -0.0475 -0.5638 -0.2860
  175DOPC   H6X21414   3.275   5.740   3.892 -0.0108 -0.5069 -0.4334
  175DOPC   H6Y21415   3.121   5.837   3.857  1.5957  0.2191 -0.3514
  175DOPC   C3721416   3.088   5.644   3.967 -0.1867  0.1787  0.3036
  175DOPC   H7X21417   2.980   5.643   3.942 -0.0512 -0.5891 -0.2714
  175DOPC   H7Y21418   3.126   5.541   3.955 -0.8172  0.2156 -2.8337
  175DOPC   C3821419   3.089   5.692   4.118 -0.1867 -0.0451 -0.0186
  175DOPC   H8X21420   3.191   5.670   4.157 -0.2658 -2.4535 -1.0090
  175DOPC   H8Y21421   3.031   5.619   4.177  0.6293  0.2019  1.1194
  175DOPC   C3921422   3.059   5.839   4.157 -0.0154 -0.1968  0.3410
  175DOPC   H9X21423   3.091   5.913   4.083  0.8888 -0.2585  0.6586
  175DOPC  C31021424   2.989   5.868   4.271 -0.4297 -0.5228  0.5992
  175DOPC  H10X21425   2.971   5.976   4.281  1.5644 -0.1965  0.9887
  175DOPC  C31121426   2.942   5.780   4.381 -0.6117 -0.8775 -0.2980
  175DOPC  H11X21427   2.979   5.675   4.378 -2.4883 -1.5566 -0.8588
  175DOPC  H11Y21428   2.832   5.764   4.376 -0.5015 -1.5142 -0.7547
  175DOPC  C31221429   2.982   5.851   4.517 -0.4654  0.9145  0.2850
  175DOPC  H12X21430   2.948   5.957   4.514  0.0765  1.0758 -0.8920
  175DOPC  H12Y21431   3.093   5.858   4.523 -0.5992  2.1722  2.0080
  175DOPC  C31321432   2.916   5.763   4.625  0.1146 -0.4488  0.1421
  175DOPC  H13X21433   2.810   5.763   4.593  0.4895 -1.6229 -1.1764
  175DOPC  H13Y21434   2.945   5.657   4.611  2.4691 -0.0108  1.1060
  175DOPC  C31421435   2.932   5.807   4.769 -0.0051  0.3345 -0.0729
  175DOPC  H14X21436   3.040   5.831   4.781 -0.4864  2.0814  1.1416
  175DOPC  H14Y21437   2.865   5.889   4.801 -2.2232 -1.5391  0.3652
  175DOPC  C31521438   2.905   5.683   4.854  0.1028  0.3049 -0.4637
  175DOPC  H15X21439   2.828   5.627   4.797  1.1552  0.1174 -1.7697
  175DOPC  H15Y21440   2.872   5.713   4.956  0.7330  1.1873 -0.5053
  175DOPC  C31621441   3.026   5.590   4.866  0.1502 -0.5407  0.6396
  175DOPC  H16X21442   3.054   5.554   4.765  0.7066 -0.5104  0.7815
  175DOPC  H16Y21443   3.112   5.638   4.918 -1.2474 -0.0026  2.5581
  175DOPC  C31721444   2.998   5.473   4.964 -0.1609  0.1699  0.5025
  175DOPC  H17X21445   2.900   5.433   4.932  0.6424 -1.3430 -0.1845
  175DOPC  H17Y21446   3.066   5.389   4.940 -1.8640 -0.8979 -0.8308
  175DOPC  C31821447   3.018   5.514   5.109  1.6267  0.2855 -0.0372
  175DOPC  H18X21448   3.114   5.561   5.137  1.4770 -1.3174  3.6555
  175DOPC  H18Y21449   2.940   5.587   5.138  1.0667 -1.0674  2.0926
  175DOPC  H18Z21450   2.998   5.431   5.181  0.2035  1.5844  1.1342
  176DOPC     N21451   3.372   2.481   2.598 -0.4222 -0.4459 -0.6204
  176DOPC   C1221452   3.394   2.558   2.723  0.8674  0.1328  0.5085
  176DOPC  H12A21453   3.329   2.645   2.724 -0.6941 -0.9447 -1.0661
  176DOPC  H12B21454   3.489   2.609   2.715 -0.5141  2.7114 -0.8244
  176DOPC   C1321455   3.443   2.351   2.598  0.3710  0.3802 -0.7686
  176DOPC  H13A21456   3.396   2.290   2.674 -2.1139  1.7621 -1.1082
  176DOPC  H13B21457   3.423   2.300   2.504 -1.4989 -0.8631  0.2356
  176DOPC  H13C21458   3.550   2.352   2.615  0.2075 -0.6796  0.4702
  176DOPC   C1421459   3.444   2.561   2.487 -0.1367  0.1006  0.0027
  176DOPC  H14A21460   3.426   2.518   2.390 -0.7256  0.0048  0.1511
  176DOPC  H14B21461   3.409   2.663   2.484 -3.6757 -0.9524  0.7842
  176DOPC  H14C21462   3.551   2.561   2.504  0.5472 -1.6198 -3.4381
  176DOPC   C1521463   3.226   2.467   2.572 -0.2812 -0.4632  0.4770
  176DOPC  H15A21464   3.187   2.567   2.556  0.1655 -0.5046 -1.0416
  176DOPC  H15B21465   3.171   2.422   2.653 -0.6264  1.0507  1.1196
  176DOPC  H15C21466   3.212   2.416   2.478 -0.4780  0.9658 -0.2984
  176DOPC   C1121467   3.375   2.488   2.860 -0.0264  0.0013  0.5862
  176DOPC  H11A21468   3.454   2.410   2.868  1.0243  1.0745  0.9777
  176DOPC  H11B21469   3.387   2.566   2.939 -0.3894  1.1984 -0.5121
  176DOPC     P21470   3.120   2.496   2.906 -0.0364  0.5046  0.0657
  176DOPC   O1321471   3.012   2.393   2.880 -0.5444 -0.4346  0.2585
  176DOPC   O1421472   3.102   2.633   2.859  0.8340 -0.0170 -0.0979
  176DOPC   O1221473   3.247   2.427   2.858  0.2150  0.1432 -0.4547
  176DOPC   O1121474   3.138   2.510   3.062  0.2530  0.4517  0.3754
  176DOPC    C121475   3.153   2.396   3.154 -0.2118  0.5255  0.4315
  176DOPC    HA21476   3.226   2.418   3.234  0.3966 -0.2093  0.0945
  176DOPC    HB21477   3.194   2.315   3.090 -1.6545  0.5412 -0.5816
  176DOPC    C221478   3.020   2.350   3.212  0.1211  0.1547  0.0953
  176DOPC    HS21479   2.947   2.354   3.128  1.8393 -0.5426 -1.4927
  176DOPC   O2121480   2.991   2.445   3.314  0.2663 -0.1502  0.0374
  176DOPC   C2121481   2.858   2.461   3.340  0.2512 -0.4875  0.8369
  176DOPC   O2221482   2.769   2.402   3.286  0.2205  0.2748 -0.5942
  176DOPC   C2221483   2.843   2.570   3.450  0.7558 -0.0388 -0.1689
  176DOPC   H2R21484   2.741   2.565   3.494  1.6215 -0.5615  1.9164
  176DOPC   H2S21485   2.851   2.663   3.390 -2.6232  0.1662 -0.4575
  176DOPC    C321486   3.025   2.206   3.265 -0.3239 -0.3902 -0.5976
  176DOPC    HX21487   3.059   2.139   3.183 -1.1979  0.6862 -1.8764
  176DOPC    HY21488   2.917   2.192   3.287 -0.6012 -0.5314 -1.9630
  176DOPC   O3121489   3.101   2.211   3.392  0.4100 -0.6434  0.5491
  176DOPC   C3121490   3.060   2.134   3.489 -0.1230 -0.4095 -0.0136
  176DOPC   O3221491   2.963   2.056   3.484  0.2502 -0.1364 -0.0674
  176DOPC   C3221492   3.145   2.169   3.614  0.3850 -0.2133  0.4164
  176DOPC   H2X21493   3.225   2.092   3.623 -0.4019 -1.0860  0.0264
  176DOPC   H2Y21494   3.186   2.272   3.602  0.2592  0.2820  3.5634
  176DOPC   C2321495   2.955   2.570   3.556  0.0699  0.0630  0.7194
  176DOPC   H3R21496   2.994   2.674   3.563 -1.7199  0.8325 -0.1193
  176DOPC   H3S21497   3.043   2.515   3.515  1.1142 -0.1391  3.0446
  176DOPC   C2421498   2.913   2.509   3.688 -0.3697 -0.4141 -0.0159
  176DOPC   H4R21499   3.006   2.515   3.749  0.0447 -0.3095 -0.6468
  176DOPC   H4S21500   2.878   2.404   3.676  1.2351 -1.0522  0.5953
  176DOPC   C2521501   2.816   2.602   3.766  0.6473 -0.5115  0.2120
  176DOPC   H5R21502   2.714   2.591   3.724  0.0962  1.7137  0.8755
  176DOPC   H5S21503   2.842   2.710   3.763 -1.1375 -0.0792 -1.1052
  176DOPC   C2621504   2.806   2.562   3.913 -0.4006 -0.9903  0.2452
  176DOPC   H6R21505   2.836   2.455   3.922 -0.9088 -1.3561 -1.9312
  176DOPC   H6S21506   2.708   2.581   3.962 -0.3011 -1.8935  0.8174
  176DOPC   C2721507   2.901   2.650   3.988  0.1619 -0.4549  0.4974
  176DOPC   H7R21508   2.889   2.760   3.977  3.8805  0.1086  0.9139
  176DOPC   H7S21509   3.003   2.643   3.944 -0.3942 -1.8101 -0.6290
  176DOPC   C2821510   2.908   2.617   4.136 -0.1465  0.4137 -0.6684
  176DOPC   H8R21511   2.921   2.507   4.140  0.4216  0.3451 -3.0935
  176DOPC   H8S21512   2.810   2.648   4.178 -0.2693 -0.0233 -0.6228
  176DOPC   C2921513   3.015   2.693   4.206  0.3729  0.3030 -0.2433
  176DOPC   H9R21514   2.978   2.796   4.215 -0.4169  0.0046  0.0072
  176DOPC  C21021515   3.131   2.641   4.259  0.5625 -0.4475  0.0599
  176DOPC  H10R21516   3.204   2.712   4.301  1.0814 -1.0927  0.2778
  176DOPC  C21121517   3.166   2.497   4.263  0.0446 -0.4827 -0.7712
  176DOPC  H11R21518   3.203   2.475   4.160 -1.2493  1.0906 -1.6266
  176DOPC  H11S21519   3.082   2.431   4.294  0.1516 -0.9280 -1.4074
  176DOPC  C21221520   3.282   2.471   4.356  0.4098 -0.2202  0.0143
  176DOPC  H12R21521   3.356   2.552   4.342 -0.3856  0.4791 -0.2574
  176DOPC  H12S21522   3.328   2.381   4.311 -2.1846 -0.2994 -2.8078
  176DOPC  C21321523   3.230   2.460   4.504 -0.0146 -0.8106  0.5480
  176DOPC  H13R21524   3.143   2.392   4.513  0.4957 -1.5416  0.0718
  176DOPC  H13S21525   3.185   2.559   4.527 -1.0519  0.1805 -4.6632
  176DOPC  C21421526   3.339   2.431   4.602 -0.4910  0.6201 -0.6173
  176DOPC  H14R21527   3.427   2.498   4.594 -0.1595  0.1744 -0.7689
  176DOPC  H14S21528   3.380   2.329   4.586  1.4023  1.2335  0.1316
  176DOPC  C21521529   3.284   2.442   4.744  0.1734 -0.5047  0.0667
  176DOPC  H15R21530   3.218   2.353   4.754 -1.2958  0.5645  0.2280
  176DOPC  H15S21531   3.228   2.538   4.749  1.0135  0.0411 -0.7192
  176DOPC  C21621532   3.389   2.437   4.854 -0.6537  0.0495 -0.0066
  176DOPC  H16R21533   3.475   2.497   4.817 -0.2293 -1.0658 -0.8991
  176DOPC  H16S21534   3.418   2.331   4.872 -0.0825  0.1380 -0.3668
  176DOPC  C21721535   3.353   2.500   4.984 -0.2089 -1.2625 -0.3485
  176DOPC  H17R21536   3.265   2.451   5.031  0.6726 -2.2877  0.2853
  176DOPC  H17S21537   3.318   2.605   4.971  1.0340 -0.4651  2.1733
  176DOPC  C21821538   3.464   2.509   5.085  0.4249  1.1744  0.2113
  176DOPC  H18R21539   3.500   2.408   5.116 -2.0430 -0.5579 -2.0422
  176DOPC  H18S21540   3.422   2.546   5.180  0.5856  1.0573  0.3282
  176DOPC  H18T21541   3.559   2.557   5.052  0.9085 -1.2907 -2.4798
  176DOPC   C3321542   3.068   2.169   3.750  0.4264  0.0289 -0.5537
  176DOPC   H3X21543   3.028   2.067   3.770  1.2627 -0.0736  0.6824
  176DOPC   H3Y21544   2.989   2.246   3.733  0.8782  0.3970 -1.0231
  176DOPC   C3421545   3.158   2.200   3.872  0.4485  0.7455  0.0482
  176DOPC   H4X21546   3.215   2.291   3.843  0.2879  1.4103  1.7002
  176DOPC   H4Y21547   3.227   2.114   3.886  0.1886  0.4346 -0.5433
  176DOPC   C3521548   3.084   2.229   3.999  0.0077  0.3181 -0.7376
  176DOPC   H5X21549   3.022   2.319   3.981 -1.3698 -0.5920 -0.6845
  176DOPC   H5Y21550   3.151   2.250   4.086 -1.3286  1.5801  0.0228
  176DOPC   C3621551   2.996   2.108   4.047 -0.2603 -0.6851 -0.5028
  176DOPC   H6X21552   2.909   2.115   3.979  0.3288  0.6949 -1.1574
  176DOPC   H6Y21553   3.048   2.010   4.054 -1.1192 -1.0118  2.8667
  176DOPC   C3721554   2.944   2.152   4.191 -0.3702  1.2241  0.5362
  176DOPC   H7X21555   2.930   2.262   4.190 -2.1832  1.0279 -0.6622
  176DOPC   H7Y21556   2.842   2.114   4.210  0.7871 -1.7021  1.3335
  176DOPC   C3821557   3.032   2.093   4.307  0.3324  0.5358  0.3642
  176DOPC   H8X21558   3.138   2.122   4.289  0.3058 -1.2222 -3.9194
  176DOPC   H8Y21559   3.020   1.983   4.301 -2.5877  0.5678  3.0211
  176DOPC   C3921560   2.977   2.130   4.441  0.6514 -0.5893 -0.1868
  176DOPC   H9X21561   2.957   2.237   4.454 -0.7692 -0.9208  0.6667
  176DOPC  C31021562   2.950   2.046   4.549  0.2549 -0.9290  0.0625
  176DOPC  H10X21563   2.910   2.095   4.639  1.4781 -0.9384  0.6369
  176DOPC  C31121564   2.963   1.891   4.559 -0.1387  0.2504 -0.0371
  176DOPC  H11X21565   3.015   1.840   4.474 -1.7291 -0.4669 -0.6212
  176DOPC  H11Y21566   2.861   1.847   4.556 -0.6243  0.9334  3.1641
  176DOPC  C31221567   3.027   1.837   4.703 -0.1785 -0.6273  0.6006
  176DOPC  H12X21568   2.955   1.870   4.781  0.8866 -0.2434  1.4449
  176DOPC  H12Y21569   3.125   1.887   4.720  0.3140 -1.7079  1.0487
  176DOPC  C31321570   3.066   1.688   4.708  0.4627 -0.2644  0.3846
  176DOPC  H13X21571   2.971   1.635   4.686  0.3287 -0.0758  0.5085
  176DOPC  H13Y21572   3.133   1.655   4.626  0.0901 -0.5268  0.1823
  176DOPC  C31421573   3.116   1.638   4.845  0.1975 -0.3279  0.6567
  176DOPC  H14X21574   3.216   1.679   4.869  0.7344 -0.8437 -0.6290
  176DOPC  H14Y21575   3.049   1.683   4.922  1.2228  0.9462  0.8383
  176DOPC  C31521576   3.103   1.486   4.871 -0.1242 -0.3161  0.2008
  176DOPC  H15X21577   3.178   1.428   4.814 -1.7424 -0.8440 -1.5145
  176DOPC  H15Y21578   3.007   1.452   4.826 -0.7401  1.2319  0.2913
  176DOPC  C31621579   3.095   1.447   5.023 -0.5257 -0.2581 -0.3970
  176DOPC  H16X21580   3.006   1.496   5.067 -1.2329 -2.5619  0.9084
  176DOPC  H16Y21581   3.071   1.340   5.043 -2.1023  0.0307 -0.6267
  176DOPC  C31721582   3.227   1.479   5.105  0.2345 -0.0841  0.8279
  176DOPC  H17X21583   3.309   1.409   5.077  0.9377  1.1311 -0.2342
  176DOPC  H17Y21584   3.269   1.578   5.078  0.0526  0.4682  2.4308
  176DOPC  C31821585   3.209   1.474   5.257 -0.3487 -0.4983 -0.0506
  176DOPC  H18X21586   3.306   1.440   5.299 -0.0125 -0.0829 -0.4849
  176DOPC  H18Y21587   3.187   1.580   5.281  0.9028  0.3380 -2.3174
  176DOPC  H18Z21588   3.137   1.392   5.280 -1.3475  0.3496 -0.0734
  177DOPC     N21589   5.903   5.055   2.255  0.6425 -0.2233  0.8199
  177DOPC   C1221590   5.768   5.101   2.302 -0.2031 -0.5012 -0.5442
  177DOPC  H12A21591   5.761   5.065   2.403  0.9110 -0.0625 -0.2968
  177DOPC  H12B21592   5.690   5.046   2.251 -2.0497  0.8795  0.6631
  177DOPC   C1321593   5.929   5.110   2.118  0.1289  0.8177  0.0043
  177DOPC  H13A21594   5.906   5.216   2.110 -0.2434  0.6884 -0.8383
  177DOPC  H13B21595   6.033   5.114   2.088 -0.2411  3.1212 -1.2627
  177DOPC  H13C21596   5.858   5.069   2.047  0.5706  0.5014 -0.2535
  177DOPC   C1421597   5.915   4.903   2.248 -0.4072  0.6451 -0.5924
  177DOPC  H14A21598   5.859   4.858   2.167 -1.8614  3.2044 -1.1288
  177DOPC  H14B21599   6.020   4.880   2.234 -0.1955  1.6707 -0.8052
  177DOPC  H14C21600   5.882   4.849   2.335 -0.7145  2.4597  0.4786
  177DOPC   C1521601   6.012   5.113   2.344 -0.0652  0.1645  0.4673
  177DOPC  H15A21602   6.003   5.061   2.439 -0.8800 -3.7343 -1.5074
  177DOPC  H15B21603   6.010   5.221   2.343 -0.7720  0.1488 -0.5254
  177DOPC  H15C21604   6.110   5.087   2.306  0.4780  1.5398  0.8803
  177DOPC   C1121605   5.733   5.254   2.293  0.3485 -0.3605  0.4168
  177DOPC  H11A21606   5.754   5.309   2.199 -1.4282  0.9393  0.7104
  177DOPC  H11B21607   5.623   5.265   2.308  0.5014  1.3186  0.5237
  177DOPC     P21608   5.780   5.363   2.525 -0.6757 -0.1631 -0.0136
  177DOPC   O1321609   5.913   5.384   2.587  0.3630  0.5834 -0.1508
  177DOPC   O1421610   5.689   5.271   2.588  0.2656 -0.3927  0.3025
  177DOPC   O1221611   5.814   5.317   2.386  0.4146  0.2858  0.3744
  177DOPC   O1121612   5.712   5.507   2.508  0.3879  0.6263 -0.6742
  177DOPC    C121613   5.740   5.623   2.593  0.1718 -0.1846 -0.3946
  177DOPC    HA21614   5.734   5.715   2.530  0.4273 -0.0067 -0.1585
  177DOPC    HB21615   5.849   5.628   2.610  0.0047 -0.7499  0.9500
  177DOPC    C221616   5.650   5.633   2.714  0.0722  0.1345 -0.1687
  177DOPC    HS21617   5.545   5.612   2.683 -0.0322 -0.9148  0.8526
  177DOPC   O2121618   5.664   5.766   2.758 -0.0969  0.4667 -0.5921
  177DOPC   C2121619   5.558   5.837   2.784 -0.3046  0.4185 -0.1665
  177DOPC   O2221620   5.442   5.805   2.762  0.3661 -0.1617  0.2186
  177DOPC   C2221621   5.595   5.967   2.841 -0.8974 -0.1649  0.1239
  177DOPC   H2R21622   5.624   6.033   2.756 -2.1680  1.2573  0.7335
  177DOPC   H2S21623   5.686   5.960   2.904 -0.2605 -1.3212 -0.8918
  177DOPC    C321624   5.690   5.542   2.834 -0.4065  0.3673  0.9398
  177DOPC    HX21625   5.795   5.575   2.852  0.0472 -1.4533  1.8561
  177DOPC    HY21626   5.687   5.439   2.791 -0.1616  0.5529  0.4678
  177DOPC   O3121627   5.621   5.556   2.959  0.0841  0.0434  0.2634
  177DOPC   C3121628   5.492   5.512   2.953  0.7194  0.0909 -0.0698
  177DOPC   O3221629   5.447   5.443   2.864 -0.5984 -0.2317 -0.0808
  177DOPC   C3221630   5.423   5.553   3.085 -0.3394  0.3207 -0.3420
  177DOPC   H2X21631   5.468   5.504   3.175 -0.0316 -3.3505 -2.3104
  177DOPC   H2Y21632   5.454   5.658   3.106 -1.0012  0.2129  1.3992
  177DOPC   C2321633   5.473   6.036   2.908 -0.6597 -0.0062  0.3261
  177DOPC   H3R21634   5.386   6.056   2.842 -2.1828 -0.2381  2.1664
  177DOPC   H3S21635   5.506   6.140   2.926 -0.9410 -0.1375  1.7245
  177DOPC   C2421636   5.438   5.983   3.043  0.1497  0.7837 -0.1189
  177DOPC   H4R21637   5.404   5.880   3.021  1.5523  0.3004 -0.1154
  177DOPC   H4S21638   5.362   6.044   3.096  1.8900  0.9040  2.4577
  177DOPC   C2521639   5.561   5.966   3.137  0.0407  0.6647  0.1754
  177DOPC   H5R21640   5.635   6.047   3.123  1.0352 -0.3288 -0.4536
  177DOPC   H5S21641   5.610   5.871   3.107  1.8889  1.5348  0.3130
  177DOPC   C2621642   5.522   5.951   3.286  0.3406 -0.0654 -0.2847
  177DOPC   H6R21643   5.618   5.924   3.336 -0.1358 -1.0843  0.0948
  177DOPC   H6S21644   5.456   5.863   3.295  0.7438 -0.3538 -0.0931
  177DOPC   C2721645   5.467   6.078   3.347 -0.3002 -0.8258  0.5060
  177DOPC   H7R21646   5.358   6.080   3.324  0.0025  0.0134 -1.0109
  177DOPC   H7S21647   5.502   6.173   3.302 -0.3987 -0.5217  1.0696
  177DOPC   C2821648   5.478   6.080   3.503 -0.3241  0.6173  1.0111
  177DOPC   H8R21649   5.586   6.072   3.530  0.1666  2.2899 -0.2759
  177DOPC   H8S21650   5.427   5.996   3.555  1.5592 -0.3836  1.3350
  177DOPC   C2921651   5.434   6.207   3.564  0.5811  0.4565 -0.4087
  177DOPC   H9R21652   5.404   6.286   3.494  0.9877  0.9927  0.0085
  177DOPC  C21021653   5.413   6.220   3.696  0.5395 -0.0009 -0.1342
  177DOPC  H10R21654   5.381   6.317   3.737  1.7750  0.7329 -0.8488
  177DOPC  C21121655   5.441   6.121   3.803 -0.5237  0.7359 -0.0458
  177DOPC  H11R21656   5.506   6.162   3.884 -0.3936 -0.9257  0.7335
  177DOPC  H11S21657   5.497   6.036   3.759 -2.6429  0.7987 -3.1844
  177DOPC  C21221658   5.317   6.057   3.871 -0.4636 -0.4402  0.1130
  177DOPC  H12R21659   5.244   6.140   3.884 -0.1848  0.4578 -3.1151
  177DOPC  H12S21660   5.350   6.015   3.969  2.4019 -1.7718 -1.3134
  177DOPC  C21321661   5.257   5.946   3.779  0.1489  0.4092 -0.5222
  177DOPC  H13R21662   5.225   5.990   3.682 -1.1457  1.4607  0.3469
  177DOPC  H13S21663   5.169   5.910   3.836  0.6501  1.7587  1.1867
  177DOPC  C21421664   5.343   5.825   3.754 -0.4404 -0.5126 -0.8250
  177DOPC  H14R21665   5.370   5.784   3.854 -0.8600  1.3719  0.1175
  177DOPC  H14S21666   5.447   5.850   3.723  0.5741 -1.1776  1.8002
  177DOPC  C21521667   5.285   5.708   3.666  0.2272  0.0107  0.4252
  177DOPC  H15R21668   5.339   5.611   3.682 -3.1374 -1.9822  0.5756
  177DOPC  H15S21669   5.292   5.738   3.559 -5.1090 -0.9377 -0.4555
  177DOPC  C21621670   5.141   5.662   3.687  0.1635 -0.4660  0.1770
  177DOPC  H16R21671   5.121   5.583   3.612 -1.1283  1.4776 -1.6599
  177DOPC  H16S21672   5.075   5.749   3.667 -3.1027 -2.4212  1.6154
  177DOPC  C21721673   5.115   5.607   3.821 -0.5222  0.1586 -0.4914
  177DOPC  H17R21674   5.137   5.688   3.895 -1.1291  0.5481 -0.7330
  177DOPC  H17S21675   5.178   5.516   3.823 -1.6792 -0.6900 -1.3099
  177DOPC  C21821676   4.970   5.571   3.847  0.4917  0.5157  0.1408
  177DOPC  H18R21677   4.960   5.567   3.957  1.4646  0.0733  0.2200
  177DOPC  H18S21678   4.955   5.470   3.804  2.6550 -1.5604  3.7670
  177DOPC  H18T21679   4.898   5.642   3.800 -0.8750  0.0787  1.5106
  177DOPC   C3321680   5.268   5.530   3.083 -0.7672 -0.0802 -0.8239
  177DOPC   H3X21681   5.255   5.420   3.088 -2.3008 -0.1311 -3.9350
  177DOPC   H3Y21682   5.216   5.559   2.990 -1.2175  0.8582 -0.3031
  177DOPC   C3421683   5.186   5.589   3.202 -0.5536  0.6095 -0.5529
  177DOPC   H4X21684   5.240   5.572   3.298 -1.1358 -1.9168 -0.5952
  177DOPC   H4Y21685   5.084   5.545   3.213 -0.1670 -0.1847 -0.1002
  177DOPC   C3521686   5.157   5.740   3.191  0.8724 -0.1646 -0.4072
  177DOPC   H5X21687   5.107   5.749   3.092  0.3424 -3.9987 -0.6762
  177DOPC   H5Y21688   5.261   5.777   3.191  0.8545 -0.0900  0.4086
  177DOPC   C3621689   5.063   5.797   3.307 -0.2664  0.3050  0.7033
  177DOPC   H6X21690   4.963   5.747   3.307 -0.3008  0.3728  0.7701
  177DOPC   H6Y21691   5.106   5.774   3.407  0.5764  0.1326  0.3117
  177DOPC   C3721692   5.038   5.945   3.299  0.0551 -0.4665 -0.0796
  177DOPC   H7X21693   5.120   6.012   3.334 -1.4457  0.7221  1.2652
  177DOPC   H7Y21694   5.026   5.973   3.192  0.1413  2.1879  0.5302
  177DOPC   C3821695   4.919   5.967   3.391  0.9557 -0.6263  0.3635
  177DOPC   H8X21696   4.917   5.888   3.470 -0.0846 -2.0680 -1.0293
  177DOPC   H8Y21697   4.828   5.945   3.331  0.0523  0.1556  1.3890
  177DOPC   C3921698   4.896   6.107   3.453 -0.1568 -0.2765  0.3875
  177DOPC   H9X21699   4.872   6.183   3.378 -0.7397  0.2705  1.1170
  177DOPC  C31021700   4.903   6.142   3.582 -0.1761 -0.5518 -0.0002
  177DOPC  H10X21701   4.883   6.249   3.595  1.3113  0.0912 -2.2949
  177DOPC  C31121702   4.921   6.058   3.705  0.0578  1.0889 -0.0330
  177DOPC  H11X21703   4.994   6.097   3.780  1.8724 -0.3539 -0.9642
  177DOPC  H11Y21704   4.962   5.955   3.696 -0.6193  0.8881 -0.9727
  177DOPC  C31221705   4.782   6.019   3.756 -0.0339 -0.2010 -0.0470
  177DOPC  H12X21706   4.732   5.948   3.687  1.3077 -2.0906  0.8383
  177DOPC  H12Y21707   4.719   6.109   3.766  0.1213  0.0385 -1.1985
  177DOPC  C31321708   4.786   5.954   3.897 -0.2974  0.4397  0.2037
  177DOPC  H13X21709   4.854   5.866   3.898  0.3614  0.9136  2.7773
  177DOPC  H13Y21710   4.839   6.016   3.971 -0.1125 -0.2995  0.7051
  177DOPC  C31421711   4.643   5.911   3.927 -0.4130 -0.2619  0.1049
  177DOPC  H14X21712   4.577   5.998   3.942  1.0915  0.6523  1.7531
  177DOPC  H14Y21713   4.597   5.853   3.844  1.6948  0.0131 -1.3450
  177DOPC  C31521714   4.634   5.832   4.058  0.7066  0.1957 -0.6152
  177DOPC  H15X21715   4.732   5.791   4.090 -0.1683 -1.7816 -0.3168
  177DOPC  H15Y21716   4.561   5.749   4.048 -0.5622  1.2822 -0.6573
  177DOPC  C31621717   4.577   5.928   4.168  0.0902  0.1530 -0.5168
  177DOPC  H16X21718   4.653   6.006   4.189  0.1718  0.6809 -2.5679
  177DOPC  H16Y21719   4.487   5.963   4.112  2.2037  3.8705 -1.9741
  177DOPC  C31721720   4.522   5.858   4.294  0.9511  0.4018 -0.7011
  177DOPC  H17X21721   4.475   5.931   4.365 -0.7947 -0.6081 -0.7597
  177DOPC  H17Y21722   4.437   5.798   4.256  0.9927 -0.6272  0.7523
  177DOPC  C31821723   4.620   5.767   4.369  0.2555 -0.2368  0.2353
  177DOPC  H18X21724   4.591   5.769   4.477  1.2602 -2.3392  0.6058
  177DOPC  H18Y21725   4.617   5.663   4.332  0.1399  0.1295 -0.8069
  177DOPC  H18Z21726   4.727   5.797   4.357  0.4067  0.2649  2.3244
  178DOPC     N21727   2.134   5.718   2.439  0.0661 -0.5926 -0.6235
  178DOPC   C1221728   2.239   5.766   2.540  0.3165 -0.1675  0.1990
  178DOPC  H12A21729   2.211   5.715   2.631  0.2567  0.5226  0.5691
  178DOPC  H12B21730   2.212   5.869   2.557  1.3868 -0.0404  1.2150
  178DOPC   C1321731   1.986   5.740   2.481 -0.1987 -0.3173  0.4007
  178DOPC  H13A21732   1.915   5.691   2.416  0.0439 -1.9859  1.3388
  178DOPC  H13B21733   1.971   5.700   2.580  0.2332 -1.6388 -0.0575
  178DOPC  H13C21734   1.964   5.846   2.484  0.1619 -0.2124 -0.4871
  178DOPC   C1421735   2.150   5.576   2.407  0.3344 -0.3044  0.1700
  178DOPC  H14A21736   2.123   5.518   2.494 -0.0631 -1.4642 -0.7020
  178DOPC  H14B21737   2.074   5.553   2.333 -1.7000 -1.1287  2.3709
  178DOPC  H14C21738   2.246   5.552   2.364  0.1882 -1.8022  0.6187
  178DOPC   C1521739   2.157   5.790   2.311 -0.5531 -0.2478  0.2380
  178DOPC  H15A21740   2.257   5.770   2.277 -0.8492  0.1135 -0.8902
  178DOPC  H15B21741   2.132   5.894   2.322 -1.7267 -0.2375 -1.9879
  178DOPC  H15C21742   2.085   5.754   2.238 -0.1870 -1.0852  0.2746
  178DOPC   C1121743   2.395   5.760   2.516  0.6904  0.0098  0.2111
  178DOPC  H11A21744   2.431   5.797   2.614  0.6291 -1.6873  0.9054
  178DOPC  H11B21745   2.411   5.652   2.494 -1.0170 -0.0427 -0.9171
  178DOPC     P21746   2.465   5.996   2.418 -0.1395 -0.3234 -0.0885
  178DOPC   O1321747   2.375   6.073   2.331 -0.4988  0.0412  0.3379
  178DOPC   O1421748   2.612   6.024   2.391  0.6834 -0.1835  0.3483
  178DOPC   O1221749   2.438   5.844   2.410  0.0773 -0.1452 -0.2629
  178DOPC   O1121750   2.433   6.023   2.570 -0.1078  0.2621  0.2882
  178DOPC    C121751   2.521   6.105   2.649 -0.3732 -0.6731  0.2406
  178DOPC    HA21752   2.468   6.151   2.734 -0.7024  0.0932 -0.3659
  178DOPC    HB21753   2.562   6.188   2.588  0.4876 -0.3590  1.2143
  178DOPC    C221754   2.627   6.020   2.727  0.7600 -0.6577  0.1446
  178DOPC    HS21755   2.676   5.946   2.661  3.3640  0.5872  0.5579
  178DOPC   O2121756   2.566   5.960   2.836 -0.4244  0.0785 -0.3768
  178DOPC   C2121757   2.636   5.875   2.903 -0.1405  0.4007  0.3326
  178DOPC   O2221758   2.746   5.833   2.870  0.4420  0.1421 -0.0397
  178DOPC   C2221759   2.549   5.830   3.021 -0.0998 -0.1606 -0.2210
  178DOPC   H2R21760   2.460   5.780   2.978  0.7574 -1.3544 -0.6438
  178DOPC   H2S21761   2.519   5.924   3.072 -0.3441 -1.7249  2.6721
  178DOPC    C321762   2.755   6.108   2.770 -0.6240 -0.2248  0.4884
  178DOPC    HX21763   2.777   6.187   2.695 -1.2494  1.3272  1.8792
  178DOPC    HY21764   2.844   6.042   2.775 -0.0944  0.4579  0.2446
  178DOPC   O3121765   2.723   6.179   2.889  0.2496  0.1384  0.4138
  178DOPC   C3121766   2.828   6.238   2.949  0.3467 -0.4067 -0.4247
  178DOPC   O3221767   2.944   6.222   2.911  0.0229  0.1973 -0.0596
  178DOPC   C3221768   2.785   6.312   3.075  0.1120 -0.3525  0.3102
  178DOPC   H2X21769   2.687   6.357   3.049  0.0561 -1.1070 -0.8543
  178DOPC   H2Y21770   2.761   6.232   3.149 -1.0780 -0.2551  0.0552
  178DOPC   C2321771   2.629   5.753   3.127  0.4342 -0.5780 -0.0600
  178DOPC   H3R21772   2.735   5.784   3.135  0.5907 -1.1289  0.0159
  178DOPC   H3S21773   2.623   5.643   3.113 -1.7328 -0.9538  2.7225
  178DOPC   C2421774   2.574   5.783   3.271 -0.0435 -0.4337  0.7232
  178DOPC   H4R21775   2.468   5.757   3.256 -0.5254  0.4841  2.3436
  178DOPC   H4S21776   2.586   5.892   3.288  1.5675 -0.9874  3.7654
  178DOPC   C2521777   2.623   5.702   3.391 -0.2492  0.3772  0.1888
  178DOPC   H5R21778   2.724   5.727   3.431  0.8144  0.5461 -2.3883
  178DOPC   H5S21779   2.633   5.595   3.361 -1.8234  0.0470  0.7562
  178DOPC   C2621780   2.522   5.714   3.505 -0.0627 -0.6286 -0.1447
  178DOPC   H6R21781   2.446   5.636   3.483  0.1193 -1.6818  2.5235
  178DOPC   H6S21782   2.473   5.810   3.533 -0.9227 -1.5540  1.6768
  178DOPC   C2721783   2.593   5.678   3.638  0.7704  0.0953  0.4185
  178DOPC   H7R21784   2.684   5.732   3.673 -1.6808  2.8023  3.2322
  178DOPC   H7S21785   2.623   5.574   3.612  0.3695  0.0530  0.1204
  178DOPC   C2821786   2.493   5.676   3.750  0.4423  0.1925 -0.8470
  178DOPC   H8R21787   2.415   5.598   3.737  1.1458 -0.8829  0.9057
  178DOPC   H8S21788   2.437   5.771   3.762  1.3886  0.5280  1.4383
  178DOPC   C2921789   2.561   5.645   3.890 -0.2946  0.0032  0.7778
  178DOPC   H9R21790   2.573   5.538   3.915 -0.3163  0.5101  3.2387
  178DOPC  C21021791   2.587   5.730   3.995 -0.9701 -0.0520  0.6865
  178DOPC  H10R21792   2.642   5.687   4.080 -1.9746 -0.8205  0.9680
  178DOPC  C21121793   2.568   5.880   3.998  0.3036 -1.0054 -0.2200
  178DOPC  H11R21794   2.517   5.923   3.909  3.2228  0.4636 -1.3196
  178DOPC  H11S21795   2.668   5.928   4.000 -0.6273  1.1398 -1.7532
  178DOPC  C21221796   2.507   5.931   4.130 -0.7654  0.3306 -0.0374
  178DOPC  H12R21797   2.409   5.882   4.149 -0.9722  0.1089 -1.5143
  178DOPC  H12S21798   2.494   6.039   4.108 -0.0165  0.0925 -1.8456
  178DOPC  C21321799   2.588   5.929   4.260 -0.4026 -0.4228 -0.1858
  178DOPC  H13R21800   2.686   5.979   4.240  0.1826 -2.1846 -2.1252
  178DOPC  H13S21801   2.620   5.826   4.286 -1.1825 -0.4494  0.7261
  178DOPC  C21421802   2.497   5.988   4.367  0.2625 -0.1151 -0.5994
  178DOPC  H14R21803   2.408   5.923   4.379 -1.1952  1.7416 -0.8693
  178DOPC  H14S21804   2.457   6.092   4.361  0.8288  0.1662  0.3216
  178DOPC  C21521805   2.568   5.994   4.507 -0.0494 -0.2166 -0.1437
  178DOPC  H15R21806   2.658   6.059   4.506 -1.3397  1.6656 -2.1336
  178DOPC  H15S21807   2.586   5.891   4.547 -0.0772  0.4098  1.5796
  178DOPC  C21621808   2.483   6.061   4.620  0.0966 -0.2880  0.5659
  178DOPC  H16R21809   2.386   6.006   4.625  0.2413 -0.8881 -2.1446
  178DOPC  H16S21810   2.466   6.165   4.585  0.0747 -0.9030 -1.3543
  178DOPC  C21721811   2.564   6.064   4.754  0.4338  1.0126 -0.1530
  178DOPC  H17R21812   2.662   6.116   4.742  0.3864  1.3913  0.9851
  178DOPC  H17S21813   2.603   5.960   4.757  0.9610  1.1800 -0.7843
  178DOPC  C21821814   2.487   6.113   4.869  0.9568 -0.2277 -0.0869
  178DOPC  H18R21815   2.484   6.224   4.860 -4.2681 -0.0931 -0.1333
  178DOPC  H18S21816   2.522   6.083   4.970 -0.4961 -2.3511 -0.1351
  178DOPC  H18T21817   2.379   6.087   4.857  0.6947  0.6562  0.2248
  178DOPC   C3321818   2.872   6.424   3.131  0.4274  0.0912 -0.2961
  178DOPC   H3X21819   2.887   6.512   3.065  1.0832  0.5823  0.4939
  178DOPC   H3Y21820   2.972   6.386   3.159 -0.3076 -2.9347 -1.4214
  178DOPC   C3421821   2.800   6.469   3.266  0.2876  0.1435  0.5325
  178DOPC   H4X21822   2.753   6.392   3.329 -0.8549  1.1704  0.9788
  178DOPC   H4Y21823   2.724   6.543   3.233  0.0584 -0.8370 -1.2760
  178DOPC   C3521824   2.885   6.549   3.363  0.0605  0.2391  0.5477
  178DOPC   H5X21825   2.939   6.617   3.293 -1.6820  0.6983 -0.4262
  178DOPC   H5Y21826   2.960   6.481   3.408 -0.4980 -0.8263 -0.0693
  178DOPC   C3621827   2.797   6.638   3.462 -0.2979 -0.2906 -1.0060
  178DOPC   H6X21828   2.851   6.729   3.495 -2.4033  0.0936  1.8054
  178DOPC   H6Y21829   2.712   6.682   3.405  0.6794 -0.6544 -2.8217
  178DOPC   C3721830   2.754   6.549   3.579 -0.6614 -0.6815  0.4787
  178DOPC   H7X21831   2.706   6.456   3.539 -1.6208 -0.0635  0.1486
  178DOPC   H7Y21832   2.840   6.514   3.640  0.5176 -1.7325 -1.6895
  178DOPC   C3821833   2.654   6.620   3.679 -0.2179  0.4066  0.1889
  178DOPC   H8X21834   2.705   6.709   3.720 -0.5027  0.5123  0.3229
  178DOPC   H8Y21835   2.638   6.553   3.767 -2.6782 -0.8097 -1.0799
  178DOPC   C3921836   2.522   6.657   3.605  0.2543  0.2827 -0.1386
  178DOPC   H9X21837   2.518   6.635   3.497 -0.2358 -1.4793  0.2039
  178DOPC  C31021838   2.408   6.704   3.667  0.1084 -0.4443 -0.1420
  178DOPC  H10X21839   2.323   6.725   3.600  0.6839  0.1088 -0.7214
  178DOPC  C31121840   2.382   6.717   3.811  0.2070  0.2840 -0.0340
  178DOPC  H11X21841   2.466   6.685   3.877 -0.7945 -0.8228  0.7443
  178DOPC  H11Y21842   2.311   6.640   3.846  1.7166 -0.7547  0.8731
  178DOPC  C31221843   2.350   6.859   3.860  0.0537  0.0371 -0.2270
  178DOPC  H12X21844   2.252   6.890   3.816 -1.1264 -2.9804  0.0298
  178DOPC  H12Y21845   2.422   6.937   3.828  0.8604 -0.6948 -0.2090
  178DOPC  C31321846   2.331   6.879   4.008 -0.0029 -0.1984 -0.7759
  178DOPC  H13X21847   2.423   6.842   4.058 -0.2295  2.7116  2.1112
  178DOPC  H13Y21848   2.330   6.987   4.035 -1.0584 -0.4641  0.3111
  178DOPC  C31421849   2.214   6.801   4.066 -0.1100 -0.0764 -0.5238
  178DOPC  H14X21850   2.119   6.816   4.010  0.4976  1.7412 -1.1263
  178DOPC  H14Y21851   2.236   6.692   4.077 -0.6203 -0.0984  0.3457
  178DOPC  C31521852   2.182   6.859   4.208  0.3435 -0.3781 -0.1468
  178DOPC  H15X21853   2.095   6.805   4.250 -0.4502 -1.6827 -3.1774
  178DOPC  H15Y21854   2.149   6.963   4.187 -0.1828 -0.0984  1.8598
  178DOPC  C31621855   2.298   6.839   4.305  0.2496  0.3662  0.0635
  178DOPC  H16X21856   2.342   6.739   4.284  0.5316  0.3757  0.5901
  178DOPC  H16Y21857   2.378   6.908   4.271  0.3181 -0.3186 -1.2248
  178DOPC  C31721858   2.256   6.859   4.450  0.2862 -0.8612  0.6531
  178DOPC  H17X21859   2.209   6.959   4.450 -0.7313 -1.2245 -2.5590
  178DOPC  H17Y21860   2.178   6.783   4.473  1.2627 -2.8241 -1.9589
  178DOPC  C31821861   2.369   6.842   4.550 -0.0568  0.0855 -0.7056
  178DOPC  H18X21862   2.336   6.839   4.656 -0.2500  1.9072 -0.6841
  178DOPC  H18Y21863   2.434   6.757   4.522  2.2356  1.3897  0.3342
  178DOPC  H18Z21864   2.429   6.936   4.552  0.3680 -0.1854  1.1722
  179DOPC     N21865   0.323   5.992   1.873 -0.8942 -0.7282  0.5569
  179DOPC   C1221866   0.275   5.924   1.991 -0.0688 -0.1351 -0.5291
  179DOPC  H12A21867   0.358   5.892   2.052  1.9929  3.0526 -1.4221
  179DOPC  H12B21868   0.225   5.832   1.963  1.0326 -1.4831  1.5834
  179DOPC   C1321869   0.377   6.130   1.901 -0.0840 -0.2446 -0.0904
  179DOPC  H13A21870   0.460   6.131   1.969 -1.4755  2.6706  1.7363
  179DOPC  H13B21871   0.417   6.172   1.810 -2.1748 -1.3329 -1.5842
  179DOPC  H13C21872   0.296   6.194   1.932  0.2293 -0.8025  2.0557
  179DOPC   C1421873   0.218   6.004   1.768 -0.4709  0.0747  0.4749
  179DOPC  H14A21874   0.260   6.056   1.683 -0.6054 -1.4086 -0.5561
  179DOPC  H14B21875   0.179   5.907   1.739  0.5807  0.0754 -1.0391
  179DOPC  H14C21876   0.141   6.069   1.807  0.3564  0.5187  1.4057
  179DOPC   C1521877   0.440   5.911   1.809  0.7581  0.9637 -0.1554
  179DOPC  H15A21878   0.521   5.896   1.878 -1.3364  0.0760  2.2826
  179DOPC  H15B21879   0.483   5.961   1.723  0.0355 -0.7978 -1.6201
  179DOPC  H15C21880   0.401   5.814   1.779  0.5328  0.8726  0.4233
  179DOPC   C1121881   0.171   6.004   2.085 -0.4478  0.2485  0.6637
  179DOPC  H11A21882   0.160   5.940   2.175  0.9771  0.7836  1.2434
  179DOPC  H11B21883   0.236   6.089   2.113  0.2783  0.7227 -2.1136
  179DOPC     P21884  -0.065   5.936   2.034  0.0516 -0.2030 -0.1234
  179DOPC   O1321885  -0.025   5.792   2.040 -0.8060 -0.1415  0.0801
  179DOPC   O1421886  -0.168   5.979   1.936 -0.3377 -0.2149 -0.3771
  179DOPC   O1221887   0.053   6.031   2.009 -0.0446 -0.4836 -0.3661
  179DOPC   O1121888  -0.095   5.992   2.178  0.4687  0.0433 -0.0521
  179DOPC    C121889  -0.217   5.984   2.260  0.1457  0.0976 -0.1077
  179DOPC    HA21890  -0.294   5.925   2.207  0.7446  0.1076 -1.0066
  179DOPC    HB21891  -0.257   6.084   2.286 -0.8147 -0.6898  1.6629
  179DOPC    C221892  -0.192   5.909   2.390  0.8678  0.4089 -0.3901
  179DOPC    HS21893  -0.270   5.920   2.468 -0.5714  1.4202 -1.9008
  179DOPC   O2121894  -0.069   5.953   2.443 -0.4449 -0.0964 -0.7409
  179DOPC   C2121895  -0.069   6.077   2.506  0.4564 -0.5180  0.0995
  179DOPC   O2221896  -0.162   6.156   2.511 -0.7412 -0.0054  0.3982
  179DOPC   C2221897   0.062   6.092   2.579  0.2577 -0.0040 -0.4762
  179DOPC   H2R21898   0.137   6.108   2.498  1.1654  1.0088  0.5240
  179DOPC   H2S21899   0.091   5.995   2.624  0.6137 -0.2080 -1.1316
  179DOPC    C321900  -0.173   5.754   2.366  0.8545  0.0638  0.4754
  179DOPC    HX21901  -0.090   5.735   2.294  0.0868  1.3701 -0.8015
  179DOPC    HY21902  -0.267   5.721   2.317  0.7691 -1.3149  1.5194
  179DOPC   O3121903  -0.173   5.672   2.476  0.0258 -0.1631 -0.2257
  179DOPC   C3121904  -0.065   5.596   2.496  1.0356 -0.5396 -0.1798
  179DOPC   O3221905   0.033   5.592   2.429 -0.2956 -0.1532 -0.0818
  179DOPC   C3221906  -0.086   5.506   2.625 -0.0015  0.4626  0.1548
  179DOPC   H2X21907  -0.179   5.540   2.676 -1.2316 -1.4941 -0.6856
  179DOPC   H2Y21908  -0.096   5.408   2.574  0.3839  1.5707 -2.1797
  179DOPC   C2321909   0.083   6.212   2.673  0.8612 -0.6675  0.2532
  179DOPC   H3R21910   0.034   6.189   2.770  1.4553 -1.4278  0.3844
  179DOPC   H3S21911   0.039   6.302   2.625 -0.2741 -0.2241  2.0042
  179DOPC   C2421912   0.229   6.252   2.697  0.4179  0.4844  0.6551
  179DOPC   H4R21913   0.275   6.268   2.598  0.5361  0.2563  0.6710
  179DOPC   H4S21914   0.279   6.160   2.736  1.0716  0.7634  0.4889
  179DOPC   C2521915   0.241   6.367   2.798 -0.0469 -0.4120 -0.2171
  179DOPC   H5R21916   0.175   6.351   2.886  0.1835  0.3972  0.1082
  179DOPC   H5S21917   0.189   6.454   2.752  1.8783  1.1847  0.4842
  179DOPC   C2621918   0.387   6.407   2.833  0.1608  0.5230 -0.1086
  179DOPC   H6R21919   0.384   6.509   2.877  0.6169  0.8870 -0.8955
  179DOPC   H6S21920   0.447   6.419   2.740  1.8937 -0.2143  0.8708
  179DOPC   C2721921   0.455   6.298   2.923 -0.6844 -0.5554 -0.5986
  179DOPC   H7R21922   0.456   6.203   2.866  0.4562 -0.6873 -0.3720
  179DOPC   H7S21923   0.399   6.289   3.019  0.2596 -1.7024 -0.1316
  179DOPC   C2821924   0.602   6.355   2.966 -0.5222  0.2869 -0.4493
  179DOPC   H8R21925   0.587   6.436   3.040 -1.6570  0.7798 -1.1917
  179DOPC   H8S21926   0.649   6.399   2.875 -0.6852  3.6251  0.9259
  179DOPC   C2921927   0.695   6.247   3.030  0.3206  0.0056 -0.0313
  179DOPC   H9R21928   0.772   6.207   2.962  1.2109  0.7926  0.4924
  179DOPC  C21021929   0.668   6.186   3.146 -0.2474  0.0726 -0.3569
  179DOPC  H10R21930   0.730   6.105   3.187 -1.0236 -0.3003  0.1025
  179DOPC  C21121931   0.557   6.216   3.245 -0.3769 -0.4178  0.0871
  179DOPC  H11R21932   0.487   6.130   3.252  0.8610 -1.7371 -2.2706
  179DOPC  H11S21933   0.499   6.305   3.213 -0.1619 -0.5584 -0.7133
  179DOPC  C21221934   0.607   6.247   3.389  0.6798  0.0789  0.1921
  179DOPC  H12R21935   0.626   6.356   3.394 -1.3312  0.5779 -1.5311
  179DOPC  H12S21936   0.699   6.186   3.402 -0.5855 -1.8181  0.5445
  179DOPC  C21321937   0.502   6.216   3.489 -0.1270 -0.2758 -0.4107
  179DOPC  H13R21938   0.465   6.111   3.482  1.6237 -0.8580 -1.4989
  179DOPC  H13S21939   0.421   6.291   3.482  0.5003  0.3375 -1.2267
  179DOPC  C21421940   0.561   6.236   3.628  0.3031  0.6217  0.0558
  179DOPC  H14R21941   0.613   6.334   3.632  1.0298  0.3532 -1.9000
  179DOPC  H14S21942   0.636   6.154   3.634 -0.5638 -0.1294  1.3546
  179DOPC  C21521943   0.473   6.223   3.753  0.3680  0.0972  0.5702
  179DOPC  H15R21944   0.439   6.118   3.761  1.3716 -0.3232 -0.4974
  179DOPC  H15S21945   0.382   6.287   3.746 -0.4092 -1.0744 -0.3029
  179DOPC  C21621946   0.550   6.250   3.882 -0.4617 -0.5241  0.2328
  179DOPC  H16R21947   0.588   6.354   3.884  1.6049 -1.1686 -1.4026
  179DOPC  H16S21948   0.646   6.194   3.883 -0.9174 -1.3278  0.5049
  179DOPC  C21721949   0.475   6.208   4.010 -0.1255  0.4066 -0.7524
  179DOPC  H17R21950   0.427   6.110   3.992 -1.1935  1.0163 -1.3789
  179DOPC  H17S21951   0.401   6.288   4.033 -0.4924  0.2209 -1.2621
  179DOPC  C21821952   0.582   6.206   4.126  0.5848 -0.0767  0.7558
  179DOPC  H18R21953   0.630   6.307   4.131 -0.4445  0.5591 -1.1177
  179DOPC  H18S21954   0.657   6.127   4.103  1.1504  0.5851  0.2547
  179DOPC  H18T21955   0.527   6.160   4.210 -0.6849 -1.3583 -0.7033
  179DOPC   C3321956   0.034   5.507   2.718  0.7343  0.1329 -0.5359
  179DOPC   H3X21957   0.124   5.514   2.653  1.5976 -0.1581  0.5985
  179DOPC   H3Y21958   0.056   5.409   2.764 -0.8473 -0.6408 -1.3744
  179DOPC   C3421959   0.051   5.621   2.812 -0.7831  0.4059 -0.4224
  179DOPC   H4X21960  -0.014   5.613   2.902  1.1642  3.0764  1.3897
  179DOPC   H4Y21961   0.014   5.711   2.757  0.9201  1.1090 -0.4687
  179DOPC   C3521962   0.191   5.645   2.853 -0.2756 -0.0526  0.4556
  179DOPC   H5X21963   0.257   5.670   2.767  1.5726  0.1279  1.8601
  179DOPC   H5Y21964   0.230   5.552   2.900 -0.5935 -0.9006 -0.9024
  179DOPC   C3621965   0.209   5.764   2.952  0.4133  0.2191 -0.2712
  179DOPC   H6X21966   0.114   5.821   2.959 -0.0392 -0.7300  1.9320
  179DOPC   H6Y21967   0.230   5.714   3.049  1.3431  1.3299  0.1320
  179DOPC   C3721968   0.318   5.867   2.913 -0.2350  0.2829  0.3800
  179DOPC   H7X21969   0.414   5.818   2.890  0.2897  1.4011  0.1100
  179DOPC   H7Y21970   0.276   5.923   2.826 -0.6811  0.0053  0.4097
  179DOPC   C3821971   0.348   5.969   3.021  0.1793  0.3634 -0.7624
  179DOPC   H8X21972   0.447   6.016   3.001  0.8651  1.7257  4.2969
  179DOPC   H8Y21973   0.370   5.907   3.110  2.3994 -0.7692 -2.0194
  179DOPC   C3921974   0.233   6.065   3.045 -0.4387 -0.2176 -0.2058
  179DOPC   H9X21975   0.194   6.114   2.954 -1.8851  0.7536  0.8811
  179DOPC  C31021976   0.176   6.098   3.163 -0.6484  0.7287 -0.1999
  179DOPC  H10X21977   0.106   6.182   3.173 -2.1625 -0.5864  0.8830
  179DOPC  C31121978   0.208   6.035   3.301 -0.7254  0.1557  0.2448
  179DOPC  H11X21979   0.237   6.109   3.379 -0.9576  1.5270 -0.9205
  179DOPC  H11Y21980   0.295   5.966   3.305 -0.4798  0.4832  0.6693
  179DOPC  C31221981   0.077   5.962   3.348 -0.5961 -0.0793  0.4236
  179DOPC  H12X21982   0.003   6.040   3.376 -0.5739  0.2508 -0.4340
  179DOPC  H12Y21983   0.105   5.916   3.445  1.1491 -0.5089 -0.2488
  179DOPC  C31321984   0.020   5.869   3.244 -0.1551  0.4232 -0.5789
  179DOPC  H13X21985  -0.029   5.938   3.172 -0.2082  1.6708  0.6016
  179DOPC  H13Y21986   0.102   5.809   3.200 -0.9197 -0.0513 -1.3921
  179DOPC  C31421987  -0.091   5.781   3.296 -0.0293 -0.6489  0.4007
  179DOPC  H14X21988  -0.046   5.717   3.375  0.9386  1.5013  1.6890
  179DOPC  H14Y21989  -0.167   5.840   3.351  0.4655 -0.0537  0.4490
  179DOPC  C31521990  -0.149   5.692   3.183 -0.3841  0.7150 -0.0967
  179DOPC  H15X21991  -0.138   5.754   3.091  0.0928  2.5246  1.1268
  179DOPC  H15Y21992  -0.259   5.690   3.201 -1.1874  0.9292 -4.1099
  179DOPC  C31621993  -0.091   5.543   3.180  0.0733 -0.0633 -0.0687
  179DOPC  H16X21994   0.017   5.553   3.156  0.1975 -0.3435  0.3685
  179DOPC  H16Y21995  -0.099   5.509   3.285 -0.8437  0.4495  0.0373
  179DOPC  C31721996  -0.173   5.457   3.088 -0.1584 -0.5857 -0.4753
  179DOPC  H17X21997  -0.255   5.418   3.151 -0.2392 -0.6975 -0.6487
  179DOPC  H17Y21998  -0.214   5.500   2.994  1.8521  0.7432 -0.8049
  179DOPC  C31821999  -0.098   5.322   3.054 -0.0245  0.1549 -0.1185
  179DOPC  H18X22000  -0.013   5.342   2.984  0.1610  0.1690  0.1116
  179DOPC  H18Y22001  -0.071   5.272   3.149  1.2937  5.1671  2.5128
  179DOPC  H18Z22002  -0.165   5.251   3.000  0.1616 -0.4189  0.3924
  180DOPC     N22003   6.828   3.878   1.933 -0.5835 -0.0550  0.0915
  180DOPC   C1222004   6.896   3.964   2.033  0.1153 -0.0617 -0.4711
  180DOPC  H12A22005   6.960   4.042   1.995  0.8383 -0.6402 -0.4670
  180DOPC  H12B22006   6.972   3.905   2.081  1.0396  2.2667  1.1189
  180DOPC   C1322007   6.805   3.734   1.981 -0.8661  0.5726 -0.3993
  180DOPC  H13A22008   6.754   3.684   1.900  1.2606 -0.7427 -1.0186
  180DOPC  H13B22009   6.900   3.683   1.987 -1.0960  0.0389 -1.2836
  180DOPC  H13C22010   6.741   3.717   2.067  1.8980  0.5225  1.7934
  180DOPC   C1422011   6.919   3.854   1.816 -0.7830 -0.1629 -0.1654
  180DOPC  H14A22012   6.935   3.940   1.753  1.3982  0.0289  0.5582
  180DOPC  H14B22013   7.015   3.813   1.844 -0.3163 -0.9398 -2.6785
  180DOPC  H14C22014   6.862   3.788   1.752 -0.3251  0.2353 -0.9913
  180DOPC   C1522015   6.702   3.942   1.886  0.2949 -0.3340  0.3612
  180DOPC  H15A22016   6.637   3.965   1.969 -0.9059 -0.3252 -0.5582
  180DOPC  H15B22017   6.650   3.872   1.823  0.5839 -0.0285 -0.2297
  180DOPC  H15C22018   6.718   4.032   1.828 -0.5813 -0.8154 -0.6585
  180DOPC   C1122019   6.804   4.021   2.138  0.3764  0.6414  0.0498
  180DOPC  H11A22020   6.854   4.082   2.217 -0.8542  1.5564  0.1411
  180DOPC  H11B22021   6.724   4.086   2.098  0.7026  1.2334  0.3305
  180DOPC     P22022   6.602   3.910   2.275 -0.0797 -0.1335 -0.0741
  180DOPC   O1322023   6.543   3.783   2.230  0.6442 -0.1585  0.2601
  180DOPC   O1422024   6.529   4.036   2.249  0.3654  0.4812  0.2104
  180DOPC   O1222025   6.750   3.911   2.221  0.1030 -0.2507  0.6308
  180DOPC   O1122026   6.628   3.905   2.426 -0.0051  0.9139 -0.1562
  180DOPC    C122027   6.750   3.864   2.489 -0.7718  0.5205 -0.3744
  180DOPC    HA22028   6.742   3.861   2.600 -0.8888  1.2684 -0.3576
  180DOPC    HB22029   6.834   3.929   2.459  1.0229 -1.2245  0.5896
  180DOPC    C222030   6.794   3.712   2.462 -0.2717 -0.5764 -0.0940
  180DOPC    HS22031   6.816   3.698   2.354  2.4323 -0.4208  0.3694
  180DOPC   O2122032   6.682   3.636   2.505 -0.4101 -0.3736  0.1090
  180DOPC   C2122033   6.693   3.503   2.477  0.0865  0.3586  0.4256
  180DOPC   O2222034   6.780   3.451   2.416 -0.6532 -0.3197  0.1209
  180DOPC   C2222035   6.576   3.425   2.540 -0.2867 -0.6534  0.2163
  180DOPC   H2R22036   6.523   3.382   2.452 -2.4806  0.1780  1.0595
  180DOPC   H2S22037   6.504   3.498   2.581  0.7132  1.6783 -1.9063
  180DOPC    C322038   6.924   3.684   2.536 -0.4608  0.4436 -0.5132
  180DOPC    HX22039   7.003   3.752   2.498  1.2120  0.3885  2.5644
  180DOPC    HY22040   6.950   3.579   2.509 -5.8565 -0.9564 -1.5061
  180DOPC   O3122041   6.911   3.699   2.681  0.1465  0.3586 -0.6168
  180DOPC   C3122042   7.022   3.749   2.741  0.4927 -0.1671 -0.2751
  180DOPC   O3222043   7.128   3.761   2.688 -0.2648  0.7817 -0.6111
  180DOPC   C3222044   6.986   3.776   2.890  0.4120  0.3387  0.1224
  180DOPC   H2X22045   7.013   3.682   2.943 -3.7215 -0.7398  0.6682
  180DOPC   H2Y22046   7.040   3.858   2.941 -0.1884  0.9669 -0.2443
  180DOPC   C2322047   6.613   3.309   2.638 -0.6134  0.0919  0.1335
  180DOPC   H3R22048   6.654   3.232   2.569 -0.2270 -0.8927  1.4221
  180DOPC   H3S22049   6.517   3.275   2.683 -1.7885  2.0390 -0.7325
  180DOPC   C2422050   6.704   3.352   2.754  0.0430 -0.2698 -0.2051
  180DOPC   H4R22051   6.795   3.400   2.710 -1.2836  1.2541 -1.4275
  180DOPC   H4S22052   6.725   3.270   2.825 -0.3151 -0.3650 -0.2114
  180DOPC   C2522053   6.640   3.465   2.844 -0.5247  0.6585  0.1750
  180DOPC   H5R22054   6.622   3.557   2.784  1.9303  2.3813  1.8429
  180DOPC   H5S22055   6.717   3.502   2.916 -1.2819  1.6305  0.5025
  180DOPC   C2622056   6.514   3.403   2.915  0.2176 -0.5135 -0.1927
  180DOPC   H6R22057   6.541   3.297   2.936 -1.8709 -1.0903 -0.2400
  180DOPC   H6S22058   6.429   3.401   2.844 -0.8172  0.9699  0.9551
  180DOPC   C2722059   6.477   3.477   3.039  0.2381 -0.8891 -0.0049
  180DOPC   H7R22060   6.454   3.580   3.007 -0.3719 -1.3669 -1.1408
  180DOPC   H7S22061   6.556   3.482   3.117  0.2122  2.4560 -0.0844
  180DOPC   C2822062   6.355   3.413   3.104 -0.3328 -0.3703 -0.1027
  180DOPC   H8R22063   6.281   3.418   3.022  0.3133  1.4243 -0.6168
  180DOPC   H8S22064   6.322   3.474   3.191  0.0138  0.5537 -0.6043
  180DOPC   C2922065   6.385   3.278   3.145  0.4349 -0.2183  0.1261
  180DOPC   H9R22066   6.426   3.213   3.067  3.2806  0.5440  0.8409
  180DOPC  C21022067   6.366   3.226   3.269 -0.1120  0.8340 -0.4478
  180DOPC  H10R22068   6.394   3.121   3.280 -1.6183  0.3957 -0.5228
  180DOPC  C21122069   6.319   3.296   3.394 -0.5873  0.3705 -0.5464
  180DOPC  H11R22070   6.298   3.405   3.383  2.6345  1.1629  0.0955
  180DOPC  H11S22071   6.401   3.293   3.469 -1.1524  1.3308  0.1326
  180DOPC  C21222072   6.194   3.227   3.464 -0.1685 -0.1701 -0.4524
  180DOPC  H12R22073   6.211   3.120   3.488  1.7225  0.0111 -0.7640
  180DOPC  H12S22074   6.113   3.234   3.388  0.1491  0.8501 -0.7152
  180DOPC  C21322075   6.147   3.306   3.586  0.1168 -0.5438  0.6688
  180DOPC  H13R22076   6.047   3.269   3.620 -0.7855 -0.4900 -1.7552
  180DOPC  H13S22077   6.129   3.408   3.547  2.3152 -0.7273 -0.9782
  180DOPC  C21422078   6.239   3.302   3.707 -0.4404 -0.0958  0.4740
  180DOPC  H14R22079   6.337   3.336   3.665 -0.0085 -2.1818 -0.3206
  180DOPC  H14S22080   6.239   3.198   3.745  1.5762  0.1147  1.1516
  180DOPC  C21522081   6.184   3.406   3.808  0.1470 -0.0725 -0.2884
  180DOPC  H15R22082   6.098   3.355   3.857 -1.3585 -0.7314 -3.3886
  180DOPC  H15S22083   6.138   3.493   3.756 -0.1286 -0.9110 -1.5051
  180DOPC  C21622084   6.289   3.448   3.906 -0.7121 -0.1000  0.1255
  180DOPC  H16R22085   6.248   3.520   3.981  0.3955 -2.0025  2.6805
  180DOPC  H16S22086   6.369   3.504   3.854  0.3824  1.1811  2.9476
  180DOPC  C21722087   6.348   3.333   3.991  0.4993  0.0517  0.3114
  180DOPC  H17R22088   6.427   3.283   3.931  0.1750 -0.2426  0.1180
  180DOPC  H17S22089   6.266   3.264   4.021  0.5832  0.7199  2.2184
  180DOPC  C21822090   6.425   3.378   4.117 -0.2685  0.1349 -0.1239
  180DOPC  H18R22091   6.368   3.460   4.168  0.1496  0.3211  0.0484
  180DOPC  H18S22092   6.519   3.425   4.083  0.0620  0.4403  1.1593
  180DOPC  H18T22093   6.451   3.295   4.185  0.4254  0.9843  0.6760
  180DOPC   C3322094   6.838   3.801   2.928  0.7398  0.2371 -0.4107
  180DOPC   H3X22095   6.820   3.779   3.035 -0.2836  0.1282 -0.5891
  180DOPC   H3Y22096   6.775   3.729   2.871  0.4668  0.1634 -0.0175
  180DOPC   C3422097   6.804   3.946   2.903 -0.1837 -0.1037 -0.0261
  180DOPC   H4X22098   6.838   3.980   2.803  1.2056 -2.1895 -0.3241
  180DOPC   H4Y22099   6.865   4.002   2.977 -0.1563 -0.5239  0.2772
  180DOPC   C3522100   6.652   3.987   2.926 -0.2887  0.4964 -0.3486
  180DOPC   H5X22101   6.645   4.011   3.034  1.2295  1.4445 -0.4324
  180DOPC   H5Y22102   6.585   3.902   2.899 -0.4787  0.3188  0.6549
  180DOPC   C3622103   6.608   4.104   2.837  0.2056  0.5113  0.7548
  180DOPC   H6X22104   6.664   4.090   2.742 -2.6216 -1.7923 -0.7451
  180DOPC   H6Y22105   6.504   4.072   2.816  0.3763  0.3053  0.2001
  180DOPC   C3722106   6.628   4.251   2.885 -0.1262  0.0065 -0.3870
  180DOPC   H7X22107   6.731   4.270   2.923 -0.3954  1.3463 -0.2776
  180DOPC   H7Y22108   6.600   4.309   2.795  0.4749 -0.2447 -0.7389
  180DOPC   C3822109   6.534   4.288   3.002  0.1068 -0.5997 -0.0162
  180DOPC   H8X22110   6.560   4.396   3.014  1.8128 -0.9766 -0.0148
  180DOPC   H8Y22111   6.568   4.230   3.090 -0.5787 -2.2918 -0.8286
  180DOPC   C3922112   6.384   4.255   2.978  0.2456 -0.1924 -0.4444
  180DOPC   H9X22113   6.361   4.148   2.967  0.6032 -0.3704  0.4576
  180DOPC  C31022114   6.284   4.347   2.965  0.0313  0.0114 -0.0156
  180DOPC  H10X22115   6.180   4.314   2.954  0.3893 -0.8335 -1.0258
  180DOPC  C31122116   6.297   4.498   2.986  0.0002  0.6786 -0.6654
  180DOPC  H11X22117   6.201   4.548   2.964  0.5414  1.4140 -1.4144
  180DOPC  H11Y22118   6.374   4.536   2.915  1.8307 -0.3677  0.6373
  180DOPC  C31222119   6.345   4.531   3.134 -0.1341  0.3237  0.0182
  180DOPC  H12X22120   6.428   4.465   3.164 -0.9664 -1.7774 -1.9915
  180DOPC  H12Y22121   6.262   4.501   3.202  0.7474 -1.1375  0.4680
  180DOPC  C31322122   6.364   4.675   3.168 -0.0770  0.5365  0.6688
  180DOPC  H13X22123   6.407   4.737   3.087 -1.0639  0.4387  0.0585
  180DOPC  H13Y22124   6.270   4.723   3.201 -0.1299 -1.5755  4.1384
  180DOPC  C31422125   6.463   4.698   3.281 -0.2608  0.5730  0.8876
  180DOPC  H14X22126   6.452   4.633   3.370 -1.6086  0.5551  0.7220
  180DOPC  H14Y22127   6.563   4.659   3.251 -0.0954 -0.5153  2.7338
  180DOPC  C31522128   6.464   4.842   3.323 -0.1772  0.9968  0.4102
  180DOPC  H15X22129   6.371   4.846   3.384  0.5329  1.2186  1.5116
  180DOPC  H15Y22130   6.460   4.910   3.236 -3.6824  1.9611  1.1773
  180DOPC  C31622131   6.571   4.875   3.430  0.3331  0.6046 -0.1889
  180DOPC  H16X22132   6.560   4.985   3.435 -2.0669  0.3471  3.3176
  180DOPC  H16Y22133   6.549   4.832   3.530  1.3572  0.6227  0.0555
  180DOPC  C31722134   6.716   4.831   3.386  0.5594 -0.2962 -0.6327
  180DOPC  H17X22135   6.717   4.720   3.384 -0.1990 -0.4718  2.9257
  180DOPC  H17Y22136   6.734   4.864   3.281  0.5920 -2.1760 -1.2490
  180DOPC  C31822137   6.820   4.876   3.495 -0.2309 -0.1093 -0.7164
  180DOPC  H18X22138   6.923   4.843   3.468  0.2562  1.3866 -0.7791
  180DOPC  H18Y22139   6.825   4.986   3.506 -1.2822  0.0365 -1.5550
  180DOPC  H18Z22140   6.797   4.849   3.600 -1.0558 -0.8291 -1.0710
  181DOPC     N22141   1.177   4.135   1.945  0.3861  0.6490 -0.2070
  181DOPC   C1222142   1.247   4.035   2.036  0.1087  0.8591  0.9551
  181DOPC  H12A22143   1.284   4.077   2.128  3.0152 -0.8688  0.6924
  181DOPC  H12B22144   1.334   3.995   1.985 -0.3075 -0.2580  1.0918
  181DOPC   C1322145   1.118   4.061   1.822 -0.2438 -0.1360  0.2279
  181DOPC  H13A22146   1.044   3.985   1.843  0.0797 -1.1413 -1.9422
  181DOPC  H13B22147   1.083   4.134   1.750  1.1085 -0.9675 -1.3228
  181DOPC  H13C22148   1.198   4.012   1.770  0.8857  1.2103  0.6416
  181DOPC   C1422149   1.273   4.236   1.899 -0.4454 -0.2463  0.0542
  181DOPC  H14A22150   1.231   4.290   1.815 -0.6664 -0.0484  0.2881
  181DOPC  H14B22151   1.291   4.311   1.975  0.7369 -1.5934  1.1616
  181DOPC  H14C22152   1.361   4.190   1.856 -1.2851 -0.1603 -1.8096
  181DOPC   C1522153   1.060   4.207   2.014  0.8379  0.4518 -0.0899
  181DOPC  H15A22154   0.994   4.250   1.939 -0.0767 -0.1247  0.3733
  181DOPC  H15B22155   1.087   4.286   2.082 -0.5682  1.6206 -0.8236
  181DOPC  H15C22156   0.994   4.137   2.063 -0.1874  1.6188  0.2493
  181DOPC   C1122157   1.173   3.910   2.090 -0.1867  0.3115  0.2051
  181DOPC  H11A22158   1.133   3.847   2.007  2.9969  0.5000 -1.6229
  181DOPC  H11B22159   1.245   3.843   2.142  0.3322  0.3392 -0.4691
  181DOPC     P22160   1.100   3.996   2.328  0.5807 -0.0928 -0.0832
  181DOPC   O1322161   0.968   4.024   2.394 -0.9513 -0.0412  0.6054
  181DOPC   O1422162   1.190   4.111   2.313 -0.7733  0.2981  0.2956
  181DOPC   O1222163   1.068   3.939   2.185 -0.4334 -1.0800 -0.1195
  181DOPC   O1122164   1.168   3.875   2.401  0.3724  0.3532 -0.6708
  181DOPC    C122165   1.090   3.765   2.450 -0.0635  0.0322 -0.2319
  181DOPC    HA22166   1.121   3.665   2.412 -2.9602 -0.7635 -0.7566
  181DOPC    HB22167   0.988   3.774   2.407  1.5472  2.0046 -4.0985
  181DOPC    C222168   1.079   3.762   2.603  0.2282 -0.3602  0.4568
  181DOPC    HS22169   1.042   3.660   2.628  2.2568 -1.5871 -1.2807
  181DOPC   O2122170   0.995   3.866   2.650  1.0673  0.1746 -0.2214
  181DOPC   C2122171   0.860   3.837   2.652  0.8081  0.3400  0.0751
  181DOPC   O2222172   0.809   3.743   2.590 -0.1935  0.1424  0.1941
  181DOPC   C2222173   0.780   3.939   2.739 -0.6765 -0.3187 -0.0616
  181DOPC   H2R22174   0.734   4.012   2.669  0.6735  0.2080 -0.4326
  181DOPC   H2S22175   0.846   3.993   2.810  0.3865 -0.5267 -0.8673
  181DOPC    C322176   1.217   3.766   2.667 -0.0093  0.2018  0.2052
  181DOPC    HX22177   1.263   3.857   2.622 -0.5877 -0.1222 -1.0838
  181DOPC    HY22178   1.285   3.685   2.632  4.0528  2.0731  2.9039
  181DOPC   O3122179   1.215   3.760   2.812 -0.1735 -0.0704  0.3012
  181DOPC   C3122180   1.327   3.811   2.873  0.6619 -0.9446  0.4582
  181DOPC   O3222181   1.425   3.868   2.817  0.3053 -0.2201 -0.2584
  181DOPC   C3222182   1.312   3.786   3.025 -0.7791  0.8532 -0.8071
  181DOPC   H2X22183   1.205   3.765   3.045  0.1930 -2.0772  2.3972
  181DOPC   H2Y22184   1.369   3.694   3.052 -1.3522  0.7741  0.1750
  181DOPC   C2322185   0.682   3.872   2.839 -0.5720 -0.0975  0.4959
  181DOPC   H3R22186   0.599   3.838   2.772 -0.7052 -3.1071  2.0205
  181DOPC   H3S22187   0.646   3.943   2.916  1.9192  1.8530 -0.0226
  181DOPC   C2422188   0.724   3.737   2.903 -0.5761 -0.6285 -0.5766
  181DOPC   H4R22189   0.742   3.656   2.829  0.2896 -0.0817 -0.9756
  181DOPC   H4S22190   0.640   3.700   2.966  0.3250 -1.9717 -0.1110
  181DOPC   C2522191   0.851   3.739   2.990  0.6607 -0.2758 -0.3674
  181DOPC   H5R22192   0.935   3.777   2.929  0.3754 -0.2953 -0.7714
  181DOPC   H5S22193   0.878   3.635   3.020  1.5783  0.4583  1.5607
  181DOPC   C2622194   0.835   3.833   3.111 -0.5727  0.2216  0.4595
  181DOPC   H6R22195   0.738   3.808   3.160 -0.2215 -1.2613  0.4466
  181DOPC   H6S22196   0.834   3.937   3.074  1.5410  0.3730  0.7254
  181DOPC   C2722197   0.954   3.827   3.220 -0.2352  0.3713  0.2561
  181DOPC   H7R22198   1.021   3.911   3.193 -1.4470  1.2060 -0.2177
  181DOPC   H7S22199   1.016   3.738   3.198 -0.3061 -0.2074  2.1874
  181DOPC   C2822200   0.910   3.811   3.363  0.2474 -0.3933  0.2603
  181DOPC   H8R22201   0.988   3.771   3.431 -0.3119 -0.2409  1.0062
  181DOPC   H8S22202   0.839   3.725   3.368  1.7361 -1.6468  0.9264
  181DOPC   C2922203   0.855   3.940   3.421  0.7649 -0.1393  0.4518
  181DOPC   H9R22204   0.912   4.030   3.392 -0.6554  0.1786 -1.5909
  181DOPC  C21022205   0.726   3.964   3.456  0.6057  0.0708 -0.6699
  181DOPC  H10R22206   0.695   4.062   3.497 -1.7391 -0.0269 -2.0530
  181DOPC  C21122207   0.608   3.874   3.472 -0.3960 -0.0727 -0.1249
  181DOPC  H11R22208   0.637   3.771   3.445  0.0807  0.7467 -3.1381
  181DOPC  H11S22209   0.537   3.911   3.395  0.6140 -0.7798 -1.4311
  181DOPC  C21222210   0.539   3.884   3.603 -0.7335 -0.4112 -0.3255
  181DOPC  H12R22211   0.449   3.950   3.595 -1.0628 -0.4635  2.1213
  181DOPC  H12S22212   0.605   3.925   3.682 -0.5607 -0.0600 -0.6516
  181DOPC  C21322213   0.475   3.754   3.651  0.5781  0.8115  0.6099
  181DOPC  H13R22214   0.402   3.726   3.572  1.6631  2.4504 -1.0191
  181DOPC  H13S22215   0.409   3.789   3.734 -0.6074  0.5888 -0.2019
  181DOPC  C21422216   0.577   3.645   3.700  0.0754  0.0581 -0.6826
  181DOPC  H14R22217   0.661   3.694   3.754 -0.6366 -0.5693  1.0717
  181DOPC  H14S22218   0.624   3.591   3.615  0.8989 -1.2731  0.5594
  181DOPC  C21522219   0.508   3.551   3.799  0.4609 -0.0373 -1.4370
  181DOPC  H15R22220   0.440   3.481   3.747 -1.9809  0.2524  1.1449
  181DOPC  H15S22221   0.438   3.613   3.857  2.0338  0.3998  0.0809
  181DOPC  C21622222   0.605   3.462   3.887 -0.0359  0.3736  0.0817
  181DOPC  H16R22223   0.679   3.540   3.912 -1.2464  2.1782 -1.6231
  181DOPC  H16S22224   0.655   3.383   3.827 -4.0475 -1.1046 -1.6568
  181DOPC  C21722225   0.545   3.402   4.013  0.3083  0.3257  0.0555
  181DOPC  H17R22226   0.495   3.309   3.978 -0.4847 -0.4580  3.0012
  181DOPC  H17S22227   0.459   3.466   4.043 -0.0305  1.0170 -2.1699
  181DOPC  C21822228   0.644   3.376   4.124  0.0095  0.4323  0.1504
  181DOPC  H18R22229   0.593   3.338   4.214  2.2423 -1.9511  0.5344
  181DOPC  H18S22230   0.685   3.471   4.164  0.3191 -0.9727  3.4343
  181DOPC  H18T22231   0.736   3.315   4.110  0.6618  1.0894  1.4076
  181DOPC   C3322232   1.372   3.900   3.112  0.4554 -0.5258  0.4237
  181DOPC   H3X22233   1.321   3.995   3.086 -0.8654 -1.1055  0.8251
  181DOPC   H3Y22234   1.482   3.901   3.093  0.6355  0.4522  1.4322
  181DOPC   C3422235   1.327   3.881   3.262  0.2737  0.4582 -0.3736
  181DOPC   H4X22236   1.386   3.799   3.307 -1.2431  0.5429  1.9139
  181DOPC   H4Y22237   1.221   3.850   3.262  0.6827 -1.1122  2.0036
  181DOPC   C3522238   1.344   4.014   3.328  0.0463 -0.4189 -1.4249
  181DOPC   H5X22239   1.297   4.093   3.266 -1.6548  0.5046  0.8857
  181DOPC   H5Y22240   1.451   4.044   3.333  1.1104 -3.8595 -0.7515
  181DOPC   C3622241   1.269   4.010   3.459  0.3214 -0.2705  0.7548
  181DOPC   H6X22242   1.160   3.998   3.441  0.1067  1.0820  1.0342
  181DOPC   H6Y22243   1.305   3.924   3.519 -4.9247 -1.7743  2.2694
  181DOPC   C3722244   1.278   4.148   3.529 -0.2583 -0.3459 -0.4039
  181DOPC   H7X22245   1.384   4.168   3.556  0.4565 -0.7431 -2.6468
  181DOPC   H7Y22246   1.253   4.222   3.450  0.7963  1.5422  0.9375
  181DOPC   C3822247   1.175   4.177   3.641 -0.0915  0.4955  0.6246
  181DOPC   H8X22248   1.072   4.158   3.606  0.3130 -1.5777  0.4329
  181DOPC   H8Y22249   1.190   4.284   3.668  1.8684  0.5247 -0.3670
  181DOPC   C3922250   1.225   4.095   3.758  0.5728  0.3839  0.2303
  181DOPC   H9X22251   1.320   4.130   3.801  0.7823 -0.0171  0.1036
  181DOPC  C31022252   1.155   3.993   3.824  0.1141 -0.3816  0.0991
  181DOPC  H10X22253   1.197   3.946   3.915  0.9216  1.6447  0.8475
  181DOPC  C31122254   1.024   3.936   3.775  0.3674  0.7827  0.2239
  181DOPC  H11X22255   1.027   3.829   3.743  1.4795  0.2647  1.9678
  181DOPC  H11Y22256   0.989   3.978   3.678  1.9977 -0.0934 -0.7819
  181DOPC  C31222257   0.906   3.961   3.870  0.3872  0.1726  0.1246
  181DOPC  H12X22258   0.817   3.931   3.811  0.8117 -0.4439 -0.2194
  181DOPC  H12Y22259   0.877   4.067   3.888 -0.1771  0.2404 -1.1007
  181DOPC  C31322260   0.921   3.884   4.005 -0.1117 -0.1377 -0.0060
  181DOPC  H13X22261   0.957   3.780   3.986  1.2986  0.4596 -0.7592
  181DOPC  H13Y22262   0.999   3.942   4.059  1.0497 -0.9243 -0.7959
  181DOPC  C31422263   0.799   3.884   4.096 -0.2945 -0.0226  0.2650
  181DOPC  H14X22264   0.836   3.836   4.190 -1.7748 -0.2421  0.7584
  181DOPC  H14Y22265   0.777   3.991   4.115 -0.7889 -0.1424  0.3840
  181DOPC  C31522266   0.672   3.820   4.042 -0.0030  0.1510 -0.1911
  181DOPC  H15X22267   0.699   3.718   4.006 -1.1778 -0.2575  0.0344
  181DOPC  H15Y22268   0.639   3.899   3.972 -0.1023 -0.9987 -1.4930
  181DOPC  C31622269   0.563   3.807   4.147  0.1834  0.3061  0.1110
  181DOPC  H16X22270   0.479   3.754   4.096  0.3099 -0.3597  0.5701
  181DOPC  H16Y22271   0.603   3.744   4.230  0.7441 -0.8118 -0.9853
  181DOPC  C31722272   0.510   3.943   4.195 -0.0486  0.2942  0.0393
  181DOPC  H17X22273   0.582   3.992   4.265 -0.1577  0.3372  0.1230
  181DOPC  H17Y22274   0.495   4.014   4.111  0.0797  0.8143  0.4469
  181DOPC  C31822275   0.373   3.931   4.269  0.0262 -0.7090  0.5382
  181DOPC  H18X22276   0.310   3.857   4.216 -0.2385 -0.3685  0.3726
  181DOPC  H18Y22277   0.394   3.902   4.374  0.6284 -0.1768  0.5703
  181DOPC  H18Z22278   0.340   4.037   4.265 -1.1440 -1.1004 -1.5473
  182DOPC     N22279   2.180   1.700   2.684  0.3031 -0.4589  0.8360
  182DOPC   C1222280   2.240   1.805   2.770  0.4801 -0.2390  0.0284
  182DOPC  H12A22281   2.166   1.880   2.793 -0.1818 -1.3021  1.4774
  182DOPC  H12B22282   2.320   1.856   2.717 -2.0172  0.2653 -3.6001
  182DOPC   C1322283   2.107   1.771   2.575 -0.1994  0.3539  0.0148
  182DOPC  H13A22284   2.010   1.798   2.616 -0.2901  0.9282 -0.5704
  182DOPC  H13B22285   2.154   1.863   2.543 -0.7477  1.7447  2.8941
  182DOPC  H13C22286   2.088   1.711   2.487 -2.0157  0.5704  0.2079
  182DOPC   C1422287   2.079   1.612   2.755 -0.2915  0.1409 -0.1710
  182DOPC  H14A22288   2.018   1.665   2.826  0.6011  1.3744 -0.2958
  182DOPC  H14B22289   2.007   1.578   2.682 -0.5285  0.1417  0.0636
  182DOPC  H14C22290   2.137   1.533   2.801 -2.2054 -1.4688 -0.4107
  182DOPC   C1522291   2.290   1.623   2.635  0.2442  0.1834  0.4683
  182DOPC  H15A22292   2.260   1.527   2.595 -2.3845  0.8559  0.6766
  182DOPC  H15B22293   2.360   1.599   2.713 -0.0399  0.3965  0.7888
  182DOPC  H15C22294   2.336   1.674   2.552  1.2719  0.0348  0.9361
  182DOPC   C1122295   2.303   1.774   2.905  0.4011 -0.0403 -0.4677
  182DOPC  H11A22296   2.355   1.862   2.948  0.6567 -0.0299 -0.7876
  182DOPC  H11B22297   2.229   1.741   2.980  1.1290 -1.4425 -0.3374
  182DOPC     P22298   2.541   1.687   2.852  0.0475  0.2626 -0.1172
  182DOPC   O1322299   2.539   1.766   2.733 -0.0397 -0.7002 -0.1460
  182DOPC   O1422300   2.602   1.550   2.842 -0.1416  0.0360  0.2710
  182DOPC   O1222301   2.395   1.657   2.908 -0.6526  0.0126 -0.0287
  182DOPC   O1122302   2.618   1.761   2.964  0.4868 -0.6477  0.3216
  182DOPC    C122303   2.643   1.712   3.093  0.4738  0.6580  0.5129
  182DOPC    HA22304   2.720   1.780   3.136 -0.2330  0.2425  2.5422
  182DOPC    HB22305   2.677   1.607   3.088  1.5657  1.0725 -1.7992
  182DOPC    C222306   2.532   1.720   3.193  0.6717  0.7088  0.2672
  182DOPC    HS22307   2.437   1.673   3.161  0.7817 -0.6297  1.7738
  182DOPC   O2122308   2.498   1.851   3.214 -0.7377 -0.3053 -0.6653
  182DOPC   C2122309   2.414   1.885   3.305  0.0790 -1.2458  0.2233
  182DOPC   O2222310   2.337   1.813   3.367  0.0375  0.2747  0.8429
  182DOPC   C2222311   2.425   2.032   3.329  0.2710  0.1971 -0.6330
  182DOPC   H2R22312   2.324   2.075   3.310  0.4621  0.8026 -0.3199
  182DOPC   H2S22313   2.490   2.069   3.246 -1.7617 -1.4475 -3.0844
  182DOPC    C322314   2.578   1.647   3.324  0.2260  0.3508  0.9337
  182DOPC    HX22315   2.588   1.538   3.305  0.7807  0.2526  1.7727
  182DOPC    HY22316   2.497   1.660   3.399  0.9588  1.9729  1.4786
  182DOPC   O3122317   2.706   1.702   3.369 -0.7122  0.6236  0.0946
  182DOPC   C3122318   2.806   1.618   3.405 -0.2295  0.0630 -0.2858
  182DOPC   O3222319   2.799   1.501   3.415  0.4005 -0.0489  0.5175
  182DOPC   C3222320   2.931   1.700   3.432  0.2097 -0.5539 -0.5537
  182DOPC   H2X22321   3.017   1.641   3.392  2.4343  0.9863  1.6506
  182DOPC   H2Y22322   2.934   1.791   3.369 -0.2031 -0.4622 -0.4404
  182DOPC   C2322323   2.486   2.058   3.467  0.3025 -0.5614  0.4278
  182DOPC   H3R22324   2.569   1.986   3.474  0.8470  0.0447  0.3158
  182DOPC   H3S22325   2.427   2.056   3.561  1.2373 -1.2662  1.0106
  182DOPC   C2422326   2.540   2.204   3.483 -0.7211 -0.3811  0.1036
  182DOPC   H4R22327   2.458   2.279   3.470  1.8441  2.1566 -3.8754
  182DOPC   H4S22328   2.619   2.209   3.405 -0.6979 -1.0481  0.0769
  182DOPC   C2522329   2.626   2.222   3.609  0.2826  0.6104  0.0030
  182DOPC   H5R22330   2.700   2.302   3.589 -0.9312  1.4731 -1.2034
  182DOPC   H5S22331   2.670   2.121   3.621  1.0899  0.7405 -1.5910
  182DOPC   C2622332   2.543   2.259   3.733 -0.0021  0.3685  0.0622
  182DOPC   H6R22333   2.444   2.211   3.716  1.6011 -2.2961 -2.7435
  182DOPC   H6S22334   2.526   2.368   3.749 -0.8612  0.2110  0.2557
  182DOPC   C2722335   2.598   2.181   3.858 -0.1507  0.6039  0.1571
  182DOPC   H7R22336   2.697   2.226   3.881  0.4998 -1.0424  0.8212
  182DOPC   H7S22337   2.609   2.071   3.840 -2.1949  0.6928 -1.9534
  182DOPC   C2822338   2.505   2.193   3.983  0.5161  0.1324 -0.3481
  182DOPC   H8R22339   2.522   2.106   4.051 -0.8319 -2.4876 -3.1467
  182DOPC   H8S22340   2.409   2.167   3.935  1.3187 -1.5582 -1.1382
  182DOPC   C2922341   2.489   2.330   4.029  0.0967 -0.2566 -0.6087
  182DOPC   H9R22342   2.438   2.389   3.951  0.8167 -2.4824 -2.9212
  182DOPC  C21022343   2.551   2.389   4.129  0.6069 -0.1583 -0.3188
  182DOPC  H10R22344   2.520   2.493   4.149 -0.1085 -0.4392  0.0882
  182DOPC  C21122345   2.641   2.331   4.235 -0.1686  1.0546  0.6116
  182DOPC  H11R22346   2.741   2.364   4.201 -0.0290  0.2268  0.1867
  182DOPC  H11S22347   2.634   2.221   4.250 -0.7823  1.2218  1.6690
  182DOPC  C21222348   2.596   2.382   4.370 -0.3230 -0.4808  0.6900
  182DOPC  H12R22349   2.486   2.371   4.379 -0.3651 -1.3426 -0.6457
  182DOPC  H12S22350   2.601   2.492   4.381  1.5191 -0.5896  1.2183
  182DOPC  C21322351   2.674   2.324   4.495  0.4165 -0.1827 -0.1908
  182DOPC  H13R22352   2.770   2.380   4.497 -0.9553  2.3647 -0.2920
  182DOPC  H13S22353   2.697   2.220   4.464  1.7788  0.8712 -3.0621
  182DOPC  C21422354   2.604   2.332   4.631  0.1633 -0.1146 -0.4908
  182DOPC  H14R22355   2.497   2.319   4.604  0.4142 -0.3208 -1.4148
  182DOPC  H14S22356   2.627   2.429   4.680 -2.2718  0.0974  0.3601
  182DOPC  C21522357   2.630   2.217   4.719  0.7793  0.0908 -0.1489
  182DOPC  H15R22358   2.651   2.127   4.657  2.4728  0.8542 -0.7297
  182DOPC  H15S22359   2.541   2.203   4.784 -0.4503 -2.9142 -2.2168
  182DOPC  C21622360   2.743   2.234   4.825 -0.0836 -0.0804 -0.2194
  182DOPC  H16R22361   2.699   2.305   4.898 -2.7489  3.2543 -4.5723
  182DOPC  H16S22362   2.835   2.279   4.782  0.0764  2.2578  2.3308
  182DOPC  C21722363   2.758   2.100   4.904 -0.4678  0.5940  0.3815
  182DOPC  H17R22364   2.746   2.022   4.826  0.3592 -0.9348  1.7239
  182DOPC  H17S22365   2.671   2.090   4.972  0.0484 -0.3570  0.9199
  182DOPC  C21822366   2.892   2.084   4.972  0.3381  0.0621  0.3680
  182DOPC  H18R22367   2.926   1.978   4.980 -0.4218 -0.4582 -2.1329
  182DOPC  H18S22368   2.889   2.146   5.063  1.0614 -0.8603  1.0447
  182DOPC  H18T22369   2.969   2.124   4.902  0.3598 -1.0706 -0.2915
  182DOPC   C3322370   2.953   1.756   3.571 -0.8785  0.3062 -0.8254
  182DOPC   H3X22371   2.889   1.843   3.597  1.8472  2.2307 -0.0614
  182DOPC   H3Y22372   3.051   1.807   3.582 -1.4215  1.4003 -0.9113
  182DOPC   C3422373   2.949   1.654   3.687  0.4399  0.3041 -0.2322
  182DOPC   H4X22374   3.000   1.557   3.672 -0.3388  0.1409 -2.1549
  182DOPC   H4Y22375   2.843   1.628   3.707  0.0880  2.3515  0.9539
  182DOPC   C3522376   3.019   1.713   3.816 -0.3170 -0.0858 -0.1174
  182DOPC   H5X22377   3.000   1.822   3.826  0.2135 -0.0307  0.3797
  182DOPC   H5Y22378   3.124   1.689   3.787 -0.2347 -0.4213  0.4501
  182DOPC   C3622379   2.986   1.635   3.939  0.4309  0.3013 -0.4339
  182DOPC   H6X22380   2.880   1.651   3.967  0.0142  0.9512 -2.2417
  182DOPC   H6Y22381   2.994   1.527   3.915  1.7272 -0.4201  2.7445
  182DOPC   C3722382   3.077   1.661   4.058 -0.3445 -0.1192  0.6026
  182DOPC   H7X22383   3.180   1.648   4.020 -0.1076  2.1914  0.3178
  182DOPC   H7Y22384   3.070   1.765   4.096 -0.9053  0.4523 -0.9683
  182DOPC   C3822385   3.046   1.564   4.170  0.4764  0.0209  0.3452
  182DOPC   H8X22386   3.048   1.461   4.131  0.5306  0.4892 -0.9377
  182DOPC   H8Y22387   2.941   1.582   4.201  0.6887  1.4765  0.3033
  182DOPC   C3922388   3.141   1.580   4.286  0.4334  0.4184 -0.2598
  182DOPC   H9X22389   3.144   1.680   4.332  0.1561 -0.5795  2.0642
  182DOPC  C31022390   3.213   1.488   4.358 -0.7228 -0.2196  0.0311
  182DOPC  H10X22391   3.267   1.526   4.445 -1.4123 -0.3140  0.5065
  182DOPC  C31122392   3.235   1.342   4.330  0.2609  0.1643 -0.0073
  182DOPC  H11X22393   3.227   1.334   4.219 -1.7889 -0.2890  0.1369
  182DOPC  H11Y22394   3.154   1.288   4.384  0.6800  0.3323  0.8102
  182DOPC  C31222395   3.369   1.285   4.376  0.2146  0.7523 -0.4270
  182DOPC  H12X22396   3.451   1.330   4.316  0.2389 -0.6511 -1.4858
  182DOPC  H12Y22397   3.372   1.176   4.355  2.1097  0.8971 -1.0676
  182DOPC  C31322398   3.395   1.312   4.524 -0.8319  0.2241  0.2948
  182DOPC  H13X22399   3.306   1.356   4.574 -1.6967  0.3522 -1.3133
  182DOPC  H13Y22400   3.414   1.217   4.579  1.6996 -1.1677 -2.7165
  182DOPC  C31422401   3.514   1.401   4.568 -0.4628 -0.1984  0.5955
  182DOPC  H14X22402   3.612   1.362   4.533 -1.0891  0.0751 -1.5785
  182DOPC  H14Y22403   3.512   1.493   4.505  0.5122  0.0236  0.8678
  182DOPC  C31522404   3.532   1.439   4.720  0.2514 -0.8068  0.6265
  182DOPC  H15X22405   3.527   1.350   4.785  2.0296 -1.4375 -0.0366
  182DOPC  H15Y22406   3.451   1.511   4.746 -0.4150 -1.3465  0.0662
  182DOPC  C31622407   3.672   1.497   4.754  0.0069  0.6885  0.1975
  182DOPC  H16X22408   3.667   1.544   4.855  1.6585  0.7504  0.2649
  182DOPC  H16Y22409   3.746   1.416   4.766  0.6622  1.3661  0.8099
  182DOPC  C31722410   3.714   1.610   4.663  0.2064  0.3573 -0.6956
  182DOPC  H17X22411   3.754   1.558   4.573 -1.9388  0.0547 -1.5295
  182DOPC  H17Y22412   3.625   1.663   4.624 -0.0491  0.0185 -0.5737
  182DOPC  C31822413   3.805   1.709   4.735 -0.2605  0.1548  0.0301
  182DOPC  H18X22414   3.866   1.760   4.657 -0.4713 -0.7679 -0.7611
  182DOPC  H18Y22415   3.760   1.789   4.797  1.7502 -1.2984  3.6928
  182DOPC  H18Z22416   3.870   1.664   4.813  0.4997  0.8642 -0.1809
  183DOPC     N22417   0.980   5.601   2.077 -0.6809  0.3322  0.4367
  183DOPC   C1222418   0.988   5.745   2.032  0.0048  0.5926 -0.1502
  183DOPC  H12A22419   0.886   5.782   2.034 -1.1546 -2.3189 -0.1261
  183DOPC  H12B22420   1.008   5.761   1.927 -1.8207  0.7420 -0.5176
  183DOPC   C1322421   1.114   5.539   2.098  0.5175 -0.2657 -0.3157
  183DOPC  H13A22422   1.171   5.597   2.169 -0.3805  0.4397 -0.1661
  183DOPC  H13B22423   1.105   5.437   2.134  2.2863  0.3499  2.1108
  183DOPC  H13C22424   1.183   5.532   2.015  1.4800  0.4758  0.3914
  183DOPC   C1422425   0.905   5.525   1.976 -0.4252  0.3760  0.6675
  183DOPC  H14A22426   0.886   5.426   2.013 -1.0126  0.7524  1.4059
  183DOPC  H14B22427   0.810   5.565   1.945 -0.6721  1.5256  2.7186
  183DOPC  H14C22428   0.961   5.505   1.886  1.3750  0.2603  1.7437
  183DOPC   C1522429   0.903   5.584   2.208  0.4002 -0.5587  0.1018
  183DOPC  H15A22430   0.946   5.645   2.285 -1.0208 -0.5732  0.9509
  183DOPC  H15B22431   0.879   5.483   2.239 -1.1405 -0.2546 -0.0008
  183DOPC  H15C22432   0.806   5.627   2.187  1.0627  0.7021 -0.4487
  183DOPC   C1122433   1.081   5.840   2.119 -0.3855 -0.5555  0.3551
  183DOPC  H11A22434   1.183   5.798   2.127  0.1179  0.7066  0.7980
  183DOPC  H11B22435   1.102   5.934   2.063 -0.8779 -1.1404 -0.8541
  183DOPC     P22436   0.902   5.928   2.280 -0.1241  0.0574  0.0457
  183DOPC   O1322437   0.804   5.914   2.167 -0.1814 -0.4792 -0.1051
  183DOPC   O1422438   0.923   6.071   2.314  0.4983  0.2490 -0.2736
  183DOPC   O1222439   1.038   5.863   2.253 -0.2009 -0.3435  0.0149
  183DOPC   O1122440   0.864   5.841   2.401 -0.5479  0.1633  0.2829
  183DOPC    C122441   0.739   5.861   2.473 -0.1401  0.4239 -0.2242
  183DOPC    HA22442   0.702   5.763   2.511  0.0772  0.3560 -0.1842
  183DOPC    HB22443   0.656   5.886   2.404 -1.1620  1.8107  1.4331
  183DOPC    C222444   0.749   5.964   2.596  0.2459 -0.0445  1.5748
  183DOPC    HS22445   0.745   6.064   2.547  2.9443  0.0360  1.3927
  183DOPC   O2122446   0.873   5.935   2.660 -0.2633  0.5108  0.6073
  183DOPC   C2122447   0.920   6.029   2.733 -0.3790  0.0374  0.2585
  183DOPC   O2222448   0.884   6.144   2.749  0.0453  0.0328  0.0211
  183DOPC   C2222449   1.053   5.971   2.799  0.3040 -0.2355 -0.0016
  183DOPC   H2R22450   1.133   6.010   2.733  0.1346 -1.0268 -0.6890
  183DOPC   H2S22451   1.055   5.861   2.785  0.4113 -0.3428  0.7769
  183DOPC    C322452   0.631   5.960   2.693 -0.7212 -0.0477 -0.0265
  183DOPC    HX22453   0.537   5.980   2.636 -0.9095  2.0512  0.9640
  183DOPC    HY22454   0.635   6.041   2.768 -0.6288 -0.1866  0.1186
  183DOPC   O3122455   0.629   5.821   2.748  0.7021  0.5381  0.1286
  183DOPC   C3122456   0.686   5.812   2.868  0.2816  0.5534 -0.1213
  183DOPC   O3222457   0.727   5.909   2.927 -0.2409 -0.0251  0.1480
  183DOPC   C3222458   0.726   5.670   2.892  0.3195  0.1745  0.0853
  183DOPC   H2X22459   0.673   5.597   2.826  0.2227  0.1135  0.2300
  183DOPC   H2Y22460   0.834   5.659   2.867  0.5330  1.2270  0.5118
  183DOPC   C2322461   1.074   6.019   2.951 -0.8117 -0.0135  0.6402
  183DOPC   H3R22462   1.047   6.126   2.965  0.2466  0.1877  1.2947
  183DOPC   H3S22463   1.183   6.036   2.966 -0.4425 -3.1825  2.4340
  183DOPC   C2422464   1.020   5.920   3.056  0.3433 -0.0016 -0.2974
  183DOPC   H4R22465   1.058   5.818   3.036 -0.0814 -0.4311  0.9945
  183DOPC   H4S22466   0.910   5.929   3.041  0.6460  0.6998 -2.6591
  183DOPC   C2522467   1.057   5.960   3.204 -0.6473 -0.0538  0.0969
  183DOPC   H5R22468   1.052   6.071   3.217  0.4878  0.1257 -0.8255
  183DOPC   H5S22469   1.161   5.928   3.228  0.0172  3.1604  2.1524
  183DOPC   C2622470   0.963   5.886   3.300  0.5036 -0.2935 -0.1082
  183DOPC   H6R22471   0.967   5.777   3.276 -2.0110 -0.4347 -0.1650
  183DOPC   H6S22472   0.858   5.915   3.277 -0.1121 -1.9184  0.4828
  183DOPC   C2722473   0.995   5.904   3.447  0.1431  0.5706 -0.4359
  183DOPC   H7R22474   1.000   6.013   3.466 -2.4566  0.8277 -0.8351
  183DOPC   H7S22475   1.094   5.857   3.462 -0.1097 -0.1631 -0.9985
  183DOPC   C2822476   0.893   5.836   3.545 -0.1767  0.2000 -0.1476
  183DOPC   H8R22477   0.796   5.884   3.520 -0.7284 -0.4102  0.7586
  183DOPC   H8S22478   0.913   5.861   3.652  0.7041 -1.4971  0.1302
  183DOPC   C2922479   0.899   5.682   3.521  0.0590 -0.0381  0.3424
  183DOPC   H9R22480   0.959   5.654   3.433 -0.3655  0.2949 -0.0670
  183DOPC  C21022481   0.848   5.587   3.599 -0.1292 -0.4156  0.6860
  183DOPC  H10R22482   0.848   5.482   3.566 -4.1086  0.4437 -3.0555
  183DOPC  C21122483   0.771   5.631   3.722 -0.1715 -0.6851  0.5125
  183DOPC  H11R22484   0.680   5.690   3.700  1.1417  0.4327 -2.5262
  183DOPC  H11S22485   0.844   5.694   3.777  2.4637 -1.5413 -1.7313
  183DOPC  C21222486   0.733   5.509   3.803 -0.1772  0.2478 -0.2165
  183DOPC  H12R22487   0.823   5.456   3.839 -0.9116 -0.9479 -0.0838
  183DOPC  H12S22488   0.679   5.445   3.729  0.9534  1.2263 -1.9773
  183DOPC  C21322489   0.633   5.539   3.919 -0.0458 -0.2593 -0.2163
  183DOPC  H13R22490   0.554   5.610   3.886  1.6824  1.0158 -1.8205
  183DOPC  H13S22491   0.693   5.603   3.988  1.2101  0.5768 -1.9984
  183DOPC  C21422492   0.590   5.411   3.994  0.2966 -1.1856  0.2899
  183DOPC  H14R22493   0.687   5.362   4.018  0.8925 -0.3945 -0.4425
  183DOPC  H14S22494   0.531   5.340   3.933 -0.8121  0.8263 -1.0790
  183DOPC  C21522495   0.498   5.441   4.112  0.4137 -0.5093 -0.5467
  183DOPC  H15R22496   0.422   5.511   4.071 -1.0871 -1.3108  0.7948
  183DOPC  H15S22497   0.556   5.483   4.197 -0.9612  1.1837 -0.3903
  183DOPC  C21622498   0.418   5.319   4.155 -0.2512  0.0166  0.0794
  183DOPC  H16R22499   0.493   5.239   4.174 -0.5598 -0.7142 -1.6781
  183DOPC  H16S22500   0.351   5.297   4.070  0.8114  2.6389 -1.5500
  183DOPC  C21722501   0.321   5.345   4.271 -0.1665  0.7461  0.1124
  183DOPC  H17R22502   0.266   5.439   4.253 -0.0462  0.4799 -1.9375
  183DOPC  H17S22503   0.376   5.367   4.365 -0.5405  5.5062 -0.5304
  183DOPC  C21822504   0.218   5.231   4.290 -0.6214  0.5218 -0.3714
  183DOPC  H18R22505   0.155   5.208   4.201 -0.1448  1.6411 -1.0092
  183DOPC  H18S22506   0.144   5.237   4.373 -0.9831 -1.2148 -0.5219
  183DOPC  H18T22507   0.279   5.140   4.309 -1.1077  0.1309 -0.6395
  183DOPC   C3322508   0.704   5.618   3.038  0.0918  0.0689  0.4997
  183DOPC   H3X22509   0.754   5.685   3.111  1.4840 -2.0263  1.5701
  183DOPC   H3Y22510   0.747   5.516   3.046 -0.6146 -0.4025 -1.2027
  183DOPC   C3422511   0.559   5.613   3.082  0.4043 -0.1668 -0.8124
  183DOPC   H4X22512   0.505   5.547   3.010  1.3255 -1.0591 -0.6913
  183DOPC   H4Y22513   0.515   5.715   3.096 -2.4358 -1.6280  2.5742
  183DOPC   C3522514   0.546   5.533   3.217 -0.4076 -0.1657 -0.5410
  183DOPC   H5X22515   0.604   5.581   3.299 -1.1822  0.4942 -0.3599
  183DOPC   H5Y22516   0.598   5.438   3.191  0.0275 -0.0514 -0.1145
  183DOPC   C3622517   0.400   5.504   3.268  0.1770 -0.1702 -0.1092
  183DOPC   H6X22518   0.335   5.472   3.184 -0.3302  0.3248  0.0860
  183DOPC   H6Y22519   0.395   5.415   3.335  1.4534 -1.3655 -1.5482
  183DOPC   C3722520   0.324   5.626   3.328 -0.8916  0.0468  0.1581
  183DOPC   H7X22521   0.335   5.708   3.253  1.1640 -0.4657 -0.1645
  183DOPC   H7Y22522   0.217   5.599   3.339 -0.9977  0.7839  1.0193
  183DOPC   C3822523   0.386   5.680   3.454 -0.0650  0.3774  0.4855
  183DOPC   H8X22524   0.310   5.752   3.491 -0.4869 -0.1930  0.7352
  183DOPC   H8Y22525   0.483   5.731   3.437  1.1552 -2.1866 -0.8879
  183DOPC   C3922526   0.397   5.576   3.565 -0.1373  0.2250 -0.4174
  183DOPC   H9X22527   0.497   5.531   3.561  0.0969  0.7981 -1.3543
  183DOPC  C31022528   0.300   5.530   3.641  0.3078 -0.2295 -0.1689
  183DOPC  H10X22529   0.319   5.465   3.727 -1.9845  0.0256  0.5944
  183DOPC  C31122530   0.160   5.578   3.636 -1.0934  0.8230  0.1131
  183DOPC  H11X22531   0.092   5.490   3.637 -2.0173  1.4194 -2.6875
  183DOPC  H11Y22532   0.141   5.628   3.539 -0.6044 -0.6128 -0.7532
  183DOPC  C31222533   0.128   5.670   3.753  0.4017 -0.1528 -0.1382
  183DOPC  H12X22534   0.196   5.754   3.780 -1.7125  1.5483  0.2299
  183DOPC  H12Y22535   0.118   5.600   3.838 -1.1702 -0.3306 -0.4447
  183DOPC  C31322536  -0.004   5.754   3.727 -0.2731 -0.0688 -0.0021
  183DOPC  H13X22537  -0.026   5.796   3.827  1.3741 -3.6589  2.0693
  183DOPC  H13Y22538   0.016   5.837   3.656 -1.1680 -1.0506 -1.4557
  183DOPC  C31422539  -0.127   5.678   3.688  0.7706 -0.1275 -0.3464
  183DOPC  H14X22540  -0.120   5.637   3.585 -0.2368 -0.0401 -0.4545
  183DOPC  H14Y22541  -0.140   5.591   3.755  3.3875 -0.8846 -0.6789
  183DOPC  C31522542  -0.252   5.763   3.689  0.0203  0.5471 -0.0129
  183DOPC  H15X22543  -0.239   5.837   3.606 -0.8566 -1.2601 -1.8546
  183DOPC  H15Y22544  -0.269   5.823   3.781  0.6046  3.1051 -1.4664
  183DOPC  C31622545  -0.376   5.679   3.643  0.2430 -0.4351  0.4403
  183DOPC  H16X22546  -0.358   5.596   3.572 -0.9343 -2.7502  2.7155
  183DOPC  H16Y22547  -0.416   5.629   3.734 -0.4785  0.8253  0.8428
  183DOPC  C31722548  -0.491   5.769   3.591 -0.6460  0.0532 -0.8230
  183DOPC  H17X22549  -0.504   5.863   3.647  0.1662 -2.1718  3.5205
  183DOPC  H17Y22550  -0.470   5.802   3.487 -0.7342 -0.1248 -0.8983
  183DOPC  C31822551  -0.617   5.689   3.586  0.3500 -0.2038 -0.1841
  183DOPC  H18X22552  -0.705   5.744   3.546  0.1038 -0.3158  0.1983
  183DOPC  H18Y22553  -0.620   5.597   3.524  0.4212 -0.3053 -0.0404
  183DOPC  H18Z22554  -0.642   5.660   3.691 -0.6333 -1.9004 -0.8468
  184DOPC     N22555   4.732   0.935   1.804 -0.1050  0.6490  0.0769
  184DOPC   C1222556   4.887   0.931   1.795 -0.5419  0.1063 -0.4388
  184DOPC  H12A22557   4.916   1.029   1.830 -1.3234 -0.8246  3.2407
  184DOPC  H12B22558   4.924   0.918   1.694  0.6365  3.2305 -0.5138
  184DOPC   C1322559   4.671   0.801   1.810  0.2043 -0.0644 -0.2392
  184DOPC  H13A22560   4.571   0.801   1.851  1.1687  0.8846  2.3738
  184DOPC  H13B22561   4.671   0.747   1.717  0.2961  0.0229 -0.2904
  184DOPC  H13C22562   4.723   0.746   1.888  1.2874  1.3187  0.0428
  184DOPC   C1422563   4.673   1.021   1.693  0.1549  0.1286 -0.4417
  184DOPC  H14A22564   4.706   1.124   1.703 -1.3006  0.6507 -0.8516
  184DOPC  H14B22565   4.700   0.987   1.594  0.1081 -2.3813  0.3323
  184DOPC  H14C22566   4.565   1.023   1.701  0.2248 -0.2496  0.8384
  184DOPC   C1522567   4.695   1.004   1.934 -0.2127 -0.4419  0.0882
  184DOPC  H15A22568   4.742   1.101   1.941  0.8075 -0.8592 -0.6858
  184DOPC  H15B22569   4.729   0.955   2.023  3.1168  3.0156  1.0244
  184DOPC  H15C22570   4.590   1.027   1.942 -0.0670  0.0683  0.5851
  184DOPC   C1122571   4.960   0.840   1.897 -0.8413 -0.5744 -0.5325
  184DOPC  H11A22572   5.067   0.869   1.897 -0.9047 -0.2211  1.7572
  184DOPC  H11B22573   4.930   0.863   2.001 -0.1150 -0.7204 -0.2882
  184DOPC     P22574   5.013   0.635   1.745 -0.1970  0.0312  0.2482
  184DOPC   O1322575   5.028   0.735   1.634  0.2317 -0.1159  0.0788
  184DOPC   O1422576   4.935   0.512   1.708 -0.1414 -0.4790  0.4366
  184DOPC   O1222577   4.946   0.700   1.875 -0.2181 -0.1843  0.1872
  184DOPC   O1122578   5.157   0.591   1.788 -0.4670 -0.2897  0.2108
  184DOPC    C122579   5.235   0.664   1.878 -0.4115 -0.4949 -0.0014
  184DOPC    HA22580   5.176   0.697   1.966 -1.2411 -0.2753 -0.6306
  184DOPC    HB22581   5.267   0.762   1.838  0.3241 -0.7405 -0.0340
  184DOPC    C222582   5.365   0.593   1.927 -0.3014  0.6798  0.2322
  184DOPC    HS22583   5.448   0.597   1.853 -0.0967 -3.7432 -0.0511
  184DOPC   O2122584   5.342   0.450   1.937 -0.0029  0.6451  0.3695
  184DOPC   C2122585   5.438   0.374   1.962 -0.2191  0.0466  0.4440
  184DOPC   O2222586   5.557   0.399   1.968 -0.2524 -0.1510  0.4292
  184DOPC   C2222587   5.390   0.237   1.975  0.4293  0.1296 -0.0812
  184DOPC   H2R22588   5.469   0.179   1.922  0.1213  0.6481 -1.1390
  184DOPC   H2S22589   5.292   0.242   1.923  0.5367  0.3955 -0.2647
  184DOPC    C322590   5.419   0.657   2.061 -0.5433  0.4396  0.2557
  184DOPC    HX22591   5.432   0.767   2.049  1.1273  0.1563 -0.8701
  184DOPC    HY22592   5.514   0.611   2.095 -0.5870  0.1051 -0.0598
  184DOPC   O3122593   5.323   0.638   2.168  0.0621  0.0433  0.3290
  184DOPC   C3122594   5.372   0.646   2.294  0.3920 -0.4047  0.2036
  184DOPC   O3222595   5.477   0.692   2.332  0.3440 -0.0871  0.1454
  184DOPC   C3222596   5.279   0.581   2.395 -0.1448  0.0293  0.6509
  184DOPC   H2X22597   5.174   0.598   2.361  0.5830  0.1104 -1.7273
  184DOPC   H2Y22598   5.289   0.471   2.389  1.3070  0.1586  0.4068
  184DOPC   C2322599   5.373   0.196   2.121 -0.6211 -0.1762 -0.3364
  184DOPC   H3R22600   5.354   0.086   2.126  2.3877 -0.8451 -1.3433
  184DOPC   H3S22601   5.284   0.245   2.166 -1.6477 -0.2358 -2.1886
  184DOPC   C2422602   5.493   0.216   2.218  0.0788  0.1717  0.7797
  184DOPC   H4R22603   5.544   0.313   2.199  0.1750 -0.1152 -0.5110
  184DOPC   H4S22604   5.560   0.130   2.196 -1.5359 -0.8862 -0.1576
  184DOPC   C2522605   5.481   0.214   2.371 -0.2525  0.0654 -0.3878
  184DOPC   H5R22606   5.446   0.120   2.418  0.5960  0.0398  0.2244
  184DOPC   H5S22607   5.413   0.294   2.409 -1.7771 -1.5316  0.3658
  184DOPC   C2622608   5.624   0.254   2.426  0.4617  0.3151 -0.5458
  184DOPC   H6R22609   5.651   0.350   2.377 -0.5009  0.5882 -0.5480
  184DOPC   H6S22610   5.702   0.178   2.403 -0.1516 -0.7919  0.9142
  184DOPC   C2722611   5.631   0.274   2.579 -0.2242  0.3216 -0.0422
  184DOPC   H7R22612   5.632   0.172   2.623  3.8057  0.1356 -0.2279
  184DOPC   H7S22613   5.542   0.330   2.616 -0.6835  0.8546 -1.8832
  184DOPC   C2822614   5.760   0.345   2.624  0.0711  0.4368  0.0443
  184DOPC   H8R22615   5.851   0.292   2.590 -0.3402  0.3867 -1.0286
  184DOPC   H8S22616   5.742   0.325   2.732 -1.4439  0.9810 -0.0748
  184DOPC   C2922617   5.786   0.495   2.610  0.4032 -0.8690  0.7208
  184DOPC   H9R22618   5.842   0.524   2.520 -1.7571  3.7927  0.5904
  184DOPC  C21022619   5.753   0.600   2.691  0.9682  0.2884  0.7124
  184DOPC  H10R22620   5.757   0.704   2.658  1.2872  1.2338  3.4390
  184DOPC  C21122621   5.686   0.589   2.823  0.1567 -0.1510  0.0277
  184DOPC  H11R22622   5.674   0.482   2.851 -2.0793 -0.1312 -0.6816
  184DOPC  H11S22623   5.582   0.627   2.813 -0.3956 -1.8355 -1.2537
  184DOPC  C21222624   5.770   0.664   2.930  0.1229  0.0532 -0.8963
  184DOPC  H12R22625   5.771   0.773   2.907 -0.2167  0.3349  0.3586
  184DOPC  H12S22626   5.876   0.631   2.928  0.1895  0.1105  0.7273
  184DOPC  C21322627   5.697   0.652   3.064 -0.4344  0.0524  0.9568
  184DOPC  H13R22628   5.707   0.544   3.090  0.1998 -0.1767 -0.2094
  184DOPC  H13S22629   5.592   0.676   3.037 -0.7096 -2.9310 -1.0472
  184DOPC  C21422630   5.749   0.742   3.179 -0.5877  0.3608 -0.6464
  184DOPC  H14R22631   5.691   0.837   3.173  1.9361  1.9850 -0.7876
  184DOPC  H14S22632   5.855   0.759   3.152 -0.7120 -1.1564 -2.2304
  184DOPC  C21522633   5.759   0.678   3.317 -0.0252 -0.4104 -0.4964
  184DOPC  H15R22634   5.811   0.581   3.302  0.9668 -0.4124  2.4265
  184DOPC  H15S22635   5.656   0.662   3.354 -0.5377  1.2701 -1.1032
  184DOPC  C21622636   5.826   0.766   3.430  0.3045  0.4808  0.2988
  184DOPC  H16R22637   5.934   0.760   3.406 -0.3233  0.9777 -3.1537
  184DOPC  H16S22638   5.805   0.724   3.530 -0.4007  1.2777  0.4972
  184DOPC  C21722639   5.775   0.909   3.429 -0.4577  1.4849 -0.0619
  184DOPC  H17R22640   5.666   0.904   3.409 -0.4833 -0.4658  0.3095
  184DOPC  H17S22641   5.822   0.961   3.343  0.2166  1.2773  0.1681
  184DOPC  C21822642   5.820   0.977   3.559  0.3863  0.9115  0.1588
  184DOPC  H18R22643   5.795   0.908   3.643  1.2861 -0.4049 -0.6160
  184DOPC  H18S22644   5.770   1.075   3.574 -2.9155 -0.7805  1.4368
  184DOPC  H18T22645   5.929   0.995   3.554  0.5047 -0.0509 -1.3835
  184DOPC   C3322646   5.303   0.630   2.542 -0.4091 -0.5476  0.0511
  184DOPC   H3X22647   5.410   0.641   2.569 -0.7023  0.1421  0.9690
  184DOPC   H3Y22648   5.260   0.551   2.607  0.4299  0.1703  1.5068
  184DOPC   C3422649   5.230   0.759   2.570  0.4115  0.5173 -0.0798
  184DOPC   H4X22650   5.123   0.756   2.538  0.6782 -0.9160 -0.9445
  184DOPC   H4Y22651   5.277   0.840   2.511 -0.0145  0.5962 -0.3179
  184DOPC   C3522652   5.230   0.791   2.719 -0.7292  0.0358 -0.4892
  184DOPC   H5X22653   5.337   0.810   2.743 -0.8406 -0.9380  0.8862
  184DOPC   H5Y22654   5.186   0.709   2.779 -1.6737  0.8806  0.0070
  184DOPC   C3622655   5.163   0.923   2.748  0.4495 -0.0790 -0.0821
  184DOPC   H6X22656   5.206   1.010   2.695  0.8452  0.1461  0.6049
  184DOPC   H6Y22657   5.053   0.925   2.730  0.2076  1.7530  1.3232
  184DOPC   C3722658   5.160   0.957   2.900 -0.1917  0.3157 -0.4444
  184DOPC   H7X22659   5.129   1.063   2.913  0.5166  0.4193  0.4923
  184DOPC   H7Y22660   5.091   0.893   2.958  0.9827 -0.6901 -0.1015
  184DOPC   C3822661   5.299   0.955   2.963 -0.0412  0.2201 -0.3337
  184DOPC   H8X22662   5.293   1.038   3.036 -0.0604  0.6594 -0.8236
  184DOPC   H8Y22663   5.380   0.980   2.891  1.0704 -2.0714  0.0486
  184DOPC   C3922664   5.340   0.823   3.031  0.6588 -0.0323  0.1951
  184DOPC   H9X22665   5.319   0.730   2.977 -2.2086  0.3054  0.5674
  184DOPC  C31022666   5.372   0.799   3.159  0.4761 -0.2670 -0.4512
  184DOPC  H10X22667   5.366   0.692   3.183  0.3616 -0.8107 -2.6374
  184DOPC  C31122668   5.382   0.903   3.268  0.5195 -0.4490 -0.0010
  184DOPC  H11X22669   5.400   1.001   3.219  1.8174  0.5695  2.3354
  184DOPC  H11Y22670   5.478   0.887   3.323  0.8798  3.2241  0.7217
  184DOPC  C31222671   5.277   0.898   3.372  0.5183 -0.1302 -0.3639
  184DOPC  H12X22672   5.275   0.794   3.410 -0.9184 -0.3689 -1.0223
  184DOPC  H12Y22673   5.176   0.895   3.325  0.0917 -1.3938  0.5801
  184DOPC  C31322674   5.290   1.006   3.478 -0.0648  0.4901 -0.3938
  184DOPC  H13X22675   5.285   1.096   3.413  0.1432 -0.0468 -1.1670
  184DOPC  H13Y22676   5.200   1.000   3.542  0.9366 -0.4466  0.9677
  184DOPC  C31422677   5.413   0.998   3.566 -0.1979  0.6478  0.0957
  184DOPC  H14X22678   5.461   0.897   3.571  1.5866  1.5265  2.6748
  184DOPC  H14Y22679   5.493   1.064   3.527 -1.6130  1.8514 -0.8485
  184DOPC  C31522680   5.383   1.049   3.708 -0.7048  0.5226  0.3875
  184DOPC  H15X22681   5.294   1.005   3.759  1.1630 -3.6258  0.4527
  184DOPC  H15Y22682   5.356   1.157   3.703 -3.8315 -0.1018  1.4464
  184DOPC  C31622683   5.496   1.017   3.806  0.2990 -0.5109 -0.6846
  184DOPC  H16X22684   5.482   0.914   3.846 -1.4455  0.2815  0.8975
  184DOPC  H16Y22685   5.595   1.026   3.756  0.4728  2.8607  0.0263
  184DOPC  C31722686   5.483   1.110   3.932  0.4838 -1.2251  0.5433
  184DOPC  H17X22687   5.507   1.208   3.887  0.3922 -0.6310  1.7637
  184DOPC  H17Y22688   5.380   1.115   3.973  0.9945 -2.2757  2.0347
  184DOPC  C31822689   5.578   1.098   4.052  0.0935 -0.1059 -0.2859
  184DOPC  H18X22690   5.546   1.172   4.129 -1.2284 -1.6272  0.6879
  184DOPC  H18Y22691   5.576   1.004   4.111  2.0504  0.2357  0.4197
  184DOPC  H18Z22692   5.680   1.115   4.012 -0.3529 -1.6594 -2.2632
  185DOPC     N22693   7.612   7.378   1.984 -0.5980 -0.2867 -0.0111
  185DOPC   C1222694   7.598   7.315   2.123 -0.5600 -0.2649  0.4860
  185DOPC  H12A22695   7.546   7.221   2.119  0.9206 -1.1343  0.9281
  185DOPC  H12B22696   7.531   7.373   2.185 -0.3059  0.1868  0.3419
  185DOPC   C1322697   7.472   7.389   1.935  0.2184 -0.3676  0.6669
  185DOPC  H13A22698   7.402   7.445   1.995 -0.8738 -1.0312  0.0340
  185DOPC  H13B22699   7.473   7.420   1.831 -0.1304  0.1013  0.7992
  185DOPC  H13C22700   7.432   7.290   1.921 -0.8651  0.1010  0.3135
  185DOPC   C1422701   7.697   7.287   1.901 -0.5656 -0.4827  0.1598
  185DOPC  H14A22702   7.757   7.226   1.967 -1.5742  1.9639  3.6297
  185DOPC  H14B22703   7.638   7.216   1.845 -1.1635 -0.4390  0.7151
  185DOPC  H14C22704   7.756   7.345   1.831 -0.4494  0.0827  0.7126
  185DOPC   C1522705   7.674   7.515   1.996 -0.2796  0.3375  0.1949
  185DOPC  H15A22706   7.636   7.579   2.074 -0.6822  0.1442  0.1620
  185DOPC  H15B22707   7.665   7.565   1.900 -0.2990  0.3349  0.1951
  185DOPC  H15C22708   7.780   7.498   1.995 -0.1917  0.7407 -1.7893
  185DOPC   C1122709   7.721   7.284   2.209  0.3327 -0.1240 -0.8331
  185DOPC  H11A22710   7.783   7.376   2.212 -0.3118  0.3248 -1.1647
  185DOPC  H11B22711   7.686   7.270   2.313  1.3464  1.8906 -0.1875
  185DOPC     P22712   7.769   7.033   2.211 -0.4557  0.3586  0.2603
  185DOPC   O1322713   7.881   6.946   2.166  0.0319  0.1763 -0.3139
  185DOPC   O1422714   7.637   6.978   2.177  0.0360 -0.2058  0.0720
  185DOPC   O1222715   7.797   7.178   2.152  0.0713 -0.1996  0.4509
  185DOPC   O1122716   7.768   7.056   2.366  0.0944 -0.3305  0.0632
  185DOPC    C122717   7.886   7.034   2.446  0.4789 -0.3954 -0.4091
  185DOPC    HA22718   7.891   7.109   2.528 -1.6841 -0.9235  0.2665
  185DOPC    HB22719   7.982   7.029   2.390  0.5791 -1.9054 -0.1541
  185DOPC    C222720   7.868   6.898   2.521 -1.1441  0.2656  0.2139
  185DOPC    HS22721   7.893   6.820   2.447  0.9273  0.4644  0.6415
  185DOPC   O2122722   7.732   6.876   2.562 -0.1329 -0.8383  0.5870
  185DOPC   C2122723   7.689   6.746   2.561 -0.0614 -0.2479 -0.5087
  185DOPC   O2222724   7.759   6.654   2.523 -0.0304  0.1277 -0.1543
  185DOPC   C2222725   7.546   6.727   2.617 -0.7340 -0.5479  0.0661
  185DOPC   H2R22726   7.501   6.647   2.554  2.6373 -1.7246 -1.0350
  185DOPC   H2S22727   7.489   6.821   2.604  1.5152  0.9194  0.3388
  185DOPC    C322728   7.973   6.876   2.635 -0.5847 -0.7108  0.4009
  185DOPC    HX22729   8.073   6.898   2.591 -0.1451 -1.1081  1.1832
  185DOPC    HY22730   7.969   6.769   2.662 -5.1603 -0.5377  1.1349
  185DOPC   O3122731   7.937   6.959   2.743 -0.5070 -0.0153 -0.2739
  185DOPC   C3122732   7.985   7.069   2.769 -0.7239  0.4061  0.4088
  185DOPC   O3222733   8.092   7.125   2.733  0.4680  0.1985  0.0131
  185DOPC   C3222734   7.906   7.128   2.882 -1.1983 -0.3741 -0.0007
  185DOPC   H2X22735   7.803   7.140   2.840 -1.0068 -1.4005 -0.8047
  185DOPC   H2Y22736   7.892   7.050   2.960  1.1301 -1.2390 -0.3877
  185DOPC   C2322737   7.568   6.699   2.765  0.5240  0.0521 -0.0384
  185DOPC   H3R22738   7.648   6.622   2.774 -0.5246 -1.1426 -0.6728
  185DOPC   H3S22739   7.473   6.657   2.804  0.5472  1.3804  1.5664
  185DOPC   C2422740   7.592   6.834   2.843 -0.6725 -0.5365  0.2709
  185DOPC   H4R22741   7.518   6.913   2.819  0.2945 -0.0007 -0.9848
  185DOPC   H4S22742   7.690   6.879   2.819 -1.1504 -0.0083 -0.7504
  185DOPC   C2522743   7.596   6.826   2.993 -0.2782  0.3168  0.0736
  185DOPC   H5R22744   7.509   6.789   3.052 -0.4072 -0.1907 -0.4230
  185DOPC   H5S22745   7.605   6.930   3.033 -0.6427  0.2633  0.3004
  185DOPC   C2622746   7.718   6.746   3.047 -0.1340  0.3917  0.5709
  185DOPC   H6R22747   7.805   6.782   2.989  0.7043  2.0115  2.7318
  185DOPC   H6S22748   7.712   6.635   3.039  1.8887  0.1658  1.7676
  185DOPC   C2722749   7.741   6.772   3.198  0.2486 -0.4023  0.3065
  185DOPC   H7R22750   7.648   6.744   3.253  0.4836 -1.4193  0.1903
  185DOPC   H7S22751   7.741   6.883   3.213 -2.7359 -0.2841 -0.0000
  185DOPC   C2822752   7.859   6.711   3.269 -0.1912 -0.2285  0.8161
  185DOPC   H8R22753   7.850   6.746   3.374 -1.0013  0.2054  0.6066
  185DOPC   H8S22754   7.960   6.742   3.234 -0.1180  0.6529  1.7662
  185DOPC   C2922755   7.859   6.559   3.256  0.7233 -0.2660  0.4752
  185DOPC   H9R22756   7.843   6.517   3.155  0.1684 -3.1717  1.6706
  185DOPC  C21022757   7.884   6.464   3.344  0.9402 -0.7363 -0.3996
  185DOPC  H10R22758   7.884   6.359   3.313  1.1349 -1.2397  1.2192
  185DOPC  C21122759   7.895   6.493   3.496  0.1741  0.6493  0.6032
  185DOPC  H11R22760   7.893   6.600   3.524  1.7009  0.1323  3.0066
  185DOPC  H11S22761   7.995   6.467   3.539  1.8155  3.4596 -1.2072
  185DOPC  C21222762   7.789   6.419   3.577  0.1005  0.3132  0.5125
  185DOPC  H12R22763   7.693   6.466   3.547 -1.2015 -2.2845  0.3328
  185DOPC  H12S22764   7.813   6.438   3.684 -1.1757 -1.1366  1.1010
  185DOPC  C21322765   7.781   6.273   3.544  0.2590 -0.0613  0.3698
  185DOPC  H13R22766   7.883   6.232   3.560 -0.4023 -1.3677  1.4934
  185DOPC  H13S22767   7.761   6.247   3.438 -1.7639 -3.1830  1.3687
  185DOPC  C21422768   7.684   6.209   3.632  0.4008  0.5905  1.5936
  185DOPC  H14R22769   7.710   6.240   3.735 -1.0888 -3.0623  3.2326
  185DOPC  H14S22770   7.696   6.099   3.636 -0.7481  0.2477 -1.6081
  185DOPC  C21522771   7.535   6.232   3.616 -0.3418 -0.3535  0.0744
  185DOPC  H15R22772   7.495   6.176   3.529 -2.4015  0.6675  0.3042
  185DOPC  H15S22773   7.518   6.339   3.589  1.7756 -0.0097 -0.0908
  185DOPC  C21622774   7.449   6.181   3.733 -0.2738 -0.1211  0.3203
  185DOPC  H16R22775   7.489   6.079   3.750 -3.2829 -1.3200  0.9694
  185DOPC  H16S22776   7.347   6.164   3.691  0.7477 -2.4500 -1.3909
  185DOPC  C21722777   7.459   6.261   3.867  0.5201  0.0290 -0.3008
  185DOPC  H17R22778   7.566   6.256   3.896  0.3645  0.6509  0.4124
  185DOPC  H17S22779   7.398   6.202   3.939  2.0344 -0.7370  0.3999
  185DOPC  C21822780   7.423   6.409   3.869 -0.3048  0.0841  0.0910
  185DOPC  H18R22781   7.515   6.471   3.858 -0.7107  0.9327  1.2433
  185DOPC  H18S22782   7.383   6.445   3.967  0.7350  0.6090  0.3347
  185DOPC  H18T22783   7.352   6.434   3.787  1.2458 -0.6679 -1.5471
  185DOPC   C3322784   7.973   7.259   2.948  0.1420 -0.0148  0.0641
  185DOPC   H3X22785   7.964   7.350   2.885  0.6445  0.0776  0.1239
  185DOPC   H3Y22786   8.083   7.250   2.958  0.4312  2.4825 -0.3835
  185DOPC   C3422787   7.923   7.278   3.091  0.4539 -0.0170  0.0795
  185DOPC   H4X22788   7.813   7.294   3.089  0.6220  1.3064  0.4221
  185DOPC   H4Y22789   7.973   7.371   3.126 -1.6719  1.0920  0.3453
  185DOPC   C3522790   7.974   7.174   3.196 -0.1025  0.2594  0.5573
  185DOPC   H5X22791   8.084   7.178   3.209  0.1607 -4.1077  1.1094
  185DOPC   H5Y22792   7.951   7.074   3.155  1.2123 -0.2252  0.9517
  185DOPC   C3622793   7.907   7.185   3.335 -0.1002  0.7851 -0.7184
  185DOPC   H6X22794   7.937   7.278   3.388 -0.3324 -0.2124  1.2439
  185DOPC   H6Y22795   7.798   7.201   3.326  0.3638  3.5453 -2.6138
  185DOPC   C3722796   7.946   7.071   3.423 -0.3145 -0.3141 -0.0393
  185DOPC   H7X22797   7.926   6.970   3.381  1.6568 -0.4518 -0.7063
  185DOPC   H7Y22798   8.047   7.077   3.469 -0.5027  1.6725  0.2072
  185DOPC   C3822799   7.860   7.086   3.558  0.2445 -0.2333 -0.0777
  185DOPC   H8X22800   7.757   7.073   3.518 -1.0138 -0.2375  2.8818
  185DOPC   H8Y22801   7.870   7.189   3.599 -0.2446 -0.4801  0.6851
  185DOPC   C3922802   7.890   6.992   3.679 -0.4275 -0.1989  0.7241
  185DOPC   H9X22803   7.965   7.032   3.749 -1.5943  2.2232  0.7269
  185DOPC  C31022804   7.814   6.884   3.713  0.6330  0.1759 -0.3287
  185DOPC  H10X22805   7.834   6.830   3.807  0.1662  0.0391 -0.3083
  185DOPC  C31122806   7.715   6.815   3.636  1.1377  0.8672  0.4933
  185DOPC  H11X22807   7.741   6.707   3.629 -1.0455  0.2408  1.1451
  185DOPC  H11Y22808   7.699   6.853   3.533  0.9957 -0.7238 -0.1039
  185DOPC  C31222809   7.574   6.806   3.710 -0.2673  0.0935  0.3328
  185DOPC  H12X22810   7.588   6.757   3.808 -3.3969  0.6933  1.2019
  185DOPC  H12Y22811   7.507   6.737   3.653 -0.5147  0.9980 -0.5123
  185DOPC  C31322812   7.504   6.941   3.742  0.4855  0.1726  0.4765
  185DOPC  H13X22813   7.567   7.005   3.807 -0.0887  0.4265  0.7919
  185DOPC  H13Y22814   7.501   6.995   3.645  0.3028  1.1357  1.0104
  185DOPC  C31422815   7.362   6.939   3.791  1.1848 -0.4238 -0.2569
  185DOPC  H14X22816   7.328   7.042   3.812 -1.4560 -1.1961 -0.3354
  185DOPC  H14Y22817   7.279   6.902   3.728  0.1618  1.6480 -0.1829
  185DOPC  C31522818   7.341   6.861   3.931 -0.2323  0.4716  0.3052
  185DOPC  H15X22819   7.425   6.894   3.995  1.3710  0.1112 -1.5158
  185DOPC  H15Y22820   7.353   6.752   3.914  1.2977  0.5939  0.5282
  185DOPC  C31622821   7.217   6.900   4.008  0.3279 -0.3439 -0.0015
  185DOPC  H16X22822   7.228   7.010   4.015  1.1937 -0.3540 -1.0147
  185DOPC  H16Y22823   7.123   6.864   3.963  0.0324  1.7759 -1.2054
  185DOPC  C31722824   7.221   6.844   4.155 -0.5617  0.8911  0.2879
  185DOPC  H17X22825   7.304   6.877   4.221 -0.1825 -0.1564  0.3515
  185DOPC  H17Y22826   7.125   6.865   4.208 -1.2304 -0.2479 -0.4240
  185DOPC  C31822827   7.237   6.691   4.151 -0.3648  0.1207  0.2775
  185DOPC  H18X22828   7.229   6.638   4.248  3.3939 -0.0687  0.6278
  185DOPC  H18Y22829   7.160   6.655   4.080 -0.4180 -0.6843  0.7362
  185DOPC  H18Z22830   7.339   6.666   4.116 -0.5593 -1.4895  0.7780
  186DOPC     N22831   0.969   3.484   2.074 -0.2192  0.4340  0.2831
  186DOPC   C1222832   0.853   3.389   2.112 -0.7041 -0.1215 -0.4417
  186DOPC  H12A22833   0.774   3.439   2.166 -1.6493  1.3099 -2.9594
  186DOPC  H12B22834   0.904   3.320   2.178  0.0367 -0.2123 -1.0977
  186DOPC   C1322835   0.924   3.569   1.957 -0.6269  1.0237 -0.3427
  186DOPC  H13A22836   0.840   3.629   1.988  0.2241  1.7890  0.5485
  186DOPC  H13B22837   0.991   3.646   1.923 -0.9181  0.8094 -1.4513
  186DOPC  H13C22838   0.891   3.511   1.872 -0.5038  2.8095 -1.6569
  186DOPC   C1422839   1.092   3.408   2.032  0.1280 -0.2712  0.1963
  186DOPC  H14A22840   1.146   3.372   2.118  0.1326  0.8067  0.6604
  186DOPC  H14B22841   1.068   3.320   1.974 -2.3630 -0.3501  1.2344
  186DOPC  H14C22842   1.164   3.475   1.986  0.8299 -0.8035  0.5108
  186DOPC   C1522843   1.004   3.567   2.194 -0.9674  0.2341 -0.1129
  186DOPC  H15A22844   0.919   3.627   2.225 -0.7781  1.3290 -1.5854
  186DOPC  H15B22845   1.090   3.630   2.179  0.5654 -2.0634 -1.5284
  186DOPC  H15C22846   1.030   3.505   2.278  1.3489  0.6272 -0.4935
  186DOPC   C1122847   0.783   3.304   2.000  0.4221 -0.0342 -0.8676
  186DOPC  H11A22848   0.869   3.256   1.951 -0.8940 -1.0642 -2.2618
  186DOPC  H11B22849   0.725   3.226   2.054 -0.0099  1.0663  0.3437
  186DOPC     P22850   0.563   3.441   1.964 -0.0907 -0.0194  0.1777
  186DOPC   O1322851   0.479   3.434   1.833  0.4669 -0.5923  0.1881
  186DOPC   O1422852   0.573   3.577   2.021  0.0766  0.0279 -0.3394
  186DOPC   O1222853   0.701   3.383   1.916 -0.2318 -0.2726  0.0006
  186DOPC   O1122854   0.509   3.337   2.073  0.4210 -0.2418 -0.3458
  186DOPC    C122855   0.381   3.275   2.059 -0.4233 -0.0702  0.2381
  186DOPC    HA22856   0.382   3.165   2.073 -2.9696 -0.2710 -0.5845
  186DOPC    HB22857   0.341   3.294   1.956 -0.7395  0.5343  0.4683
  186DOPC    C222858   0.275   3.337   2.149  0.5012 -0.7232  0.7234
  186DOPC    HS22859   0.267   3.445   2.122 -0.4526 -0.9918 -0.1457
  186DOPC   O2122860   0.325   3.330   2.285  0.5607  0.4949  0.3092
  186DOPC   C2122861   0.279   3.403   2.378 -0.2854 -0.1105  0.0687
  186DOPC   O2222862   0.186   3.485   2.374  0.1618 -0.0177  0.3375
  186DOPC   C2222863   0.346   3.365   2.505 -0.4728  0.0874  0.3017
  186DOPC   H2R22864   0.455   3.358   2.486  0.5402 -1.7772  5.4042
  186DOPC   H2S22865   0.306   3.273   2.551 -0.0025 -0.4263 -0.2975
  186DOPC    C322866   0.131   3.278   2.137 -0.0401  0.3042  0.8824
  186DOPC    HX22867   0.103   3.293   2.030 -0.4928  0.0989  0.9682
  186DOPC    HY22868   0.059   3.338   2.196 -0.8175  0.2172  0.0486
  186DOPC   O3122869   0.132   3.134   2.174  0.2990 -0.5011 -0.2752
  186DOPC   C3122870   0.064   3.105   2.288  0.7210  0.3500 -0.1535
  186DOPC   O3222871  -0.006   3.187   2.350  0.0146 -0.1121  0.4534
  186DOPC   C3222872   0.093   2.968   2.341 -0.3610  0.7519  0.0677
  186DOPC   H2X22873   0.021   2.894   2.298 -1.6572  1.8231  0.3464
  186DOPC   H2Y22874   0.184   2.941   2.283 -1.6757 -1.0188 -1.2747
  186DOPC   C2322875   0.341   3.478   2.616  0.0482  0.5801 -0.1609
  186DOPC   H3R22876   0.241   3.503   2.657 -0.0510 -0.6857  0.4287
  186DOPC   H3S22877   0.367   3.574   2.566 -1.8083  0.5702 -1.2306
  186DOPC   C2422878   0.434   3.446   2.730  0.0257 -0.8317  0.2840
  186DOPC   H4R22879   0.502   3.533   2.744  2.0877 -2.0557 -1.4370
  186DOPC   H4S22880   0.510   3.372   2.696  1.2260  0.0260  1.0442
  186DOPC   C2522881   0.348   3.398   2.849 -0.0854  0.3874 -0.5065
  186DOPC   H5R22882   0.284   3.313   2.815 -3.0719  1.7406  1.3357
  186DOPC   H5S22883   0.273   3.472   2.883 -0.3656  0.6806 -1.7136
  186DOPC   C2622884   0.428   3.352   2.967  0.1068  0.0773 -0.5930
  186DOPC   H6R22885   0.472   3.441   3.015 -1.0462  1.0315 -1.2592
  186DOPC   H6S22886   0.508   3.283   2.931  0.8013 -0.2586  1.4466
  186DOPC   C2722887   0.359   3.281   3.083  0.2765  0.1830  0.0036
  186DOPC   H7R22888   0.339   3.184   3.034  0.9693  0.0498 -0.0247
  186DOPC   H7S22889   0.272   3.335   3.125  0.5169 -1.0245  2.2098
  186DOPC   C2822890   0.448   3.263   3.199 -0.2803 -0.3938  0.3323
  186DOPC   H8R22891   0.554   3.234   3.184 -0.9248 -1.4826 -2.6369
  186DOPC   H8S22892   0.413   3.181   3.266  1.3480 -1.0359  0.4329
  186DOPC   C2922893   0.439   3.397   3.283 -0.5128  0.9263  0.0641
  186DOPC   H9R22894   0.347   3.433   3.332 -1.8157  0.0134 -1.6215
  186DOPC  C21022895   0.548   3.467   3.311 -0.5890  0.3159 -0.1573
  186DOPC  H10R22896   0.533   3.566   3.357 -0.5355  1.1700 -1.9046
  186DOPC  C21122897   0.691   3.434   3.265 -0.0617  0.9464  0.1590
  186DOPC  H11R22898   0.741   3.534   3.268  0.4127  0.6965  1.8181
  186DOPC  H11S22899   0.696   3.401   3.160  1.0303  1.3201  0.0858
  186DOPC  C21222900   0.776   3.327   3.338 -0.0840  0.0991  0.7725
  186DOPC  H12R22901   0.878   3.322   3.296 -1.2541 -1.1782 -2.1870
  186DOPC  H12S22902   0.721   3.230   3.347 -3.9302  1.8062 -1.8825
  186DOPC  C21322903   0.784   3.369   3.482  0.0259  0.4696 -0.5424
  186DOPC  H13R22904   0.690   3.344   3.535  1.1353  1.2063  1.8996
  186DOPC  H13S22905   0.791   3.480   3.486 -1.0420  0.5650 -0.9182
  186DOPC  C21422906   0.902   3.297   3.565  0.3996  0.1270  0.4027
  186DOPC  H14R22907   1.000   3.311   3.514  0.6637 -0.5824  0.7060
  186DOPC  H14S22908   0.890   3.187   3.556 -0.6301  0.4299 -3.5882
  186DOPC  C21522909   0.910   3.327   3.715  0.4661  0.0107 -0.0764
  186DOPC  H15R22910   0.824   3.284   3.770  1.3105 -1.3064  0.2781
  186DOPC  H15S22911   0.912   3.436   3.735 -2.4144  0.1144 -0.0319
  186DOPC  C21622912   1.030   3.270   3.779  0.2900  0.1077 -0.4814
  186DOPC  H16R22913   1.118   3.320   3.732  0.4704 -0.7153 -1.0349
  186DOPC  H16S22914   1.033   3.161   3.759 -0.0041  0.0096 -0.0134
  186DOPC  C21722915   1.026   3.273   3.930  0.3595 -0.0610 -0.4404
  186DOPC  H17R22916   1.125   3.240   3.969 -0.4095  0.5575  2.2714
  186DOPC  H17S22917   0.961   3.193   3.974  1.8573  0.1286  2.3555
  186DOPC  C21822918   1.001   3.406   4.003  0.0383 -0.8791  0.5917
  186DOPC  H18R22919   1.089   3.472   3.985  1.7724 -3.7536 -2.3767
  186DOPC  H18S22920   0.999   3.392   4.114 -0.5250 -0.3502  0.6552
  186DOPC  H18T22921   0.913   3.455   3.956 -0.5318 -1.1149  1.3982
  186DOPC   C3322922   0.143   2.943   2.489  0.7285 -0.5180  0.1051
  186DOPC   H3X22923   0.223   3.014   2.519  1.1360 -0.3442 -1.3125
  186DOPC   H3Y22924   0.190   2.844   2.502 -2.6192 -2.4298 -0.9877
  186DOPC   C3422925   0.029   2.943   2.590  0.6833  0.4007  0.4807
  186DOPC   H4X22926  -0.052   2.871   2.567 -1.3184  1.8124  2.6840
  186DOPC   H4Y22927  -0.022   3.041   2.579 -1.6292 -1.0179 -4.3334
  186DOPC   C3522928   0.085   2.916   2.734 -0.6646 -0.5557 -0.1573
  186DOPC   H5X22929   0.141   3.004   2.774  0.7045 -1.3309 -0.3081
  186DOPC   H5Y22930   0.155   2.830   2.726 -0.2847 -0.1709 -1.0734
  186DOPC   C3622931  -0.033   2.884   2.828  0.2745  0.5106 -0.4978
  186DOPC   H6X22932  -0.104   2.969   2.834 -1.7309 -0.9599 -2.0492
  186DOPC   H6Y22933  -0.083   2.794   2.787  1.4911 -1.4795  2.0897
  186DOPC   C3722934   0.008   2.826   2.967 -0.1434  0.2544 -0.7518
  186DOPC   H7X22935   0.072   2.737   2.952  0.2913  0.4275 -0.0011
  186DOPC   H7Y22936   0.079   2.891   3.024 -1.6768  0.6345  0.8052
  186DOPC   C3822937  -0.111   2.787   3.053 -0.0113  0.0710  0.3162
  186DOPC   H8X22938  -0.078   2.756   3.154  2.2254 -0.8465 -0.6341
  186DOPC   H8Y22939  -0.153   2.696   3.005  0.3362  1.3278 -2.5941
  186DOPC   C3922940  -0.206   2.901   3.066  0.2434 -0.1627 -0.0754
  186DOPC   H9X22941  -0.296   2.893   3.003 -0.1952  1.7765  0.2574
  186DOPC  C31022942  -0.183   3.019   3.128 -0.1393 -0.0393 -0.2386
  186DOPC  H10X22943  -0.263   3.095   3.126  0.2409  0.4067  0.8934
  186DOPC  C31122944  -0.052   3.066   3.187  0.5418  0.3583 -0.5327
  186DOPC  H11X22945   0.003   3.132   3.118  0.9132 -0.6041 -1.1670
  186DOPC  H11Y22946   0.008   2.976   3.212  2.2459  1.0993 -1.7766
  186DOPC  C31222947  -0.081   3.150   3.324 -0.2758  0.2551 -0.3617
  186DOPC  H12X22948   0.010   3.148   3.389  0.1765 -3.2972 -0.9055
  186DOPC  H12Y22949  -0.157   3.097   3.385 -1.3380  2.1959  0.1207
  186DOPC  C31322950  -0.136   3.291   3.303 -0.3012 -0.5983 -0.1543
  186DOPC  H13X22951  -0.056   3.346   3.249  3.2273 -2.8491  2.4311
  186DOPC  H13Y22952  -0.218   3.269   3.230  0.3563 -0.2238 -1.0312
  186DOPC  C31422953  -0.189   3.362   3.430 -0.5453 -0.7754  0.0070
  186DOPC  H14X22954  -0.237   3.452   3.387  3.1586  0.0791 -2.8570
  186DOPC  H14Y22955  -0.270   3.303   3.479 -1.6662  0.6107 -0.1132
  186DOPC  C31522956  -0.074   3.395   3.526  0.2129  0.0923 -0.3465
  186DOPC  H15X22957   0.015   3.428   3.469 -0.9518  1.4121 -1.4866
  186DOPC  H15Y22958  -0.051   3.296   3.569 -2.5971 -1.2846 -1.7484
  186DOPC  C31622959  -0.108   3.502   3.635 -0.6886 -0.3975  0.0458
  186DOPC  H16X22960  -0.025   3.491   3.708  0.2009  0.4550 -0.7904
  186DOPC  H16Y22961  -0.100   3.609   3.604 -1.0186 -0.5247 -0.4911
  186DOPC  C31722962  -0.235   3.472   3.721  0.3147 -0.2680 -0.3415
  186DOPC  H17X22963  -0.318   3.456   3.649  1.2825 -4.4751 -0.7434
  186DOPC  H17Y22964  -0.216   3.369   3.755 -0.2260 -0.5433 -0.8559
  186DOPC  C31822965  -0.264   3.564   3.842  0.4906  0.2484  0.2409
  186DOPC  H18X22966  -0.270   3.673   3.818 -0.9067 -0.2385 -1.9098
  186DOPC  H18Y22967  -0.360   3.530   3.884  1.0269 -0.6831  0.7269
  186DOPC  H18Z22968  -0.184   3.552   3.918  0.0928 -0.2111  0.5914
  187DOPC     N22969   6.289   1.305   2.299 -0.1091  0.6756 -0.8032
  187DOPC   C1222970   6.423   1.355   2.249 -0.0090 -0.1038  1.0832
  187DOPC  H12A22971   6.486   1.269   2.232 -2.8931 -1.9052 -1.4237
  187DOPC  H12B22972   6.475   1.419   2.320  1.2136 -0.2418  0.3515
  187DOPC   C1322973   6.306   1.221   2.424  0.0462  0.7398 -0.8637
  187DOPC  H13A22974   6.358   1.283   2.496  0.5001 -0.8556  0.2664
  187DOPC  H13B22975   6.207   1.199   2.461  0.2202  1.4223  0.0423
  187DOPC  H13C22976   6.356   1.125   2.419  0.3632  0.9434 -1.7286
  187DOPC   C1422977   6.216   1.207   2.206  0.0232 -0.7911 -0.2937
  187DOPC  H14A22978   6.276   1.117   2.200  0.0487 -0.7544 -0.5716
  187DOPC  H14B22979   6.120   1.172   2.240  0.0599 -1.1240 -0.5322
  187DOPC  H14C22980   6.212   1.250   2.107  0.0088 -1.9699 -0.8167
  187DOPC   C1522981   6.197   1.417   2.332  0.3330 -0.6307  0.5613
  187DOPC  H15A22982   6.194   1.483   2.246  0.5016  0.3257  1.2706
  187DOPC  H15B22983   6.225   1.481   2.415 -0.1163  1.1754 -0.6110
  187DOPC  H15C22984   6.098   1.377   2.347  0.5313 -1.3060  0.1099
  187DOPC   C1122985   6.426   1.422   2.113 -0.9356 -0.2571  0.9785
  187DOPC  H11A22986   6.529   1.428   2.071 -0.4902 -1.1286  1.9230
  187DOPC  H11B22987   6.375   1.355   2.041 -0.7484 -0.2528  0.8387
  187DOPC     P22988   6.432   1.670   2.159  0.2398  0.3643  0.2187
  187DOPC   O1322989   6.325   1.761   2.207  0.1993  0.1542 -0.1370
  187DOPC   O1422990   6.520   1.715   2.049 -0.4479  0.0024  0.2544
  187DOPC   O1222991   6.360   1.547   2.105  0.0872  0.5576  0.6279
  187DOPC   O1122992   6.523   1.618   2.269 -0.0148  0.5690 -0.4277
  187DOPC    C122993   6.604   1.714   2.341 -0.5884  0.2653 -0.0205
  187DOPC    HA22994   6.543   1.801   2.373  0.2288  0.9089 -0.1767
  187DOPC    HB22995   6.689   1.739   2.275  1.8383 -4.8286  0.6453
  187DOPC    C222996   6.661   1.659   2.475  0.3663  0.0758  0.1998
  187DOPC    HS22997   6.677   1.553   2.446  0.7195  0.0156  0.5956
  187DOPC   O2122998   6.569   1.678   2.588  0.1188  0.5101 -0.1105
  187DOPC   C2122999   6.481   1.574   2.615  0.6162  0.1942  0.5065
  187DOPC   O2223000   6.458   1.483   2.542 -0.6595 -0.4316  0.5660
  187DOPC   C2223001   6.418   1.589   2.756  0.4730  0.3811 -0.4485
  187DOPC   H2R23002   6.504   1.631   2.814 -0.5916  0.9746  0.7583
  187DOPC   H2S23003   6.401   1.484   2.789  0.5013  0.1884 -1.0408
  187DOPC    C323004   6.797   1.720   2.509  0.3872 -0.3427 -0.2271
  187DOPC    HX23005   6.772   1.825   2.537 -0.5051  0.0517 -2.2915
  187DOPC    HY23006   6.861   1.725   2.419 -0.3841 -0.1344 -0.7725
  187DOPC   O3123007   6.876   1.652   2.613  0.4683  0.3934  0.0472
  187DOPC   C3123008   6.936   1.542   2.578  0.0629  0.3449  0.2643
  187DOPC   O3223009   6.941   1.487   2.471  0.4292  0.3363 -0.2069
  187DOPC   C3223010   7.002   1.479   2.700 -0.6976 -0.5277 -0.4847
  187DOPC   H2X23011   7.082   1.412   2.661  0.7288  0.7938  0.0471
  187DOPC   H2Y23012   7.052   1.556   2.762  1.5943 -0.8895 -1.7608
  187DOPC   C2323013   6.287   1.675   2.761  0.0227  0.3334 -0.1312
  187DOPC   H3R23014   6.302   1.770   2.705  3.7872 -0.7436 -1.2949
  187DOPC   H3S23015   6.270   1.708   2.866 -1.3708  1.8943 -0.8118
  187DOPC   C2423016   6.161   1.599   2.719 -0.1174  0.5487 -0.0023
  187DOPC   H4R23017   6.174   1.580   2.611  0.8358  0.4423  0.1250
  187DOPC   H4S23018   6.076   1.667   2.742 -1.3786 -0.9285 -0.1083
  187DOPC   C2523019   6.137   1.473   2.797 -0.2497 -0.8960  0.4000
  187DOPC   H5R23020   6.218   1.397   2.797  1.4711  0.7825 -1.6891
  187DOPC   H5S23021   6.052   1.421   2.749  0.3406 -1.5559  0.0539
  187DOPC   C2623022   6.100   1.510   2.945  0.5879  0.1937  0.2517
  187DOPC   H6R23023   5.996   1.550   2.952 -0.1717 -1.7179  0.4392
  187DOPC   H6S23024   6.157   1.591   2.995  0.1136  1.0199 -0.4978
  187DOPC   C2723025   6.081   1.383   3.031  0.8056 -0.3346 -0.6654
  187DOPC   H7R23026   6.174   1.323   3.040  0.5431 -0.6773 -0.2134
  187DOPC   H7S23027   6.012   1.318   2.973  2.0329 -2.1626 -0.1677
  187DOPC   C2823028   6.027   1.404   3.178 -1.0419 -0.0539  0.8299
  187DOPC   H8R23029   6.017   1.302   3.219 -3.1700 -0.6090 -0.8443
  187DOPC   H8S23030   5.926   1.450   3.184 -0.7261  1.1930 -1.7175
  187DOPC   C2923031   6.129   1.466   3.275 -0.1958  0.2063 -0.0357
  187DOPC   H9R23032   6.204   1.396   3.314 -0.2450  0.8640  1.2840
  187DOPC  C21023033   6.133   1.594   3.318 -0.2990 -0.3603  0.1080
  187DOPC  H10R23034   6.203   1.634   3.394  0.7383  0.5756 -1.2682
  187DOPC  C21123035   6.019   1.693   3.284 -0.1710 -0.1075  0.0489
  187DOPC  H11R23036   5.940   1.656   3.217  0.5540  0.7075 -1.2983
  187DOPC  H11S23037   6.059   1.782   3.231 -0.3812 -0.2821 -0.3991
  187DOPC  C21223038   5.939   1.736   3.404  0.7754 -0.5632  0.3632
  187DOPC  H12R23039   5.891   1.645   3.448 -0.1190 -1.2587 -1.9040
  187DOPC  H12S23040   5.857   1.803   3.370  1.2448  0.1111  0.5421
  187DOPC  C21323041   6.009   1.816   3.518 -0.5384 -0.1379 -0.4196
  187DOPC  H13R23042   6.087   1.746   3.554  0.7038  1.2507 -0.3138
  187DOPC  H13S23043   5.950   1.830   3.611  2.6390 -0.1290  1.7434
  187DOPC  C21423044   6.058   1.956   3.483  0.8880  0.0331 -0.7356
  187DOPC  H14R23045   5.974   2.014   3.440  0.9611  0.0151 -0.9035
  187DOPC  H14S23046   6.136   1.948   3.405  0.1642  0.7745 -1.5514
  187DOPC  C21523047   6.104   2.037   3.610 -0.3993 -0.1365  0.3167
  187DOPC  H15R23048   6.212   2.028   3.633 -0.5171  2.6107  2.3461
  187DOPC  H15S23049   6.053   2.012   3.705  3.4203  0.9800  2.8948
  187DOPC  C21623050   6.093   2.190   3.574 -0.0055 -0.1544 -0.2304
  187DOPC  H16R23051   5.987   2.208   3.546  0.1210  1.2873  0.1227
  187DOPC  H16S23052   6.164   2.206   3.490  1.6868 -0.5684  1.0636
  187DOPC  C21723053   6.125   2.298   3.676  0.0301 -0.2233  0.3528
  187DOPC  H17R23054   6.233   2.296   3.700  0.3083 -1.0322 -0.8695
  187DOPC  H17S23055   6.057   2.287   3.763 -2.0215 -0.8430 -1.2526
  187DOPC  C21823056   6.088   2.441   3.627 -0.1449 -0.3220 -0.6349
  187DOPC  H18R23057   5.984   2.445   3.589 -0.8520  0.3154  1.2493
  187DOPC  H18S23058   6.155   2.484   3.550  1.7095 -0.4878  0.8246
  187DOPC  H18T23059   6.097   2.502   3.719  0.6392 -0.1044 -0.8537
  187DOPC   C3323060   6.906   1.409   2.796  0.4932  0.6099  0.1968
  187DOPC   H3X23061   6.969   1.344   2.859 -2.6257 -2.2436  0.6756
  187DOPC   H3Y23062   6.833   1.341   2.746 -1.7533  2.4112  0.8365
  187DOPC   C3423063   6.835   1.500   2.893  0.1346  1.3081  0.2919
  187DOPC   H4X23064   6.772   1.575   2.841  1.4389  0.9161 -2.0108
  187DOPC   H4Y23065   6.911   1.558   2.950  0.0271  1.5057  0.2341
  187DOPC   C3523066   6.746   1.422   2.992 -0.4045  0.2724 -0.2407
  187DOPC   H5X23067   6.814   1.375   3.066  0.6819  1.0875 -0.6820
  187DOPC   H5Y23068   6.692   1.336   2.949 -1.5414  0.1138  1.4017
  187DOPC   C3623069   6.656   1.523   3.070 -0.1087 -0.0841 -0.0918
  187DOPC   H6X23070   6.725   1.598   3.116 -0.5110  0.2143  0.0274
  187DOPC   H6Y23071   6.608   1.586   2.992 -1.8795  1.6748  2.2774
  187DOPC   C3723072   6.551   1.455   3.166 -0.0492  0.1661 -0.7841
  187DOPC   H7X23073   6.475   1.531   3.192 -1.2787 -0.9156 -1.1446
  187DOPC   H7Y23074   6.485   1.375   3.127  1.0917 -0.7243 -0.9597
  187DOPC   C3823075   6.611   1.404   3.293 -0.0965 -0.0309  0.6109
  187DOPC   H8X23076   6.693   1.334   3.267  0.5058  0.0118  2.2891
  187DOPC   H8Y23077   6.543   1.340   3.352  0.2779 -1.7089 -0.6927
  187DOPC   C3923078   6.682   1.507   3.381  0.1776 -0.0061  0.3181
  187DOPC   H9X23079   6.784   1.534   3.351 -0.1586 -0.4985 -1.3521
  187DOPC  C31023080   6.630   1.579   3.482  0.2193 -0.3178 -0.9222
  187DOPC  H10X23081   6.707   1.626   3.545  0.7778 -2.6581  0.2748
  187DOPC  C31123082   6.491   1.565   3.533 -0.0208  0.3007 -0.5457
  187DOPC  H11X23083   6.420   1.572   3.448  0.4642 -1.3421 -1.1217
  187DOPC  H11Y23084   6.469   1.654   3.595 -0.7750 -0.1335 -0.1680
  187DOPC  C31223085   6.458   1.442   3.622  0.5193 -0.7439  0.4070
  187DOPC  H12X23086   6.468   1.461   3.731 -0.4295  0.4289  0.3142
  187DOPC  H12Y23087   6.529   1.360   3.597 -1.0319 -1.1935 -3.1236
  187DOPC  C31323088   6.327   1.386   3.578 -0.5107  0.3753  0.3226
  187DOPC  H13X23089   6.250   1.465   3.590 -1.7186 -0.5252 -1.2018
  187DOPC  H13Y23090   6.331   1.352   3.473  2.2836  0.2128  0.3969
  187DOPC  C31423091   6.288   1.270   3.666 -0.3520  0.0691 -0.4890
  187DOPC  H14X23092   6.374   1.200   3.675 -1.1469 -0.8072  0.6589
  187DOPC  H14Y23093   6.284   1.306   3.771  1.9356  1.0371 -0.6735
  187DOPC  C31523094   6.160   1.201   3.618 -0.0557 -0.1676 -0.2363
  187DOPC  H15X23095   6.153   1.108   3.677  1.8251 -1.4307 -1.8820
  187DOPC  H15Y23096   6.167   1.164   3.514  1.6446  0.7676 -0.4855
  187DOPC  C31623097   6.036   1.284   3.653  0.2336 -1.0283  1.0542
  187DOPC  H16X23098   6.042   1.385   3.608 -0.0700 -1.3413  0.2911
  187DOPC  H16Y23099   5.958   1.232   3.592  1.3742  0.9683 -2.3835
  187DOPC  C31723100   5.996   1.287   3.801 -0.0761 -0.1246  0.5448
  187DOPC  H17X23101   6.010   1.189   3.852  0.4102 -0.4570 -0.1983
  187DOPC  H17Y23102   6.069   1.352   3.853  1.2302 -1.5982  0.6304
  187DOPC  C31823103   5.859   1.347   3.826 -0.0294 -0.1642  0.4220
  187DOPC  H18X23104   5.871   1.458   3.819  0.7747 -0.1742  1.4414
  187DOPC  H18Y23105   5.793   1.304   3.747  0.0150 -1.5082  1.1095
  187DOPC  H18Z23106   5.822   1.322   3.927 -0.3225  1.7235  0.8234
  188DOPC     N23107   2.422   0.778   3.163  0.3914  0.1431 -0.4107
  188DOPC   C1223108   2.388   0.861   3.285  0.4313 -0.1656 -0.3998
  188DOPC  H12A23109   2.328   0.946   3.257 -0.1791 -0.2182  0.7008
  188DOPC  H12B23110   2.476   0.897   3.335  0.2262 -0.7769  0.4131
  188DOPC   C1323111   2.485   0.867   3.072  0.3725  0.3621 -0.4800
  188DOPC  H13A23112   2.412   0.941   3.040 -0.1045 -0.7509 -2.1174
  188DOPC  H13B23113   2.571   0.910   3.121 -0.2114  1.0774 -0.0546
  188DOPC  H13C23114   2.523   0.818   2.983 -1.1507 -2.2393  0.2015
  188DOPC   C1423115   2.299   0.703   3.105  0.1708  0.2555 -0.2490
  188DOPC  H14A23116   2.237   0.770   3.047 -0.7121 -1.6689 -1.6759
  188DOPC  H14B23117   2.334   0.631   3.032  0.8966  0.7835 -0.4395
  188DOPC  H14C23118   2.235   0.660   3.180 -0.3057 -1.9765 -1.8007
  188DOPC   C1523119   2.518   0.674   3.207 -0.0603  1.4999  0.2664
  188DOPC  H15A23120   2.480   0.601   3.278  0.9616  0.0349 -0.6396
  188DOPC  H15B23121   2.610   0.719   3.241  0.8292  0.7077 -1.0093
  188DOPC  H15C23122   2.548   0.620   3.119  0.6194  1.9954  0.1917
  188DOPC   C1123123   2.308   0.795   3.399 -0.7131 -0.5135  0.2551
  188DOPC  H11A23124   2.353   0.696   3.422  0.2635  0.1917  1.5386
  188DOPC  H11B23125   2.308   0.858   3.491 -0.1022  3.0454 -1.9824
  188DOPC     P23126   2.066   0.878   3.329  0.1906 -0.1569  0.2045
  188DOPC   O1323127   1.935   0.803   3.307  0.4167  0.0484 -0.2322
  188DOPC   O1423128   2.114   0.977   3.222 -0.0357  0.2933  0.6334
  188DOPC   O1223129   2.172   0.769   3.365  0.2891 -0.4787 -0.1259
  188DOPC   O1123130   2.052   0.962   3.466  0.1815 -0.4190  0.6221
  188DOPC    C123131   2.003   0.884   3.581 -0.0295 -0.1754 -0.0074
  188DOPC    HA23132   2.061   0.789   3.586  1.2371  0.4091 -2.1385
  188DOPC    HB23133   1.893   0.874   3.568  0.0063  0.7168 -1.2176
  188DOPC    C223134   2.016   0.968   3.716  0.0451  0.6148  0.9600
  188DOPC    HS23135   1.945   0.929   3.791  0.8046  0.8998  1.8490
  188DOPC   O2123136   1.984   1.106   3.698 -0.1038  0.1724 -0.1630
  188DOPC   C2123137   1.986   1.177   3.816  0.7275  0.3251 -0.8067
  188DOPC   O2223138   2.007   1.123   3.928 -0.1946  0.5012  0.5426
  188DOPC   C2223139   1.966   1.326   3.798  0.5524  0.3139  0.3121
  188DOPC   H2R23140   1.880   1.347   3.732 -1.4169  1.4121  3.0462
  188DOPC   H2S23141   2.059   1.361   3.748  0.7223  1.5812  1.4802
  188DOPC    C323142   2.167   0.940   3.767  0.5438 -0.0048 -0.1842
  188DOPC    HX23143   2.194   1.000   3.856  0.0467  0.9463 -0.6639
  188DOPC    HY23144   2.235   0.976   3.686  2.0048 -1.5932  0.2614
  188DOPC   O3123145   2.189   0.797   3.787 -0.2605  0.0236 -0.4793
  188DOPC   C3123146   2.304   0.754   3.744  0.7717 -0.0439  0.1433
  188DOPC   O3223147   2.398   0.817   3.706  0.6628  0.0957  0.7541
  188DOPC   C3223148   2.303   0.602   3.753  0.2232  0.2091 -0.2471
  188DOPC   H2X23149   2.209   0.565   3.707  1.8515 -3.2282 -1.1815
  188DOPC   H2Y23150   2.389   0.567   3.692 -0.9555 -1.7114 -0.8970
  188DOPC   C2323151   1.948   1.398   3.936  0.1760 -0.2091 -0.4372
  188DOPC   H3R23152   2.043   1.389   3.992  0.6577  0.0140 -1.2073
  188DOPC   H3S23153   1.864   1.349   3.989 -0.1834  0.1208 -0.6937
  188DOPC   C2423154   1.924   1.554   3.940 -0.6148  0.2043 -0.0783
  188DOPC   H4R23155   1.963   1.588   4.038  2.6014 -1.6023 -0.6014
  188DOPC   H4S23156   1.818   1.558   3.907  0.0458  0.0014 -2.3574
  188DOPC   C2523157   2.013   1.620   3.835 -0.0352 -0.1679 -0.3624
  188DOPC   H5R23158   1.989   1.728   3.824  1.2466  0.2219  0.4508
  188DOPC   H5S23159   1.998   1.584   3.731  1.2268 -0.7914 -0.3481
  188DOPC   C2623160   2.160   1.634   3.876 -0.2023  0.1859 -0.4632
  188DOPC   H6R23161   2.196   1.534   3.911 -0.7806 -0.2681 -1.1365
  188DOPC   H6S23162   2.174   1.721   3.943  0.8399  2.6519 -3.6668
  188DOPC   C2723163   2.248   1.668   3.749  0.4851  0.6078  0.0594
  188DOPC   H7R23164   2.207   1.764   3.710  1.7628  1.0772 -0.1603
  188DOPC   H7S23165   2.215   1.589   3.678 -0.0492  0.4283  0.4989
  188DOPC   C2823166   2.404   1.671   3.765 -0.4961 -0.2368  0.4353
  188DOPC   H8R23167   2.454   1.678   3.666 -0.5853 -0.0775  0.4022
  188DOPC   H8S23168   2.446   1.571   3.791  1.0075 -0.0042 -0.9330
  188DOPC   C2923169   2.451   1.785   3.849  1.0288  0.4419  0.4552
  188DOPC   H9R23170   2.461   1.883   3.799  3.0329 -0.0612 -0.2602
  188DOPC  C21023171   2.497   1.781   3.974 -0.5107  0.0903  0.2211
  188DOPC  H10R23172   2.523   1.873   4.028 -1.6542 -0.1867  1.2968
  188DOPC  C21123173   2.505   1.653   4.054  0.3804 -0.3386  0.5016
  188DOPC  H11R23174   2.564   1.574   4.002  1.6327  0.5863  0.4567
  188DOPC  H11S23175   2.402   1.612   4.056 -0.6360  1.6592 -2.6379
  188DOPC  C21223176   2.568   1.642   4.197  0.5994  0.2135  0.0708
  188DOPC  H12R23177   2.502   1.697   4.267  0.2560 -0.2903  0.1446
  188DOPC  H12S23178   2.667   1.691   4.202 -0.5214  2.7310 -0.5112
  188DOPC  C21323179   2.572   1.495   4.232  0.4127  0.5021 -0.6803
  188DOPC  H13R23180   2.628   1.430   4.161  0.4475 -0.7247  0.4339
  188DOPC  H13S23181   2.477   1.446   4.259  1.5889 -0.7098  1.5529
  188DOPC  C21423182   2.653   1.475   4.368 -0.2489  0.1608  0.2227
  188DOPC  H14R23183   2.762   1.497   4.356 -0.6088  1.4085 -1.0734
  188DOPC  H14S23184   2.640   1.366   4.386  1.1778 -0.1509 -0.4301
  188DOPC  C21523185   2.597   1.541   4.489 -0.3925 -0.1784  0.3106
  188DOPC  H15R23186   2.487   1.528   4.501 -0.8240  2.5937 -0.0021
  188DOPC  H15S23187   2.606   1.651   4.477 -1.0227 -0.1597 -0.0497
  188DOPC  C21623188   2.687   1.502   4.608  0.1536  0.1565  0.0656
  188DOPC  H16R23189   2.666   1.574   4.691 -0.1992  0.8847 -0.6403
  188DOPC  H16S23190   2.788   1.510   4.563 -0.8933 -1.4143 -2.7832
  188DOPC  C21723191   2.664   1.355   4.646 -0.6485  0.4479  0.0315
  188DOPC  H17R23192   2.698   1.284   4.568 -0.8941  0.8874 -0.4895
  188DOPC  H17S23193   2.553   1.343   4.652 -0.8176  1.1583 -1.2389
  188DOPC  C21823194   2.731   1.312   4.778  0.3647  0.4598 -0.4884
  188DOPC  H18R23195   2.691   1.215   4.815 -1.4361  2.2947  2.7350
  188DOPC  H18S23196   2.718   1.395   4.849  1.3688  0.8484 -0.7434
  188DOPC  H18T23197   2.839   1.300   4.757  0.7590  1.2984  1.0220
  188DOPC   C3323198   2.314   0.551   3.890 -0.3853  0.3925  0.3793
  188DOPC   H3X23199   2.306   0.442   3.876 -0.9177  0.7198 -2.1885
  188DOPC   H3Y23200   2.226   0.575   3.954 -1.0801  0.0773 -0.4507
  188DOPC   C3423201   2.443   0.579   3.977  1.0966  0.5371 -0.3454
  188DOPC   H4X23202   2.534   0.547   3.922  1.8535  2.1417 -0.1031
  188DOPC   H4Y23203   2.432   0.509   4.062 -1.4631  1.2615 -0.0038
  188DOPC   C3523204   2.463   0.715   4.037 -0.0464  0.2130 -0.4080
  188DOPC   H5X23205   2.364   0.747   4.076 -0.4820 -0.5916 -0.8312
  188DOPC   H5Y23206   2.494   0.794   3.965 -0.0747  0.8606  0.2795
  188DOPC   C3623207   2.555   0.714   4.154  0.4667  0.0379 -0.2009
  188DOPC   H6X23208   2.534   0.622   4.212 -0.0145  0.6132  0.5707
  188DOPC   H6Y23209   2.655   0.722   4.107  0.6953 -0.2912  0.2171
  188DOPC   C3723210   2.541   0.839   4.238  0.0603  0.1516  0.4809
  188DOPC   H7X23211   2.580   0.920   4.172  0.6315 -0.3089  0.2328
  188DOPC   H7Y23212   2.433   0.863   4.248  0.1000  0.6210 -0.1469
  188DOPC   C3823213   2.622   0.831   4.364 -0.6649 -0.0469 -0.0962
  188DOPC   H8X23214   2.727   0.795   4.352 -0.2636 -0.0399  2.6683
  188DOPC   H8Y23215   2.574   0.756   4.429 -0.2091 -0.1983  0.0712
  188DOPC   C3923216   2.622   0.968   4.439  0.6697 -0.1413  0.4834
  188DOPC   H9X23217   2.657   1.056   4.383  1.3553 -0.5389  0.2771
  188DOPC  C31023218   2.580   0.984   4.565 -0.1983  0.0874  0.2948
  188DOPC  H10X23219   2.583   1.089   4.599  1.8877 -0.4003  1.7986
  188DOPC  C31123220   2.524   0.890   4.666 -0.1217 -0.4317  0.8710
  188DOPC  H11X23221   2.574   0.916   4.762  1.2258 -1.8027  0.5868
  188DOPC  H11Y23222   2.545   0.787   4.628  1.8048  0.8481 -1.8044
  188DOPC  C31223223   2.377   0.915   4.699  0.7947  0.5694 -0.1664
  188DOPC  H12X23224   2.360   1.020   4.731 -0.8826 -0.1382  1.4118
  188DOPC  H12Y23225   2.338   0.862   4.788  4.6807  0.3185  1.5655
  188DOPC  C31323226   2.281   0.894   4.578 -0.5596 -0.1067  0.4966
  188DOPC  H13X23227   2.270   0.989   4.522 -1.8904 -1.4365 -1.6299
  188DOPC  H13Y23228   2.323   0.812   4.517 -1.5577  0.0917 -0.4933
  188DOPC  C31423229   2.140   0.846   4.620  0.3934  0.6759 -0.0972
  188DOPC  H14X23230   2.159   0.763   4.692  1.5134  0.2271 -0.8681
  188DOPC  H14Y23231   2.090   0.931   4.670  1.0581  0.5446  0.8177
  188DOPC  C31523232   2.040   0.789   4.515 -0.2959 -0.0476 -0.0518
  188DOPC  H15X23233   1.945   0.774   4.571  0.3586 -0.8236  0.8754
  188DOPC  H15Y23234   2.087   0.692   4.489 -0.3735  0.0860 -0.7080
  188DOPC  C31623235   2.032   0.872   4.386 -0.0751 -0.3125 -1.4124
  188DOPC  H16X23236   1.959   0.956   4.391 -0.5754 -0.6266 -3.0331
  188DOPC  H16Y23237   2.126   0.932   4.390 -1.2115  1.5563  1.8671
  188DOPC  C31723238   2.004   0.789   4.268 -0.2570  0.4111  0.0479
  188DOPC  H17X23239   2.057   0.691   4.264 -0.9384  0.0759 -3.0436
  188DOPC  H17Y23240   1.900   0.749   4.266  1.3192 -4.2517 -1.5898
  188DOPC  C31823241   2.047   0.870   4.150 -0.3716  0.7847 -0.2319
  188DOPC  H18X23242   2.015   0.822   4.055 -0.8048 -0.5776  0.5762
  188DOPC  H18Y23243   2.006   0.973   4.148  0.4969  1.1307 -1.4016
  188DOPC  H18Z23244   2.157   0.875   4.136 -0.2007 -3.2515 -1.6844
  189DOPC     N23245   4.641   0.291   2.303  0.2573  0.1948 -0.0838
  189DOPC   C1223246   4.561   0.247   2.423 -0.0323  0.5084  0.1537
  189DOPC  H12A23247   4.589   0.145   2.446  1.5272  1.0739  0.9131
  189DOPC  H12B23248   4.460   0.226   2.389 -0.3460 -0.3013  1.5155
  189DOPC   C1323249   4.579   0.408   2.243 -0.1467  0.2469 -0.2222
  189DOPC  H13A23250   4.631   0.431   2.152  2.1204  0.9500  1.1756
  189DOPC  H13B23251   4.482   0.370   2.213  0.7050 -0.8174 -1.7362
  189DOPC  H13C23252   4.572   0.482   2.322  0.0465  0.5287 -0.4646
  189DOPC   C1423253   4.648   0.182   2.201  0.6493  0.1823 -0.0315
  189DOPC  H14A23254   4.546   0.155   2.175  1.2647 -2.0920 -0.3357
  189DOPC  H14B23255   4.687   0.217   2.107 -0.3712  0.6393 -0.3010
  189DOPC  H14C23256   4.688   0.086   2.232 -0.4348  0.1489  1.3676
  189DOPC   C1523257   4.782   0.332   2.338 -0.4716 -0.0334  0.8353
  189DOPC  H15A23258   4.854   0.334   2.257 -0.7447 -0.9776  0.5626
  189DOPC  H15B23259   4.817   0.254   2.404  1.7847 -1.1161 -1.4834
  189DOPC  H15C23260   4.785   0.426   2.391  0.2629 -0.6621  1.9594
  189DOPC   C1123261   4.561   0.349   2.538 -0.5218  0.7243 -0.5467
  189DOPC  H11A23262   4.515   0.301   2.628 -1.4365 -0.8434 -1.7922
  189DOPC  H11B23263   4.661   0.381   2.574 -0.8886  1.6932 -0.3659
  189DOPC     P23264   4.335   0.456   2.499  0.1430 -0.3223  0.3259
  189DOPC   O1323265   4.293   0.349   2.407  0.3400  0.2437  0.0451
  189DOPC   O1423266   4.267   0.584   2.476 -0.2234 -0.0244 -0.1778
  189DOPC   O1223267   4.493   0.471   2.495  0.2334  0.1479 -0.3544
  189DOPC   O1123268   4.308   0.406   2.640 -0.0735  0.0540  0.1432
  189DOPC    C123269   4.209   0.465   2.728 -0.2740  0.3470 -0.2797
  189DOPC    HA23270   4.168   0.387   2.796 -0.2273  1.5813  1.1950
  189DOPC    HB23271   4.111   0.496   2.686  0.6726  1.6937 -1.5803
  189DOPC    C223272   4.261   0.580   2.820 -0.3045  0.3460 -0.3617
  189DOPC    HS23273   4.262   0.669   2.754 -1.8392 -1.6276 -3.2447
  189DOPC   O2123274   4.390   0.537   2.889 -0.5983 -0.3915  0.0261
  189DOPC   C2123275   4.472   0.635   2.935  0.5817 -0.5713 -0.2652
  189DOPC   O2223276   4.451   0.751   2.913  0.0909 -0.3528  0.4490
  189DOPC   C2223277   4.598   0.569   3.002 -0.2834 -0.1540  0.0033
  189DOPC   H2R23278   4.679   0.641   2.976 -0.1620  0.4145  1.7778
  189DOPC   H2S23279   4.637   0.486   2.940  2.1126  0.9381 -0.0911
  189DOPC    C323280   4.162   0.618   2.942  0.2426 -0.0924 -0.0732
  189DOPC    HX23281   4.059   0.637   2.904 -0.8350  0.4413  2.8403
  189DOPC    HY23282   4.189   0.708   3.001 -1.5604  1.3033 -1.2453
  189DOPC   O3123283   4.149   0.503   3.028 -0.0608 -0.5247  0.1130
  189DOPC   C3123284   4.061   0.503   3.122 -0.1534 -0.2953  0.2745
  189DOPC   O3223285   3.974   0.581   3.141 -0.3714 -0.5676 -0.1389
  189DOPC   C3223286   4.095   0.386   3.215  0.6562  0.3642  0.0814
  189DOPC   H2X23287   4.000   0.334   3.237  1.0381  0.7181  2.9548
  189DOPC   H2Y23288   4.164   0.313   3.167 -0.4759 -1.0189  0.4799
  189DOPC   C2323289   4.606   0.540   3.158  0.9012  1.1357  0.7004
  189DOPC   H3R23290   4.708   0.508   3.187  0.9138  0.7629  0.2520
  189DOPC   H3S23291   4.533   0.458   3.178 -0.9619  1.9215 -2.2411
  189DOPC   C2423292   4.566   0.660   3.250 -0.8757 -0.0839 -0.5233
  189DOPC   H4R23293   4.457   0.679   3.251 -0.8903  0.1891 -2.7426
  189DOPC   H4S23294   4.625   0.738   3.198 -3.0927  0.1313 -2.8859
  189DOPC   C2523295   4.634   0.648   3.392 -0.1714  0.2501  0.0744
  189DOPC   H5R23296   4.588   0.732   3.449  0.6778  0.7040  0.1063
  189DOPC   H5S23297   4.744   0.658   3.382 -0.1993  1.1524  0.5233
  189DOPC   C2623298   4.606   0.524   3.484 -0.0611 -0.4018 -0.4186
  189DOPC   H6R23299   4.684   0.456   3.443  2.7110  0.9333  2.2483
  189DOPC   H6S23300   4.506   0.477   3.473 -0.9198  0.9357  1.3023
  189DOPC   C2723301   4.644   0.546   3.632 -0.1839 -0.1057  0.2704
  189DOPC   H7R23302   4.563   0.606   3.677 -0.0317  0.7492 -0.5703
  189DOPC   H7S23303   4.739   0.603   3.641 -0.5330  0.9834 -2.1913
  189DOPC   C2823304   4.653   0.417   3.715 -0.5987 -0.8973 -0.2210
  189DOPC   H8R23305   4.722   0.442   3.798 -1.5467 -0.5607  0.4801
  189DOPC   H8S23306   4.718   0.352   3.653 -1.5039  0.1408 -2.3840
  189DOPC   C2923307   4.533   0.341   3.761 -0.0027  1.2127 -0.4062
  189DOPC   H9R23308   4.436   0.392   3.751  0.3168  1.5152 -2.2951
  189DOPC  C21023309   4.530   0.218   3.819  0.7798  0.4694  1.0969
  189DOPC  H10R23310   4.433   0.176   3.847  1.2602 -1.3507  0.1554
  189DOPC  C21123311   4.648   0.136   3.860  0.4344  0.0617 -0.0639
  189DOPC  H11R23312   4.670   0.172   3.963 -0.5180 -0.8082  0.4506
  189DOPC  H11S23313   4.727   0.154   3.784 -1.0547  1.5873 -1.3476
  189DOPC  C21223314   4.613  -0.019   3.857  0.3965  0.1921  0.0648
  189DOPC  H12R23315   4.587  -0.045   3.753 -1.0505  0.2099  0.3912
  189DOPC  H12S23316   4.522  -0.037   3.918 -0.3109  0.0361 -1.0096
  189DOPC  C21323317   4.717  -0.117   3.921  0.4290 -0.8644  0.4476
  189DOPC  H13R23318   4.783  -0.136   3.834  0.2883  1.2597 -0.1962
  189DOPC  H13S23319   4.656  -0.205   3.947  0.1758 -1.7174 -2.6623
  189DOPC  C21423320   4.789  -0.053   4.043  0.5992 -0.2373 -0.1157
  189DOPC  H14R23321   4.716  -0.032   4.125  3.9139  3.0435  2.3199
  189DOPC  H14S23322   4.828   0.048   4.021 -0.7976 -0.2465 -3.1560
  189DOPC  C21523323   4.912  -0.120   4.099 -0.3667  0.3215  0.3645
  189DOPC  H15R23324   4.992  -0.122   4.022 -1.4170  2.8249 -0.9129
  189DOPC  H15S23325   4.882  -0.227   4.112 -0.7859  0.2531 -0.9462
  189DOPC  C21623326   4.965  -0.045   4.225  0.4327  0.1563  0.8119
  189DOPC  H16R23327   4.889  -0.038   4.306 -0.4026  0.5186  0.0069
  189DOPC  H16S23328   4.996   0.056   4.193  1.1377 -0.1513  0.5022
  189DOPC  C21723329   5.088  -0.115   4.290  0.1337 -1.1365  0.5647
  189DOPC  H17R23330   5.045  -0.204   4.341 -0.5750 -1.4016 -0.4434
  189DOPC  H17S23331   5.137  -0.046   4.361  0.8160 -3.0396  2.0230
  189DOPC  C21823332   5.204  -0.156   4.195 -0.8608  1.1413  0.6318
  189DOPC  H18R23333   5.239  -0.069   4.134 -3.1934  0.6541 -1.6090
  189DOPC  H18S23334   5.171  -0.234   4.123  1.0704  0.5693  0.3150
  189DOPC  H18T23335   5.291  -0.189   4.255 -1.0234 -1.4226 -0.4263
  189DOPC   C3323336   4.157   0.426   3.351  0.0180 -0.5637  0.2129
  189DOPC   H3X23337   4.245   0.490   3.328  0.2705 -1.0864 -0.3052
  189DOPC   H3Y23338   4.187   0.339   3.414 -2.9152 -1.9037 -0.0456
  189DOPC   C3423339   4.064   0.500   3.443 -0.4852  0.6753 -0.7600
  189DOPC   H4X23340   3.989   0.423   3.474  1.6224 -0.4773  1.8383
  189DOPC   H4Y23341   4.011   0.583   3.391  1.0628  0.9553 -1.9553
  189DOPC   C3523342   4.145   0.539   3.568 -0.2894 -0.0070  0.3217
  189DOPC   H5X23343   4.235   0.589   3.528 -1.8923  0.6404 -2.7463
  189DOPC   H5Y23344   4.166   0.442   3.619 -0.5802  0.8504  2.1616
  189DOPC   C3623345   4.060   0.620   3.660  0.1574 -0.2317 -0.8487
  189DOPC   H6X23346   4.022   0.710   3.608 -1.1655 -1.2922 -1.7543
  189DOPC   H6Y23347   3.969   0.561   3.681  0.1283 -0.1313 -0.6894
  189DOPC   C3723348   4.124   0.660   3.796  0.3726  0.1193  0.3184
  189DOPC   H7X23349   4.054   0.724   3.853 -1.6514 -0.8354 -0.9416
  189DOPC   H7Y23350   4.132   0.568   3.858  1.3506 -1.2380 -1.7242
  189DOPC   C3823351   4.268   0.713   3.783 -0.2920 -0.5872  0.7948
  189DOPC   H8X23352   4.265   0.772   3.688  0.0486 -1.6661  0.0996
  189DOPC   H8Y23353   4.343   0.637   3.754 -0.7104 -0.9689  0.7049
  189DOPC   C3923354   4.317   0.786   3.906 -0.2599  0.3533  0.3651
  189DOPC   H9X23355   4.266   0.882   3.921 -0.9770  0.3793 -1.9214
  189DOPC  C31023356   4.388   0.737   4.006  1.1122 -0.1015  0.3063
  189DOPC  H10X23357   4.431   0.813   4.072  1.8468 -2.6571  2.9790
  189DOPC  C31123358   4.444   0.605   4.023  0.3879  0.3867  0.4670
  189DOPC  H11X23359   4.409   0.545   3.936  1.5996 -0.2277  0.3853
  189DOPC  H11Y23360   4.409   0.567   4.121 -2.0920  1.0338 -0.1112
  189DOPC  C31223361   4.594   0.593   4.043 -0.0090  0.3793  0.3040
  189DOPC  H12X23362   4.638   0.631   3.948  0.7529 -0.9181  0.1321
  189DOPC  H12Y23363   4.636   0.492   4.055  1.6679  0.8663 -1.0488
  189DOPC  C31323364   4.642   0.690   4.158  0.5090  0.0416 -0.0588
  189DOPC  H13X23365   4.634   0.796   4.123  1.0967 -0.3162 -1.3743
  189DOPC  H13Y23366   4.560   0.683   4.232 -0.5103  0.9998 -1.0511
  189DOPC  C31423367   4.782   0.646   4.219  0.6443 -0.3579  0.5483
  189DOPC  H14X23368   4.854   0.668   4.136 -0.5635 -2.7354 -1.2293
  189DOPC  H14Y23369   4.804   0.724   4.295  0.5055  0.7957 -0.5620
  189DOPC  C31523370   4.792   0.496   4.264  0.5688 -0.2094 -0.8228
  189DOPC  H15X23371   4.817   0.425   4.182 -0.3037 -0.5832 -0.7821
  189DOPC  H15Y23372   4.692   0.463   4.300  1.6496 -0.8342  1.8113
  189DOPC  C31623373   4.879   0.477   4.391 -0.1604 -0.4055  0.2583
  189DOPC  H16X23374   4.840   0.552   4.463 -0.3465 -0.2433 -0.0091
  189DOPC  H16Y23375   4.854   0.375   4.427  2.0465 -1.1386 -0.1383
  189DOPC  C31723376   5.032   0.477   4.387  0.3180 -0.0564  0.0132
  189DOPC  H17X23377   5.089   0.555   4.333  1.1128 -2.4412 -2.8731
  189DOPC  H17Y23378   5.061   0.480   4.494  0.2676 -0.7576  0.0511
  189DOPC  C31823379   5.101   0.345   4.341  0.5957  0.2331  0.4143
  189DOPC  H18X23380   5.211   0.348   4.356  0.6917 -1.7463  0.4767
  189DOPC  H18Y23381   5.065   0.268   4.413  1.3310 -0.8935 -0.3892
  189DOPC  H18Z23382   5.085   0.321   4.233  0.0088  1.1768  0.2848
  190DOPC     N23383   3.436   0.194   2.566 -0.0542  0.6044  0.4477
  190DOPC   C1223384   3.367   0.312   2.623 -0.2042  0.4072 -0.3871
  190DOPC  H12A23385   3.270   0.313   2.574  0.7961 -0.9087 -2.5398
  190DOPC  H12B23386   3.410   0.403   2.584 -0.4457  1.1881  1.0801
  190DOPC   C1323387   3.521   0.235   2.457 -0.3615  0.5700  0.1516
  190DOPC  H13A23388   3.565   0.149   2.408 -1.2539 -1.6727  3.0081
  190DOPC  H13B23389   3.465   0.301   2.392  0.3722  0.5995 -0.4670
  190DOPC  H13C23390   3.599   0.301   2.491 -0.3508  1.6619 -1.8365
  190DOPC   C1423391   3.333   0.096   2.516  1.0397 -0.4564  0.0496
  190DOPC  H14A23392   3.376   0.000   2.488  1.1853 -0.6165  0.8206
  190DOPC  H14B23393   3.258   0.067   2.588  0.6514 -0.4401 -0.3390
  190DOPC  H14C23394   3.280   0.144   2.435  0.6630 -0.1105  0.5006
  190DOPC   C1523395   3.519   0.119   2.662  0.3088  0.3009 -0.1705
  190DOPC  H15A23396   3.456   0.087   2.743 -1.6849 -0.9297 -2.1285
  190DOPC  H15B23397   3.597   0.178   2.709 -0.4859  1.0719  0.2177
  190DOPC  H15C23398   3.563   0.026   2.630  1.8396  0.7109  0.5945
  190DOPC   C1123399   3.342   0.340   2.776  0.3673 -0.1122  0.4616
  190DOPC  H11A23400   3.439   0.359   2.827  0.0884 -0.7981  1.2771
  190DOPC  H11B23401   3.273   0.425   2.795  0.3837 -0.2757  1.2790
  190DOPC     P23402   3.136   0.171   2.815 -0.5096  0.0753 -0.2200
  190DOPC   O1323403   3.137   0.029   2.842 -0.8423  0.5876 -0.2434
  190DOPC   O1423404   3.081   0.216   2.688  0.2898  0.0722  0.7519
  190DOPC   O1223405   3.286   0.222   2.827 -0.2576 -0.0115  0.1963
  190DOPC   O1123406   3.063   0.236   2.939  0.0636  0.2157  0.0328
  190DOPC    C123407   3.125   0.233   3.065  0.6015 -0.0235 -0.5245
  190DOPC    HA23408   3.189   0.146   3.089  1.0585  0.4965  0.2267
  190DOPC    HB23409   3.045   0.215   3.141 -0.1380 -0.7683 -1.4615
  190DOPC    C223410   3.211   0.359   3.093 -0.2703 -0.3577 -0.8212
  190DOPC    HS23411   3.309   0.355   3.043  0.3834 -0.2966  0.4139
  190DOPC   O2123412   3.230   0.355   3.238 -0.3791 -0.7303 -0.2825
  190DOPC   C2123413   3.349   0.406   3.283  0.0373 -0.3820  0.0943
  190DOPC   O2223414   3.435   0.458   3.209 -0.9104  0.2927  0.5601
  190DOPC   C2223415   3.353   0.388   3.442 -0.3846  0.5995  0.2986
  190DOPC   H2R23416   3.340   0.281   3.465  1.1750 -0.2760 -2.3924
  190DOPC   H2S23417   3.268   0.446   3.484  0.1174  0.4982  1.4909
  190DOPC    C323418   3.138   0.491   3.060  0.1626  0.8512  0.3043
  190DOPC    HX23419   3.036   0.477   3.102  0.5659  1.5225  1.5545
  190DOPC    HY23420   3.126   0.511   2.951  0.3076  0.9464  0.3062
  190DOPC   O3123421   3.197   0.602   3.138 -0.1924  0.0112  0.7004
  190DOPC   C3123422   3.271   0.691   3.064 -0.4270  0.7471  0.3427
  190DOPC   O3223423   3.299   0.670   2.947  0.2421 -0.4996 -0.0294
  190DOPC   C3223424   3.304   0.815   3.140  0.3357  0.0451  0.1970
  190DOPC   H2X23425   3.395   0.861   3.097  1.6585 -1.3836  1.3580
  190DOPC   H2Y23426   3.231   0.897   3.122  1.1667  1.2971  2.2335
  190DOPC   C2323427   3.488   0.434   3.500  0.0355 -0.1619  0.1191
  190DOPC   H3R23428   3.483   0.540   3.467 -2.8698 -0.4200 -0.5275
  190DOPC   H3S23429   3.572   0.378   3.453 -1.0048 -1.8423  0.2002
  190DOPC   C2423430   3.496   0.430   3.655 -0.5431 -0.3129 -0.1957
  190DOPC   H4R23431   3.492   0.324   3.689 -0.3574 -0.1029  0.4913
  190DOPC   H4S23432   3.419   0.499   3.695  1.0909  2.3324 -1.3236
  190DOPC   C2523433   3.642   0.468   3.699  0.1608  0.0137  0.2753
  190DOPC   H5R23434   3.658   0.577   3.692  0.1195 -0.0487 -0.8491
  190DOPC   H5S23435   3.721   0.412   3.643  0.0461 -0.4363  0.5502
  190DOPC   C2623436   3.658   0.404   3.835 -0.1991  0.4551 -0.4598
  190DOPC   H6R23437   3.669   0.299   3.803 -0.6873  0.6041 -1.1420
  190DOPC   H6S23438   3.565   0.408   3.896 -0.5022 -1.3316 -0.7503
  190DOPC   C2723439   3.785   0.435   3.911  0.1079 -0.5896  0.0773
  190DOPC   H7R23440   3.873   0.462   3.849 -0.3156 -0.4668 -0.4694
  190DOPC   H7S23441   3.810   0.344   3.971 -2.0999 -0.3371  1.4873
  190DOPC   C2823442   3.764   0.533   4.023 -0.7490  0.0845 -0.3653
  190DOPC   H8R23443   3.683   0.506   4.094  0.7795  0.3275  1.5567
  190DOPC   H8S23444   3.745   0.632   3.975  0.2927  0.7467  0.5477
  190DOPC   C2923445   3.891   0.527   4.108  0.7835 -0.1721 -0.4102
  190DOPC   H9R23446   3.974   0.591   4.074  0.6678 -1.1445 -2.7521
  190DOPC  C21023447   3.909   0.454   4.219 -0.0921  0.1156 -0.4711
  190DOPC  H10R23448   4.006   0.465   4.269  1.2243 -0.8756 -2.6221
  190DOPC  C21123449   3.805   0.359   4.279 -0.0126 -0.0643  0.9177
  190DOPC  H11R23450   3.862   0.270   4.312 -0.0149 -0.4774 -0.1635
  190DOPC  H11S23451   3.727   0.326   4.207 -0.4437  0.0837  1.3091
  190DOPC  C21223452   3.730   0.438   4.389 -0.1313  0.4680  0.3551
  190DOPC  H12R23453   3.653   0.375   4.439  0.0474 -1.5394 -1.7634
  190DOPC  H12S23454   3.675   0.515   4.330 -1.0847  1.2786  2.1866
  190DOPC  C21323455   3.795   0.493   4.507  0.3434 -0.2067  0.3939
  190DOPC  H13R23456   3.719   0.535   4.575 -1.1897 -1.8948 -0.2140
  190DOPC  H13S23457   3.865   0.576   4.480  0.7651 -0.3875  0.9141
  190DOPC  C21423458   3.874   0.391   4.593  0.0424  0.0866  0.1144
  190DOPC  H14R23459   3.948   0.334   4.533  1.9677  2.1010  0.4578
  190DOPC  H14S23460   3.799   0.322   4.638  0.9984 -1.6113 -0.8196
  190DOPC  C21523461   3.957   0.455   4.698 -0.2028 -0.3773  0.8106
  190DOPC  H15R23462   3.889   0.519   4.758  1.5559  1.0134  1.4299
  190DOPC  H15S23463   4.041   0.513   4.655 -0.1094  0.1671  1.6861
  190DOPC  C21623464   4.024   0.350   4.789  0.1353  0.1849  0.2219
  190DOPC  H16R23465   4.115   0.397   4.832 -1.2046 -0.2894  3.9472
  190DOPC  H16S23466   4.057   0.260   4.733 -1.1416 -0.3949  0.3696
  190DOPC  C21723467   3.928   0.298   4.899 -0.1250 -0.2793  0.4894
  190DOPC  H17R23468   3.854   0.223   4.863 -0.9155 -0.8433  3.0615
  190DOPC  H17S23469   3.879   0.389   4.938  0.4418  1.0651 -1.7828
  190DOPC  C21823470   4.015   0.229   5.004  0.8508 -0.0381  0.7309
  190DOPC  H18R23471   4.073   0.146   4.959 -1.2845 -1.5528  0.6229
  190DOPC  H18S23472   3.941   0.197   5.081  1.2366  1.2251  1.6588
  190DOPC  H18T23473   4.079   0.304   5.055 -0.2827  1.2507  0.3442
  190DOPC   C3323474   3.329   0.786   3.286  0.2547 -0.0116 -0.1557
  190DOPC   H3X23475   3.435   0.769   3.316 -0.1533 -2.3139  0.1506
  190DOPC   H3Y23476   3.280   0.694   3.323 -0.6049  0.3452 -0.3997
  190DOPC   C3423477   3.275   0.892   3.380 -0.3028 -0.7367 -0.5851
  190DOPC   H4X23478   3.165   0.899   3.362 -0.2049  0.6619 -0.7782
  190DOPC   H4Y23479   3.328   0.982   3.341  3.1244 -2.4746 -0.2733
  190DOPC   C3523480   3.313   0.874   3.527 -0.8143 -0.4112  0.0673
  190DOPC   H5X23481   3.321   0.972   3.579  1.4714 -0.3080 -0.3702
  190DOPC   H5Y23482   3.416   0.835   3.538 -0.3645  0.8794  0.5480
  190DOPC   C3623483   3.224   0.766   3.603 -0.4047  0.4230 -0.3873
  190DOPC   H6X23484   3.120   0.779   3.564  0.2027  0.6782 -1.9672
  190DOPC   H6Y23485   3.249   0.662   3.575 -0.6038  0.4982 -0.8548
  190DOPC   C3723486   3.204   0.772   3.760 -0.3652 -0.0728 -0.3214
  190DOPC   H7X23487   3.304   0.752   3.803 -0.5614  1.9268  1.2152
  190DOPC   H7Y23488   3.174   0.875   3.787 -1.3917  0.0420 -1.7775
  190DOPC   C3823489   3.107   0.670   3.819 -0.6310 -0.3084  0.4016
  190DOPC   H8X23490   3.118   0.696   3.926  0.5301  2.3730 -0.2972
  190DOPC   H8Y23491   3.141   0.567   3.795  2.1421  1.0398 -2.1309
  190DOPC   C3923492   2.969   0.691   3.775 -0.3079 -0.3856 -0.2126
  190DOPC   H9X23493   2.954   0.787   3.724  1.3653  0.2305  0.3803
  190DOPC  C31023494   2.856   0.622   3.799  0.1799 -0.4809 -0.3399
  190DOPC  H10X23495   2.757   0.662   3.773  0.9089  2.1390  0.5747
  190DOPC  C31123496   2.857   0.497   3.869  0.6163  0.0923  0.1355
  190DOPC  H11X23497   2.949   0.438   3.850  0.0765 -0.6565 -0.2237
  190DOPC  H11Y23498   2.779   0.429   3.827  0.4205  1.8162 -2.5405
  190DOPC  C31223499   2.837   0.512   4.017 -0.2117  0.0798 -0.2107
  190DOPC  H12X23500   2.735   0.556   4.024 -0.0657  0.5397 -0.8431
  190DOPC  H12Y23501   2.921   0.576   4.048 -0.8115  1.1894 -0.8061
  190DOPC  C31323502   2.829   0.365   4.073 -0.1999 -0.6049  0.5901
  190DOPC  H13X23503   2.743   0.314   4.025 -0.4980  0.0498  0.4216
  190DOPC  H13Y23504   2.917   0.316   4.027  0.2910 -0.1199  0.9903
  190DOPC  C31423505   2.820   0.348   4.219 -0.3105 -0.0912  0.5629
  190DOPC  H14X23506   2.711   0.350   4.245 -0.5235 -0.2668 -0.2895
  190DOPC  H14Y23507   2.863   0.253   4.256  0.2844  0.7995  2.3083
  190DOPC  C31523508   2.900   0.450   4.299  0.0031 -0.3586  0.1679
  190DOPC  H15X23509   2.858   0.553   4.305  1.3129  0.2054  0.0101
  190DOPC  H15Y23510   3.002   0.455   4.256 -0.5116 -0.1383 -1.0572
  190DOPC  C31623511   2.926   0.400   4.441  0.0439 -1.0259 -0.1150
  190DOPC  H16X23512   2.969   0.297   4.442 -0.5141 -1.3138 -2.0779
  190DOPC  H16Y23513   3.001   0.462   4.494 -0.4472  2.5900 -3.2297
  190DOPC  C31723514   2.803   0.391   4.525  0.5162 -0.9881 -0.6190
  190DOPC  H17X23515   2.765   0.494   4.542  1.2236 -1.0703  1.8945
  190DOPC  H17Y23516   2.727   0.334   4.468 -1.3667  1.5883 -0.8700
  190DOPC  C31823517   2.824   0.328   4.660 -0.5395  0.7458  0.0545
  190DOPC  H18X23518   2.856   0.223   4.644  1.2266  1.1198  0.8414
  190DOPC  H18Y23519   2.900   0.381   4.722  0.8287  2.4448 -2.8277
  190DOPC  H18Z23520   2.725   0.320   4.710  0.0351 -0.6258  1.0594
  191DOPC     N23521   6.137   6.721   2.084 -0.3232 -0.0152  0.4662
  191DOPC   C1223522   6.206   6.832   2.161  0.0041  0.0807  0.0932
  191DOPC  H12A23523   6.214   6.919   2.098  3.3324 -1.2559 -1.5883
  191DOPC  H12B23524   6.309   6.801   2.178  0.1349  1.0755  1.2858
  191DOPC   C1323525   5.996   6.754   2.038 -0.1172 -0.2779  0.4324
  191DOPC  H13A23526   5.931   6.771   2.123 -2.4292  0.2937 -1.3178
  191DOPC  H13B23527   5.992   6.843   1.977  3.4932 -1.2642 -1.5371
  191DOPC  H13C23528   5.957   6.672   1.979  1.4308 -1.1463  0.5744
  191DOPC   C1423529   6.128   6.600   2.170  0.1484  0.5364 -0.0727
  191DOPC  H14A23530   6.068   6.631   2.254 -0.6979  0.5235 -0.6596
  191DOPC  H14B23531   6.096   6.511   2.117 -0.3395  0.5471  0.2023
  191DOPC  H14C23532   6.227   6.582   2.208  0.1540  0.9188  0.0949
  191DOPC   C1523533   6.207   6.705   1.957  0.2223 -0.2019  0.4375
  191DOPC  H15A23534   6.215   6.796   1.898  0.8479 -0.7205 -0.2950
  191DOPC  H15B23535   6.147   6.637   1.899 -0.9367  0.1293  1.2067
  191DOPC  H15C23536   6.311   6.680   1.973  0.1767  0.3469  1.7593
  191DOPC   C1123537   6.140   6.884   2.287 -0.3844  0.0023 -0.4333
  191DOPC  H11A23538   6.130   6.797   2.356  1.3724 -1.0144 -1.4148
  191DOPC  H11B23539   6.214   6.955   2.331 -1.4695  1.1892 -0.4449
  191DOPC     P23540   5.998   7.099   2.229  0.2749  0.0195  0.2333
  191DOPC   O1323541   5.855   7.110   2.196 -0.0104 -0.1361  0.9349
  191DOPC   O1423542   6.096   7.150   2.129  0.4430  0.5609 -0.4330
  191DOPC   O1223543   6.011   6.941   2.247  0.4044  0.6723 -0.6426
  191DOPC   O1123544   6.033   7.152   2.371 -0.4976 -0.1130 -0.0998
  191DOPC    C123545   5.928   7.163   2.472  0.0227 -0.0787  0.5641
  191DOPC    HA23546   5.976   7.140   2.569  0.9782  0.7104  0.2980
  191DOPC    HB23547   5.839   7.100   2.449  1.2653 -1.1909 -1.4434
  191DOPC    C223548   5.879   7.304   2.481 -0.3925  0.3804  0.3881
  191DOPC    HS23549   5.838   7.333   2.382  0.7858 -0.8204 -0.4857
  191DOPC   O2123550   5.990   7.381   2.527 -0.3914  0.0741  0.1740
  191DOPC   C2123551   6.021   7.489   2.452  0.5379 -0.1760 -0.0264
  191DOPC   O2223552   5.959   7.520   2.352  0.1447  0.2890  0.4524
  191DOPC   C2223553   6.145   7.559   2.509  0.0566  0.2559 -0.3106
  191DOPC   H2R23554   6.222   7.552   2.429  0.1106  0.3433 -0.2668
  191DOPC   H2S23555   6.184   7.516   2.603 -0.2129  1.8432  0.5706
  191DOPC    C323556   5.765   7.316   2.587 -0.1200  1.1122  0.4098
  191DOPC    HX23557   5.812   7.296   2.686  0.3023 -0.8117 -0.1539
  191DOPC    HY23558   5.694   7.231   2.580  0.7946  0.2964  0.8958
  191DOPC   O3123559   5.687   7.437   2.596 -0.5382  0.1015  0.0509
  191DOPC   C3123560   5.556   7.431   2.572 -0.0430 -0.3821  0.5843
  191DOPC   O3223561   5.495   7.333   2.540  0.5941  0.3238  0.2703
  191DOPC   C3223562   5.491   7.572   2.598 -0.3577  0.3962  0.3014
  191DOPC   H2X23563   5.566   7.651   2.620  0.1919 -0.0871  0.1690
  191DOPC   H2Y23564   5.444   7.586   2.498  0.6957  1.6974 -0.0399
  191DOPC   C2323565   6.116   7.706   2.548 -0.0984 -0.0026 -0.3443
  191DOPC   H3R23566   6.023   7.708   2.608 -1.2854  1.3422 -2.1299
  191DOPC   H3S23567   6.088   7.755   2.452 -0.5441  0.5354  0.0567
  191DOPC   C2423568   6.235   7.781   2.615 -0.0863 -0.2415 -0.0737
  191DOPC   H4R23569   6.334   7.783   2.565  1.0535  1.9149  2.0798
  191DOPC   H4S23570   6.245   7.740   2.717  1.4903  0.3481  0.0450
  191DOPC   C2523571   6.196   7.929   2.650 -0.3873 -0.6274  0.1979
  191DOPC   H5R23572   6.097   7.931   2.699 -0.5692  1.7091 -0.1857
  191DOPC   H5S23573   6.184   7.987   2.556 -2.2834 -0.7265  0.3509
  191DOPC   C2623574   6.297   8.000   2.741  0.5800 -0.2761 -0.0489
  191DOPC   H6R23575   6.292   8.111   2.733  2.8424  0.0200  1.6097
  191DOPC   H6S23576   6.394   7.956   2.708  0.6613 -1.4611  1.6143
  191DOPC   C2723577   6.284   7.959   2.888 -0.0366 -0.0816  0.1723
  191DOPC   H7R23578   6.346   8.035   2.941  0.4304 -1.1513  1.2119
  191DOPC   H7S23579   6.322   7.854   2.884 -1.7692 -0.7811  0.9144
  191DOPC   C2823580   6.140   7.974   2.948  0.4521  0.1395 -0.1819
  191DOPC   H8R23581   6.127   7.917   3.042 -2.0565 -1.1623 -1.2298
  191DOPC   H8S23582   6.066   7.923   2.883  1.4913  1.4575 -2.5501
  191DOPC   C2923583   6.100   8.116   2.980 -0.1026 -0.3029 -0.2539
  191DOPC   H9R23584   6.111   8.181   2.892 -2.1459 -0.9250 -1.0210
  191DOPC  C21023585   6.064   8.172   3.094 -0.0472 -0.3346 -0.3636
  191DOPC  H10R23586   6.037   8.279   3.101  0.2880 -0.2082 -0.9297
  191DOPC  C21123587   6.063   8.103   3.233 -0.3028  0.6954  0.2131
  191DOPC  H11R23588   6.087   7.994   3.231 -2.2360  0.0429  3.6304
  191DOPC  H11S23589   5.958   8.114   3.267 -0.2415 -0.1358  0.7037
  191DOPC  C21223590   6.166   8.165   3.330  0.1305 -0.2539 -0.1788
  191DOPC  H12R23591   6.122   8.264   3.358 -0.2604 -0.2970 -0.6237
  191DOPC  H12S23592   6.269   8.181   3.292  0.2576 -0.2607  0.1637
  191DOPC  C21323593   6.171   8.077   3.455  0.0141 -0.4272 -0.0924
  191DOPC  H13R23594   6.255   8.120   3.513 -2.5288  2.9994  1.3889
  191DOPC  H13S23595   6.207   7.977   3.422  2.1228  0.6428 -1.1988
  191DOPC  C21423596   6.040   8.080   3.538 -0.7094  0.4737  0.7133
  191DOPC  H14R23597   5.963   8.020   3.484 -2.2378  3.3716 -0.5852
  191DOPC  H14S23598   6.004   8.182   3.561 -0.2119  0.3149  2.2854
  191DOPC  C21523599   6.047   8.005   3.672 -0.2731 -0.0689 -0.0368
  191DOPC  H15R23600   6.088   7.905   3.646  0.5204 -0.0815  1.1909
  191DOPC  H15S23601   5.947   7.994   3.718 -0.3684  2.1852  0.3893
  191DOPC  C21623602   6.146   8.065   3.773 -0.6423  0.2696  0.1958
  191DOPC  H16R23603   6.105   8.163   3.806 -2.0450 -0.6347  1.2744
  191DOPC  H16S23604   6.247   8.075   3.728  0.1940  0.0673  1.9540
  191DOPC  C21723605   6.166   7.987   3.909 -0.8963 -0.3768  0.9291
  191DOPC  H17R23606   6.234   8.041   3.978 -0.5288  0.4991 -0.0792
  191DOPC  H17S23607   6.224   7.902   3.869  0.4213  1.2550 -0.8201
  191DOPC  C21823608   6.040   7.944   3.984 -0.3594 -0.1923  0.3430
  191DOPC  H18R23609   6.061   7.858   4.051 -1.1184  0.7277  1.8135
  191DOPC  H18S23610   5.958   7.920   3.913  2.6388 -3.3635 -2.4489
  191DOPC  H18T23611   6.016   8.033   4.045  1.9058  0.2563  0.6758
  191DOPC   C3323612   5.382   7.570   2.709 -0.4958 -1.1428  0.0012
  191DOPC   H3X23613   5.340   7.467   2.711  1.0615 -1.8015  0.9182
  191DOPC   H3Y23614   5.307   7.649   2.690  0.4597  0.4310  2.3725
  191DOPC   C3423615   5.443   7.592   2.842 -0.0930  0.2747 -0.5708
  191DOPC   H4X23616   5.470   7.698   2.859  1.9487 -0.3625  0.4773
  191DOPC   H4Y23617   5.536   7.533   2.852  0.0087  0.5209 -0.0537
  191DOPC   C3523618   5.337   7.564   2.958  0.4574  0.4303  0.8789
  191DOPC   H5X23619   5.282   7.468   2.943 -2.1987  2.1015 -1.1174
  191DOPC   H5Y23620   5.258   7.639   2.936 -1.2293 -0.3842  3.7025
  191DOPC   C3623621   5.394   7.580   3.097 -0.1870  0.4638  0.1073
  191DOPC   H6X23622   5.503   7.559   3.100 -0.2540  0.2320  2.1653
  191DOPC   H6Y23623   5.393   7.687   3.125 -1.1816  1.0093 -1.8319
  191DOPC   C3723624   5.312   7.496   3.203 -0.0042 -0.2729  0.0351
  191DOPC   H7X23625   5.209   7.536   3.190  0.9423  2.4330  0.2666
  191DOPC   H7Y23626   5.307   7.389   3.173  1.1574 -0.3976  0.2362
  191DOPC   C3823627   5.368   7.500   3.346  0.9689  0.4003 -0.1568
  191DOPC   H8X23628   5.475   7.472   3.357  0.4500 -1.1861  1.3005
  191DOPC   H8Y23629   5.301   7.427   3.396  1.2463  0.1950 -0.0870
  191DOPC   C3923630   5.352   7.636   3.398  0.0222  0.4604 -0.0525
  191DOPC   H9X23631   5.367   7.716   3.324  1.1754  0.6599  0.3751
  191DOPC  C31023632   5.294   7.669   3.517 -0.4537 -0.5265  0.0824
  191DOPC  H10X23633   5.291   7.773   3.554 -0.1024 -0.7093  0.6345
  191DOPC  C31123634   5.248   7.568   3.620 -0.0771 -0.0517  0.0701
  191DOPC  H11X23635   5.259   7.608   3.723 -1.5276  0.3212  0.1031
  191DOPC  H11Y23636   5.312   7.478   3.609  0.0481 -0.1285  1.2933
  191DOPC  C31223637   5.106   7.515   3.593 -0.5388 -0.0175 -0.2224
  191DOPC  H12X23638   5.078   7.511   3.485  1.7221  0.0290 -0.8720
  191DOPC  H12Y23639   5.040   7.584   3.650  1.6056  1.2708  0.8102
  191DOPC  C31323640   5.095   7.369   3.640 -0.6988 -0.5607 -0.8555
  191DOPC  H13X23641   5.179   7.310   3.598  0.1135  1.2595 -1.9456
  191DOPC  H13Y23642   5.117   7.375   3.749 -0.9264  0.5711 -0.8571
  191DOPC  C31423643   4.955   7.301   3.631 -0.3825  0.7578  0.2846
  191DOPC  H14X23644   4.878   7.369   3.590 -0.3567 -0.4724 -1.9377
  191DOPC  H14Y23645   4.960   7.209   3.569  0.8406 -0.4778  2.0733
  191DOPC  C31523646   4.917   7.240   3.765  0.0943  0.2444 -0.2319
  191DOPC  H15X23647   4.807   7.226   3.760 -0.0449  1.4960 -1.2022
  191DOPC  H15Y23648   4.931   7.325   3.835  2.4728 -1.2807  1.2892
  191DOPC  C31623649   4.991   7.121   3.815 -0.2505  0.5769 -0.2070
  191DOPC  H16X23650   4.967   7.041   3.741 -2.8969  0.6165  0.5019
  191DOPC  H16Y23651   5.101   7.132   3.804 -0.4646  0.5502 -3.4863
  191DOPC  C31723652   4.943   7.073   3.955 -0.0154  0.3790 -0.4139
  191DOPC  H17X23653   5.021   7.005   3.995 -1.5632 -1.0233  0.3259
  191DOPC  H17Y23654   4.933   7.161   4.022  0.1113 -0.2184  0.4066
  191DOPC  C31823655   4.806   7.004   3.956 -0.5005 -0.2438 -0.0164
  191DOPC  H18X23656   4.801   6.899   3.922  0.2712 -0.0434 -0.7636
  191DOPC  H18Y23657   4.787   7.014   4.065  1.6002  1.5918  0.2841
  191DOPC  H18Z23658   4.726   7.067   3.912 -2.9346 -2.5960  0.8037
  192DOPC     N23659   1.358   4.244   2.625 -0.3635 -0.3150 -0.3692
  192DOPC   C1223660   1.385   4.332   2.748  0.4978  0.0290  0.5238
  192DOPC  H12A23661   1.489   4.359   2.756  0.6190 -0.2838 -0.0011
  192DOPC  H12B23662   1.362   4.284   2.842  2.6808  0.1923  1.2095
  192DOPC   C1323663   1.441   4.126   2.649  0.3259  0.4756  0.2821
  192DOPC  H13A23664   1.546   4.149   2.638  0.5451 -0.4365  0.3867
  192DOPC  H13B23665   1.420   4.080   2.745 -1.7614  0.3037 -0.1965
  192DOPC  H13C23666   1.411   4.047   2.582  1.7612  0.6105 -0.5590
  192DOPC   C1423667   1.390   4.316   2.500  0.2373  0.2287  0.5110
  192DOPC  H14A23668   1.396   4.255   2.411 -1.2228  2.1133 -0.9422
  192DOPC  H14B23669   1.322   4.397   2.481  1.6151  1.3676  0.2502
  192DOPC  H14C23670   1.488   4.361   2.509  0.3485 -0.0135  0.5481
  192DOPC   C1523671   1.218   4.197   2.615 -0.0250 -0.0010 -0.4958
  192DOPC  H15A23672   1.207   4.128   2.533  2.4352  0.6482 -1.4663
  192DOPC  H15B23673   1.141   4.271   2.600  0.3124  0.2453 -1.0444
  192DOPC  H15C23674   1.193   4.133   2.699  1.4706 -1.0796 -0.8366
  192DOPC   C1123675   1.305   4.464   2.757 -0.1277  0.5149 -1.0528
  192DOPC  H11A23676   1.196   4.446   2.753  0.1421 -2.2568  0.9702
  192DOPC  H11B23677   1.317   4.503   2.861 -2.2871  1.8137 -1.2378
  192DOPC     P23678   1.284   4.684   2.606  0.1636 -0.1903  0.5711
  192DOPC   O1323679   1.154   4.632   2.556  0.0559  0.5708 -0.0969
  192DOPC   O1423680   1.378   4.740   2.506  0.8817 -0.4149 -0.1741
  192DOPC   O1223681   1.364   4.560   2.674 -0.4653 -0.0130 -0.4213
  192DOPC   O1123682   1.272   4.793   2.717  0.3152  0.1798  0.1162
  192DOPC    C123683   1.151   4.799   2.801 -0.2693  0.2952 -0.5921
  192DOPC    HA23684   1.159   4.720   2.878  2.2467  0.9611 -0.0776
  192DOPC    HB23685   1.062   4.787   2.735  0.2632  1.0565 -1.4813
  192DOPC    C223686   1.147   4.934   2.870  0.3938  0.2271  0.6892
  192DOPC    HS23687   1.179   5.009   2.795  1.3576 -0.4286  0.4299
  192DOPC   O2123688   1.227   4.932   2.981  0.1002 -0.1120  0.4673
  192DOPC   C2123689   1.297   5.039   3.008 -0.1086  0.7062  0.1417
  192DOPC   O2223690   1.299   5.140   2.945  0.2575  0.2238  0.1176
  192DOPC   C2223691   1.359   5.013   3.145  0.2327  0.0292 -0.1676
  192DOPC   H2R23692   1.421   4.921   3.135 -0.1674 -0.5533  2.2154
  192DOPC   H2S23693   1.281   4.994   3.222  1.1776  3.0718  1.6845
  192DOPC    C323694   1.005   4.983   2.903 -0.5745 -0.0144 -0.2750
  192DOPC    HX23695   0.961   4.906   2.970  2.6138 -0.6927  1.2780
  192DOPC    HY23696   0.939   4.982   2.814 -1.3582 -0.3081  0.2920
  192DOPC   O3123697   1.009   5.112   2.963  0.0226  0.1514 -0.0874
  192DOPC   C3123698   0.996   5.220   2.887 -0.2048 -0.2727 -0.1092
  192DOPC   O3223699   0.988   5.218   2.765 -0.3451  1.1042  1.1574
  192DOPC   C3223700   0.976   5.349   2.972 -0.7597 -0.3010  0.3669
  192DOPC   H2X23701   0.899   5.417   2.928  0.4505  0.9620  0.1203
  192DOPC   H2Y23702   0.945   5.333   3.077  0.5818  2.4272  1.2477
  192DOPC   C2323703   1.440   5.132   3.199 -0.0901  0.6731 -0.2345
  192DOPC   H3R23704   1.379   5.224   3.190  0.1803  1.1650  2.2850
  192DOPC   H3S23705   1.530   5.146   3.135  1.5036  0.3706  1.8248
  192DOPC   C2423706   1.472   5.128   3.349  0.2780  0.1047 -0.7389
  192DOPC   H4R23707   1.534   5.037   3.367  2.0617  1.3788 -0.1376
  192DOPC   H4S23708   1.391   5.128   3.424  2.5382  1.3274  1.8659
  192DOPC   C2523709   1.568   5.234   3.401  0.1399 -0.4800  0.3628
  192DOPC   H5R23710   1.533   5.335   3.371 -1.8310 -1.3146 -0.2906
  192DOPC   H5S23711   1.670   5.221   3.360  0.1030 -1.1594  0.4858
  192DOPC   C2623712   1.583   5.244   3.557 -0.1918  0.4306  0.0903
  192DOPC   H6R23713   1.626   5.152   3.600 -0.7893 -1.2323 -2.6499
  192DOPC   H6S23714   1.477   5.244   3.591 -0.1232 -0.5285  0.3234
  192DOPC   C2723715   1.658   5.367   3.613  0.0065  0.6105 -0.3291
  192DOPC   H7R23716   1.656   5.359   3.724  2.5811 -0.6386 -0.2784
  192DOPC   H7S23717   1.600   5.458   3.588 -2.4473 -0.7504  0.1289
  192DOPC   C2823718   1.799   5.380   3.562 -1.2653 -0.1074  0.8028
  192DOPC   H8R23719   1.794   5.407   3.454  2.4558 -2.8923 -0.2714
  192DOPC   H8S23720   1.860   5.288   3.554 -0.4030  0.4633  0.6504
  192DOPC   C2923721   1.872   5.488   3.638 -0.5639  0.3702 -0.4050
  192DOPC   H9R23722   1.871   5.589   3.594 -0.2911  0.5822  0.0697
  192DOPC  C21023723   1.929   5.469   3.755 -0.4131  0.5324  0.4469
  192DOPC  H10R23724   1.976   5.558   3.800  0.2868  1.2647 -1.6245
  192DOPC  C21123725   1.916   5.353   3.846  0.0648  0.4827 -0.2953
  192DOPC  H11R23726   2.006   5.289   3.829  0.1473  1.2608 -3.4020
  192DOPC  H11S23727   1.826   5.293   3.822 -1.1291  1.5718  1.2649
  192DOPC  C21223728   1.921   5.403   3.992  0.2631 -0.7305  0.3764
  192DOPC  H12R23729   1.832   5.464   4.019 -0.7548 -1.4650 -1.1320
  192DOPC  H12S23730   2.016   5.455   4.015  1.3100 -3.0905  1.7152
  192DOPC  C21323731   1.914   5.282   4.092  0.4293  0.3928  0.6276
  192DOPC  H13R23732   1.987   5.200   4.071  0.7691  0.4829  1.3984
  192DOPC  H13S23733   1.816   5.233   4.079  1.4437 -2.4905  2.7134
  192DOPC  C21423734   1.927   5.328   4.237  0.3282 -0.5350 -0.2621
  192DOPC  H14R23735   2.009   5.401   4.255  0.7570 -1.1276  0.2412
  192DOPC  H14S23736   1.947   5.244   4.307  0.4355 -0.4076 -0.1403
  192DOPC  C21523737   1.803   5.398   4.300  0.4049 -0.4818  0.4192
  192DOPC  H15R23738   1.710   5.345   4.269 -0.1148  0.6777 -0.0500
  192DOPC  H15S23739   1.795   5.500   4.257  1.6945 -1.7255 -3.1840
  192DOPC  C21623740   1.812   5.399   4.453 -0.2796  0.2287 -0.2899
  192DOPC  H16R23741   1.771   5.496   4.489 -1.8192 -0.1699 -0.9227
  192DOPC  H16S23742   1.913   5.386   4.497 -0.3742 -2.7886 -0.7323
  192DOPC  C21723743   1.738   5.279   4.508 -0.0554  0.7349  0.8100
  192DOPC  H17R23744   1.793   5.191   4.468  0.5543  1.4199  0.1021
  192DOPC  H17S23745   1.639   5.263   4.461  1.0295 -0.1084 -1.3359
  192DOPC  C21823746   1.718   5.252   4.663  0.7112 -0.4342 -0.2406
  192DOPC  H18R23747   1.643   5.173   4.685  0.2505  0.4460  1.5366
  192DOPC  H18S23748   1.680   5.347   4.706  1.7307  0.0301 -0.3458
  192DOPC  H18T23749   1.819   5.239   4.707  1.0661  0.1091 -0.8762
  192DOPC   C3323750   1.112   5.414   2.976 -0.2024  0.6737  0.1169
  192DOPC   H3X23751   1.178   5.351   3.039 -0.8432 -1.8804 -1.6061
  192DOPC   H3Y23752   1.105   5.511   3.029 -2.6052  2.0087 -2.4221
  192DOPC   C3423753   1.190   5.443   2.846  0.5700  0.1633  0.1186
  192DOPC   H4X23754   1.126   5.491   2.769 -0.1873  0.2067  0.7665
  192DOPC   H4Y23755   1.234   5.348   2.810  2.7047  1.2975 -0.4898
  192DOPC   C3523756   1.317   5.522   2.870 -0.0016 -0.0091 -0.1996
  192DOPC   H5X23757   1.377   5.527   2.776 -0.8588  2.1854 -0.7044
  192DOPC   H5Y23758   1.375   5.476   2.953  0.1897  1.5560  0.5639
  192DOPC   C3623759   1.288   5.668   2.897 -0.1316 -0.6562 -0.1772
  192DOPC   H6X23760   1.211   5.708   2.827  1.0116 -1.1094 -1.7397
  192DOPC   H6Y23761   1.237   5.677   2.995  1.4441  1.1583  0.5405
  192DOPC   C3723762   1.401   5.774   2.904  0.6551 -0.1620 -0.0423
  192DOPC   H7X23763   1.473   5.723   2.836 -1.5047  0.6390 -3.1406
  192DOPC   H7Y23764   1.361   5.868   2.860  1.7510  0.0557 -0.6025
  192DOPC   C3823765   1.456   5.800   3.046  0.8053 -0.4898  0.2968
  192DOPC   H8X23766   1.380   5.840   3.116 -0.3888  0.0511 -1.2619
  192DOPC   H8Y23767   1.537   5.875   3.039  1.8563 -1.4526  1.6352
  192DOPC   C3923768   1.520   5.674   3.088 -0.1142  0.1456 -0.1008
  192DOPC   H9X23769   1.577   5.633   3.003 -0.4078 -1.5407  0.4726
  192DOPC  C31023770   1.514   5.607   3.201  0.0860  0.4859  0.1104
  192DOPC  H10X23771   1.579   5.520   3.214 -0.7076 -0.0584  0.5787
  192DOPC  C31123772   1.426   5.661   3.313  0.2609 -1.0673 -0.3527
  192DOPC  H11X23773   1.428   5.771   3.308 -1.6853 -0.8810  1.5860
  192DOPC  H11Y23774   1.455   5.638   3.418  0.4963 -1.6624 -0.5408
  192DOPC  C31223775   1.270   5.629   3.298 -0.4517  0.1377 -0.4204
  192DOPC  H12X23776   1.243   5.669   3.199  1.4974  1.4773 -0.4839
  192DOPC  H12Y23777   1.227   5.692   3.379 -1.0712 -1.9756  0.9735
  192DOPC  C31323778   1.224   5.486   3.302 -0.5328 -0.3717  0.4437
  192DOPC  H13X23779   1.124   5.480   3.255  0.5678  1.6226 -2.4700
  192DOPC  H13Y23780   1.295   5.432   3.236 -0.7641 -0.8127  0.5584
  192DOPC  C31423781   1.225   5.422   3.444 -0.1429  0.3425  0.1367
  192DOPC  H14X23782   1.331   5.398   3.466  0.5119  2.1899 -0.8265
  192DOPC  H14Y23783   1.182   5.494   3.516 -0.7399 -2.2501  2.5649
  192DOPC  C31523784   1.143   5.293   3.433 -0.5305 -0.2567 -0.6456
  192DOPC  H15X23785   1.192   5.231   3.356  0.2764 -0.8255  0.3061
  192DOPC  H15Y23786   1.047   5.318   3.383  0.4415  1.1590 -1.8746
  192DOPC  C31623787   1.136   5.222   3.572  0.4360  0.2118 -0.0203
  192DOPC  H16X23788   1.033   5.180   3.568  0.2432  0.7806 -2.2199
  192DOPC  H16Y23789   1.203   5.134   3.582 -1.8531 -1.4875  1.9562
  192DOPC  C31723790   1.145   5.317   3.695 -0.9859  0.0209 -0.1039
  192DOPC  H17X23791   1.238   5.379   3.704 -0.6114 -0.6458  0.6691
  192DOPC  H17Y23792   1.057   5.382   3.674 -0.1825  0.8449 -1.0788
  192DOPC  C31823793   1.137   5.240   3.822 -0.0476 -0.1748 -0.7935
  192DOPC  H18X23794   1.043   5.181   3.816 -0.9262  1.2410 -1.7005
  192DOPC  H18Y23795   1.225   5.173   3.829  1.2292  1.4870 -0.1956
  192DOPC  H18Z23796   1.136   5.313   3.907  0.3638  1.1260 -1.8759
  193DOPC     N23797   7.350   2.575   2.005  0.3877 -0.2320  0.1728
  193DOPC   C1223798   7.344   2.424   2.017 -0.1642 -0.2656  0.1528
  193DOPC  H12A23799   7.369   2.379   1.921  0.0758 -0.2409  0.2042
  193DOPC  H12B23800   7.245   2.398   2.051 -0.2493 -0.1805 -0.0272
  193DOPC   C1323801   7.472   2.616   1.922 -0.7244  0.9409  0.9544
  193DOPC  H13A23802   7.468   2.719   1.890 -0.3023  0.1898 -1.7062
  193DOPC  H13B23803   7.564   2.594   1.974  0.0253  0.6664 -0.4493
  193DOPC  H13C23804   7.476   2.559   1.830  0.9821 -0.6750  1.9659
  193DOPC   C1423805   7.358   2.642   2.139  0.3027 -0.0956 -0.6823
  193DOPC  H14A23806   7.371   2.749   2.131 -0.1988  0.1254  0.9839
  193DOPC  H14B23807   7.265   2.624   2.192  0.5288 -0.5274 -0.4196
  193DOPC  H14C23808   7.438   2.598   2.197 -0.5606 -2.0518 -0.9069
  193DOPC   C1523809   7.223   2.634   1.940  0.1239 -0.1777 -0.1359
  193DOPC  H15A23810   7.208   2.607   1.836  0.5558 -0.2241 -0.1887
  193DOPC  H15B23811   7.216   2.742   1.943 -0.4829 -0.1541 -1.4561
  193DOPC  H15C23812   7.138   2.599   1.996  0.1160 -1.0267 -0.6659
  193DOPC   C1123813   7.438   2.346   2.123  0.2517  0.0230  0.1303
  193DOPC  H11A23814   7.422   2.240   2.092  0.7681 -0.4103  1.2807
  193DOPC  H11B23815   7.542   2.376   2.098  0.1485  1.3414  1.1797
  193DOPC     P23816   7.258   2.318   2.318 -0.1212 -0.0131 -0.1776
  193DOPC   O1323817   7.271   2.167   2.337  1.0535  0.0287 -0.5013
  193DOPC   O1423818   7.154   2.364   2.227  0.3463 -0.0247  0.4604
  193DOPC   O1223819   7.392   2.373   2.259 -0.2742 -0.2268  0.6483
  193DOPC   O1123820   7.229   2.387   2.460 -0.0179  0.1295  0.2964
  193DOPC    C123821   7.285   2.509   2.505  0.1938 -0.1060  0.4694
  193DOPC    HA23822   7.225   2.552   2.588  1.5631  3.0354 -0.0170
  193DOPC    HB23823   7.279   2.594   2.434 -0.6612 -0.8525 -0.3831
  193DOPC    C223824   7.426   2.489   2.548  0.1317 -0.3011  0.0896
  193DOPC    HS23825   7.482   2.428   2.473  0.5939  1.4010 -1.0094
  193DOPC   O2123826   7.426   2.426   2.677  0.2351 -0.0291 -0.1726
  193DOPC   C2123827   7.436   2.292   2.676 -0.5181  0.0541  0.1359
  193DOPC   O2223828   7.463   2.222   2.577  0.5684 -0.1039 -0.0860
  193DOPC   C2223829   7.399   2.248   2.818  0.4531 -0.4253 -0.0997
  193DOPC   H2R23830   7.291   2.229   2.835  0.0771  0.1509 -1.7145
  193DOPC   H2S23831   7.419   2.329   2.891 -1.5228 -0.7958  0.9409
  193DOPC    C323832   7.513   2.614   2.561 -0.2572 -0.1288 -0.4630
  193DOPC    HX23833   7.471   2.675   2.644 -1.1616  1.2106 -1.8403
  193DOPC    HY23834   7.503   2.679   2.471  3.3276 -0.4252 -1.2045
  193DOPC   O3123835   7.649   2.581   2.589 -0.3728 -0.0992 -0.4235
  193DOPC   C3123836   7.724   2.551   2.484  0.2428  0.9486 -0.3708
  193DOPC   O3223837   7.684   2.546   2.370  0.1590 -0.0559 -0.4775
  193DOPC   C3223838   7.864   2.539   2.528 -0.2258 -0.2202 -0.2466
  193DOPC   H2X23839   7.917   2.543   2.430 -1.0851 -1.7462 -0.7999
  193DOPC   H2Y23840   7.866   2.622   2.601 -2.9906  1.2987 -1.7376
  193DOPC   C2323841   7.461   2.115   2.856 -0.1809 -0.0082  0.0812
  193DOPC   H3R23842   7.565   2.117   2.815 -0.5617 -0.8771 -0.9845
  193DOPC   H3S23843   7.407   2.031   2.808  1.6263  0.9794 -4.1759
  193DOPC   C2423844   7.466   2.099   3.011 -0.6196 -0.0827  0.0649
  193DOPC   H4R23845   7.366   2.102   3.059  0.2339  0.1163  1.9165
  193DOPC   H4S23846   7.520   2.183   3.060  2.6669 -1.5163 -0.8048
  193DOPC   C2523847   7.528   1.966   3.060 -0.3973 -0.6658 -0.7331
  193DOPC   H5R23848   7.623   1.972   3.002 -0.5516 -1.2530 -1.0564
  193DOPC   H5S23849   7.482   1.877   3.012  0.0480 -1.2759 -0.0522
  193DOPC   C2623850   7.553   1.959   3.201  0.3931  0.1944 -0.2907
  193DOPC   H6R23851   7.599   2.057   3.226  0.6187  0.1255 -0.4326
  193DOPC   H6S23852   7.611   1.873   3.240 -0.4300  0.9176  2.8260
  193DOPC   C2723853   7.409   1.950   3.277  0.3908  0.2602  0.3542
  193DOPC   H7R23854   7.355   1.864   3.232  0.5246 -1.1117  2.6601
  193DOPC   H7S23855   7.348   2.038   3.246  0.0376 -0.6096 -1.5931
  193DOPC   C2823856   7.422   1.915   3.430 -0.7906  0.4050 -0.2094
  193DOPC   H8R23857   7.482   1.821   3.426 -2.0157 -0.3693 -1.2824
  193DOPC   H8S23858   7.326   1.878   3.472 -0.7038  0.0689 -0.3039
  193DOPC   C2923859   7.476   2.023   3.515  0.1739 -0.4009 -0.3269
  193DOPC   H9R23860   7.545   2.087   3.459 -0.1461 -0.4387 -0.7705
  193DOPC  C21023861   7.434   2.047   3.641 -0.8092  0.3603  0.2606
  193DOPC  H10R23862   7.478   2.142   3.676 -1.3300  1.0307 -0.8233
  193DOPC  C21123863   7.350   1.975   3.746  0.7322 -0.0204 -0.5537
  193DOPC  H11R23864   7.336   1.869   3.717 -2.2282 -0.9654  3.4446
  193DOPC  H11S23865   7.246   2.016   3.748  0.9257  0.4536  1.3374
  193DOPC  C21223866   7.401   2.003   3.887  0.0558  0.5152  1.1026
  193DOPC  H12R23867   7.512   1.997   3.894  0.2997  0.0178 -1.8701
  193DOPC  H12S23868   7.370   1.916   3.949  1.6731 -2.2744 -1.7118
  193DOPC  C21323869   7.357   2.136   3.947  0.3334 -0.0212 -0.5527
  193DOPC  H13R23870   7.248   2.152   3.937 -0.5959 -1.8336  4.1393
  193DOPC  H13S23871   7.412   2.222   3.904  0.3903 -0.5983 -1.6799
  193DOPC  C21423872   7.390   2.126   4.091 -0.2205 -0.4946  0.7314
  193DOPC  H14R23873   7.496   2.099   4.110 -0.0524 -0.8587 -0.6423
  193DOPC  H14S23874   7.319   2.049   4.126 -0.9017  0.0046  0.4754
  193DOPC  C21523875   7.346   2.254   4.166 -0.0540 -0.3976  0.1293
  193DOPC  H15R23876   7.315   2.239   4.272 -1.5580  3.3163  0.3597
  193DOPC  H15S23877   7.249   2.287   4.124 -0.6848 -0.2595  1.6245
  193DOPC  C21623878   7.438   2.374   4.163 -0.5796 -0.1898  0.0954
  193DOPC  H16R23879   7.462   2.385   4.055  1.4331 -1.1558  0.3922
  193DOPC  H16S23880   7.536   2.372   4.215 -0.3645  1.5207 -0.1978
  193DOPC  C21723881   7.370   2.501   4.222 -0.4438 -0.0615 -0.0622
  193DOPC  H17R23882   7.424   2.587   4.178  0.5603  0.2465  1.6585
  193DOPC  H17S23883   7.387   2.497   4.332 -0.6762 -2.1936 -0.0594
  193DOPC  C21823884   7.221   2.515   4.197  0.9574  0.0132 -0.2385
  193DOPC  H18R23885   7.198   2.493   4.091 -0.5836 -0.7066  0.2133
  193DOPC  H18S23886   7.181   2.615   4.226  3.5253  1.4116 -1.1909
  193DOPC  H18T23887   7.168   2.439   4.259  0.3652 -0.0719 -0.8406
  193DOPC   C3323888   7.912   2.403   2.576  0.0185  1.0916 -0.7247
  193DOPC   H3X23889   8.015   2.381   2.541 -0.1312  2.1537 -1.9079
  193DOPC   H3Y23890   7.850   2.323   2.530  0.5695 -0.4514  1.0855
  193DOPC   C3423891   7.902   2.379   2.732 -0.3854 -0.4779  0.1859
  193DOPC   H4X23892   7.964   2.461   2.776  0.1748 -1.9911  2.3530
  193DOPC   H4Y23893   7.960   2.287   2.754 -2.5250 -2.1856 -0.9577
  193DOPC   C3523894   7.763   2.365   2.798  0.0207  0.3801  0.7742
  193DOPC   H5X23895   7.732   2.268   2.754  0.1580  1.5891 -2.1945
  193DOPC   H5Y23896   7.694   2.448   2.770  0.0285  0.1541  0.0647
  193DOPC   C3623897   7.768   2.350   2.956 -0.1192 -0.1665 -0.4073
  193DOPC   H6X23898   7.681   2.288   2.986  0.6211 -0.6769  0.7445
  193DOPC   H6Y23899   7.854   2.289   2.989  0.0475 -0.2716 -1.0244
  193DOPC   C3723900   7.765   2.478   3.041  0.4845 -0.2103 -0.1234
  193DOPC   H7X23901   7.859   2.538   3.032  0.9358 -0.4720  2.2105
  193DOPC   H7Y23902   7.678   2.532   3.000  0.0756 -1.7605 -1.3902
  193DOPC   C3823903   7.761   2.452   3.196  0.2236  0.5720  0.0732
  193DOPC   H8X23904   7.769   2.550   3.248 -0.7754 -0.5583  2.5041
  193DOPC   H8Y23905   7.850   2.392   3.225 -1.3099 -2.0093 -0.2862
  193DOPC   C3923906   7.637   2.383   3.240 -0.1727  0.1945  1.2076
  193DOPC   H9X23907   7.556   2.390   3.167  0.4897 -1.9359  0.1949
  193DOPC  C31023908   7.624   2.315   3.350  0.6360  0.0149  0.1450
  193DOPC  H10X23909   7.519   2.291   3.372  0.3381  1.7092  0.7134
  193DOPC  C31123910   7.723   2.290   3.461  0.4104 -0.4172  0.3266
  193DOPC  H11X23911   7.820   2.332   3.430  0.5501 -1.7374 -1.1769
  193DOPC  H11Y23912   7.745   2.181   3.459  1.0233 -0.3377 -2.7138
  193DOPC  C31223913   7.699   2.350   3.598 -0.1655  0.1177 -0.1095
  193DOPC  H12X23914   7.591   2.347   3.624  0.0782 -0.2943  0.9225
  193DOPC  H12Y23915   7.733   2.456   3.597  0.0815  0.0410 -0.0108
  193DOPC  C31323916   7.770   2.274   3.712  0.0509  0.7249 -0.2327
  193DOPC  H13X23917   7.736   2.169   3.706  3.5743 -0.4548 -2.1145
  193DOPC  H13Y23918   7.879   2.285   3.697 -0.0589  2.3560 -0.1084
  193DOPC  C31423919   7.742   2.324   3.856  0.9045  0.5831  0.7379
  193DOPC  H14X23920   7.768   2.432   3.861 -1.9375  1.2976  2.1284
  193DOPC  H14Y23921   7.631   2.321   3.858  0.8682 -0.1068 -0.9318
  193DOPC  C31523922   7.807   2.232   3.957  0.4189 -0.3161 -0.0680
  193DOPC  H15X23923   7.916   2.254   3.955  0.3552  0.2639  1.4530
  193DOPC  H15Y23924   7.785   2.129   3.920  1.2996 -0.1079 -1.2172
  193DOPC  C31623925   7.767   2.271   4.101 -0.9545 -0.1963  0.5962
  193DOPC  H16X23926   7.776   2.379   4.129  0.3003 -0.0934 -0.1158
  193DOPC  H16Y23927   7.658   2.254   4.110 -0.7180 -1.7332  0.7421
  193DOPC  C31723928   7.854   2.217   4.209 -0.0869  0.7020 -0.4175
  193DOPC  H17X23929   7.955   2.264   4.212 -0.8737  2.4899 -0.7326
  193DOPC  H17Y23930   7.802   2.243   4.304  0.0231  1.2422 -0.5051
  193DOPC  C31823931   7.892   2.067   4.199 -0.4016 -0.4653  0.2445
  193DOPC  H18X23932   7.808   1.996   4.216 -2.2475  1.7081  0.5568
  193DOPC  H18Y23933   7.943   2.038   4.104 -0.1543  2.1236 -0.4780
  193DOPC  H18Z23934   7.966   2.046   4.279  0.8595 -1.8262 -1.2000
  194DOPC     N23935   2.857   0.602   2.603 -0.0452  0.2787 -0.1486
  194DOPC   C1223936   2.919   0.722   2.672 -0.1748 -0.0905 -0.1986
  194DOPC  H12A23937   2.856   0.809   2.671 -1.7176 -1.1604 -0.0561
  194DOPC  H12B23938   3.016   0.733   2.625  0.6047 -4.0134  0.0998
  194DOPC   C1323939   2.951   0.483   2.605  0.8742  0.5653  0.2970
  194DOPC  H13A23940   2.904   0.397   2.559  2.4014  0.0739 -0.4185
  194DOPC  H13B23941   3.041   0.521   2.558 -0.4478  1.9191 -1.2897
  194DOPC  H13C23942   2.982   0.451   2.703 -1.1731 -0.5941  0.6273
  194DOPC   C1423943   2.816   0.638   2.463 -0.0311  0.4294  0.1185
  194DOPC  H14A23944   2.893   0.678   2.398  0.5759  1.7352  1.5766
  194DOPC  H14B23945   2.770   0.554   2.413 -1.6098  0.5186  1.3362
  194DOPC  H14C23946   2.737   0.712   2.465  1.1158  1.6801  1.7039
  194DOPC   C1523947   2.734   0.571   2.677  0.3308 -0.9358 -0.2844
  194DOPC  H15A23948   2.754   0.557   2.782  0.3123 -1.3752 -0.3368
  194DOPC  H15B23949   2.692   0.478   2.641 -3.3811  0.9227 -1.3315
  194DOPC  H15C23950   2.665   0.653   2.667 -0.7851 -1.4551  2.3230
  194DOPC   C1123951   2.942   0.715   2.823  0.3641  0.2645 -0.9203
  194DOPC  H11A23952   2.871   0.658   2.885  2.3951  0.4282  1.7283
  194DOPC  H11B23953   3.033   0.652   2.834 -0.6546 -1.0485  0.2805
  194DOPC     P23954   2.873   0.938   2.940 -0.2845 -0.1008 -0.0373
  194DOPC   O1323955   2.774   0.971   2.833 -0.8948  0.1323 -0.0973
  194DOPC   O1423956   2.947   1.046   3.004  0.5569 -0.4247 -0.1616
  194DOPC   O1223957   2.972   0.844   2.869  0.2375  0.1044 -0.4939
  194DOPC   O1123958   2.799   0.850   3.045 -0.0372  0.8154 -0.1084
  194DOPC    C123959   2.888   0.769   3.132 -0.1460 -0.4662  0.3659
  194DOPC    HA23960   2.998   0.776   3.119 -0.2728 -0.5235 -0.8561
  194DOPC    HB23961   2.861   0.661   3.123  1.2015 -0.8798  1.1123
  194DOPC    C223962   2.857   0.803   3.281 -0.5861  0.9259 -0.0000
  194DOPC    HS23963   2.750   0.789   3.306 -0.1831 -1.3357  0.6370
  194DOPC   O2123964   2.913   0.936   3.305  0.2477  0.0584 -0.1471
  194DOPC   C2123965   2.818   1.028   3.306  0.2091  0.0213 -0.3157
  194DOPC   O2223966   2.701   1.007   3.293 -0.6783 -0.7370  0.4886
  194DOPC   C2223967   2.887   1.162   3.331  0.3985  0.6544 -0.1587
  194DOPC   H2R23968   2.806   1.236   3.316 -1.9732 -1.9087 -0.8975
  194DOPC   H2S23969   2.955   1.169   3.243 -0.0729 -0.3999 -0.6284
  194DOPC    C323970   2.947   0.712   3.365 -0.0104  0.5630  0.2822
  194DOPC    HX23971   2.937   0.738   3.473 -0.1506  0.5892  0.2632
  194DOPC    HY23972   3.051   0.732   3.331 -0.5695  0.7070 -1.4333
  194DOPC   O3123973   2.921   0.568   3.347  0.1783 -0.0688 -0.6218
  194DOPC   C3123974   2.804   0.523   3.390 -0.4299 -0.6925 -0.1940
  194DOPC   O3223975   2.718   0.598   3.432 -0.0506 -0.3127  0.2358
  194DOPC   C3223976   2.825   0.371   3.406  0.2368 -0.4468 -0.3543
  194DOPC   H2X23977   2.859   0.340   3.305  3.1534  0.0667  0.3807
  194DOPC   H2Y23978   2.897   0.353   3.489  0.9801  1.0075 -0.6554
  194DOPC   C2323979   2.967   1.181   3.463 -0.9624 -0.0163 -0.7815
  194DOPC   H3R23980   2.996   1.288   3.471 -0.6095 -0.1620 -0.0476
  194DOPC   H3S23981   3.061   1.123   3.463 -1.2014 -0.4535  0.6195
  194DOPC   C2423982   2.882   1.145   3.587 -0.2611 -0.1065 -0.0981
  194DOPC   H4R23983   2.870   1.034   3.582 -1.3588 -0.0329  0.5763
  194DOPC   H4S23984   2.783   1.196   3.592 -0.4899 -0.6243  0.9704
  194DOPC   C2523985   2.961   1.163   3.713 -0.1883  0.3127 -0.1322
  194DOPC   H5R23986   2.986   1.270   3.730 -2.4725  1.2015 -1.8412
  194DOPC   H5S23987   3.055   1.104   3.722  0.2747  0.9185 -0.8079
  194DOPC   C2623988   2.890   1.116   3.843 -0.3431  0.7643 -0.0021
  194DOPC   H6R23989   2.860   1.010   3.831 -3.7409  1.3552  2.1665
  194DOPC   H6S23990   2.792   1.166   3.858 -1.0911 -0.5160 -0.4624
  194DOPC   C2723991   2.969   1.140   3.972 -0.1885  0.3959 -0.7764
  194DOPC   H7R23992   2.998   1.247   3.980 -0.4814  0.4883 -0.9242
  194DOPC   H7S23993   3.061   1.079   3.961 -0.6750 -0.9580  1.7757
  194DOPC   C2823994   2.903   1.092   4.099  0.0266  0.5247  0.0108
  194DOPC   H8R23995   2.803   1.139   4.106 -0.1683 -0.0855  1.7052
  194DOPC   H8S23996   2.944   1.123   4.197 -1.4863  1.6010  0.3482
  194DOPC   C2923997   2.883   0.939   4.088  0.4060 -0.5737  0.6474
  194DOPC   H9R23998   2.814   0.917   4.005 -1.0557  2.3431  0.9628
  194DOPC  C21023999   2.949   0.850   4.159 -0.0772  0.0368  0.0685
  194DOPC  H10R24000   2.938   0.741   4.149 -0.2420  0.0517  0.0777
  194DOPC  C21124001   3.063   0.881   4.253  0.0199 -0.0604  0.1261
  194DOPC  H11R24002   3.128   0.967   4.226  0.7293 -0.6341 -0.0330
  194DOPC  H11S24003   3.129   0.793   4.267 -0.4315 -0.3977  0.1834
  194DOPC  C21224004   3.022   0.902   4.397 -0.0839  0.2695 -0.1516
  194DOPC  H12R24005   2.929   0.964   4.399 -2.6453 -3.1549 -2.0302
  194DOPC  H12S24006   3.111   0.953   4.440 -0.8206  0.9150  0.6540
  194DOPC  C21324007   2.996   0.775   4.488 -0.3118 -0.2234  0.2431
  194DOPC  H13R24008   3.093   0.722   4.500  0.0371  0.6827  1.5883
  194DOPC  H13S24009   2.923   0.706   4.441 -0.0233 -0.4400  0.1083
  194DOPC  C21424010   2.951   0.812   4.634  0.0730 -0.2601  0.3163
  194DOPC  H14R24011   2.940   0.716   4.688  0.9853 -1.8875 -2.1769
  194DOPC  H14S24012   2.855   0.867   4.631  2.0620  3.6059  0.7225
  194DOPC  C21524013   3.040   0.913   4.704  0.4830 -0.0554  0.1656
  194DOPC  H15R24014   3.142   0.918   4.660 -0.4545  0.9866 -2.0648
  194DOPC  H15S24015   3.058   0.899   4.812 -1.2932 -4.7548  0.0716
  194DOPC  C21624016   2.988   1.062   4.699  0.2717  0.0460 -0.1343
  194DOPC  H16R24017   2.918   1.072   4.785  0.3468  0.8077 -0.1566
  194DOPC  H16S24018   2.925   1.063   4.607 -1.6352 -3.3547  0.9390
  194DOPC  C21724019   3.102   1.161   4.705  0.3490  0.2163  0.0762
  194DOPC  H17R24020   3.059   1.263   4.699  1.2438  0.5438 -1.8383
  194DOPC  H17S24021   3.167   1.139   4.617  0.6419  1.3798 -0.0229
  194DOPC  C21824022   3.193   1.146   4.826  0.2149 -0.5454  0.4036
  194DOPC  H18R24023   3.223   1.040   4.842  0.8195 -0.7582 -1.9001
  194DOPC  H18S24024   3.151   1.191   4.919 -1.7540  0.5570 -0.9701
  194DOPC  H18T24025   3.289   1.191   4.794 -0.6779 -0.5716 -2.6232
  194DOPC   C3324026   2.704   0.296   3.448 -0.0817  0.0156  0.4269
  194DOPC   H3X24027   2.648   0.275   3.355  1.8529 -0.1562 -0.7555
  194DOPC   H3Y24028   2.638   0.352   3.518 -3.0882 -2.7774  0.0542
  194DOPC   C3424029   2.739   0.166   3.527 -0.2426  0.6629 -0.1946
  194DOPC   H4X24030   2.637   0.130   3.551 -0.6111  1.9565  0.2611
  194DOPC   H4Y24031   2.798   0.205   3.613  1.5582 -0.3792 -0.9098
  194DOPC   C3524032   2.817   0.065   3.447  0.8607  0.1010  0.0477
  194DOPC   H5X24033   2.893   0.118   3.386  2.7413 -3.3504 -0.9323
  194DOPC   H5Y24034   2.737   0.020   3.383 -0.0975  0.1447  1.1761
  194DOPC   C3624035   2.883  -0.046   3.532 -0.0721  0.1350  0.0848
  194DOPC   H6X24036   2.807  -0.089   3.601  1.5597 -3.7081 -0.2945
  194DOPC   H6Y24037   2.900  -0.129   3.461  0.9363  0.4313 -0.0338
  194DOPC   C3724038   3.004  -0.008   3.622 -0.2313 -0.3634 -0.3376
  194DOPC   H7X24039   2.964   0.021   3.722  1.5667 -0.7998  0.5498
  194DOPC   H7Y24040   3.064  -0.100   3.641  1.2814  0.6633  0.0944
  194DOPC   C3824041   3.103   0.103   3.571 -0.1286 -0.4782 -0.0307
  194DOPC   H8X24042   3.057   0.203   3.559  0.7619 -0.1716 -1.0382
  194DOPC   H8Y24043   3.129   0.083   3.465  1.9925 -0.3989  0.4315
  194DOPC   C3924044   3.240   0.108   3.636  0.2455  0.1751  0.4698
  194DOPC   H9X24045   3.316   0.052   3.578  0.1483 -0.3902  0.8806
  194DOPC  C31024046   3.267   0.159   3.754 -0.2433 -0.3153  0.4868
  194DOPC  H10X24047   3.372   0.166   3.784 -0.3021 -0.1953  0.6691
  194DOPC  C31124048   3.159   0.229   3.830  0.2067  0.4036  0.4767
  194DOPC  H11X24049   3.063   0.174   3.822  0.2432  0.3586  0.3500
  194DOPC  H11Y24050   3.145   0.334   3.795  3.4447  0.6371 -0.4793
  194DOPC  C31224051   3.197   0.229   3.981 -0.0949 -0.2829 -0.4561
  194DOPC  H12X24052   3.181   0.131   4.032 -0.8940 -0.1117 -0.3696
  194DOPC  H12Y24053   3.120   0.297   4.024 -0.3456 -0.9497  0.1642
  194DOPC  C31324054   3.333   0.282   4.015 -0.3391  0.0708  0.7969
  194DOPC  H13X24055   3.405   0.198   4.016 -1.0620 -0.6413 -1.2290
  194DOPC  H13Y24056   3.364   0.353   3.935 -1.9621 -0.3834 -0.3047
  194DOPC  C31424057   3.333   0.358   4.143 -0.1516 -0.8816  0.1378
  194DOPC  H14X24058   3.422   0.423   4.150 -0.1928 -0.8181  0.0675
  194DOPC  H14Y24059   3.249   0.431   4.142  0.4510  0.0260  3.1979
  194DOPC  C31524060   3.334   0.268   4.269  0.4746 -0.8387 -0.4728
  194DOPC  H15X24061   3.433   0.218   4.276  0.4695 -0.9574 -1.1911
  194DOPC  H15Y24062   3.258   0.188   4.262  0.3501 -0.6087 -2.3009
  194DOPC  C31624063   3.318   0.352   4.394  0.5063 -0.5863 -1.0387
  194DOPC  H16X24064   3.400   0.426   4.407 -1.4243  1.5228 -0.2510
  194DOPC  H16Y24065   3.222   0.408   4.393  0.1281 -1.1831 -2.9136
  194DOPC  C31724066   3.310   0.258   4.519 -0.3064  0.3564  0.0161
  194DOPC  H17X24067   3.310   0.315   4.614 -0.2135  1.5799 -0.6981
  194DOPC  H17Y24068   3.212   0.207   4.527  0.8321 -2.0020 -0.3020
  194DOPC  C31824069   3.420   0.160   4.547 -0.1685  0.3664  0.0924
  194DOPC  H18X24070   3.428   0.118   4.650 -0.9319 -3.5103 -1.2495
  194DOPC  H18Y24071   3.412   0.075   4.476  0.9878 -0.2062  0.6286
  194DOPC  H18Z24072   3.517   0.212   4.536  1.2369 -2.2466 -0.6618
  195DOPC     N24073   6.827   7.214   2.027  0.1988 -0.2853  0.3710
  195DOPC   C1224074   6.815   7.260   2.170  0.4224  0.0656 -0.4845
  195DOPC  H12A24075   6.886   7.206   2.232 -0.7405  1.1169  1.9010
  195DOPC  H12B24076   6.716   7.226   2.197 -0.1527  1.1636 -1.1799
  195DOPC   C1324077   6.713   7.255   1.946  0.4429 -0.1867  0.7039
  195DOPC  H13A24078   6.624   7.198   1.969  0.2796 -0.8999 -1.4507
  195DOPC  H13B24079   6.693   7.361   1.961  0.8312 -0.3460  2.4696
  195DOPC  H13C24080   6.742   7.228   1.845 -0.0752 -0.5059  0.6344
  195DOPC   C1424081   6.836   7.063   2.021  0.0576 -0.0052 -0.5412
  195DOPC  H14A24082   6.761   7.015   2.083  0.7222  0.9641  1.0708
  195DOPC  H14B24083   6.820   7.032   1.919  0.8235  2.6269 -1.5343
  195DOPC  H14C24084   6.934   7.024   2.044  1.1412  2.3457 -0.8715
  195DOPC   C1524085   6.956   7.273   1.968 -0.1323  0.4122 -0.0667
  195DOPC  H15A24086   7.030   7.224   2.030 -0.2153 -0.3281 -0.5306
  195DOPC  H15B24087   6.964   7.379   1.985  2.3941  0.2672 -0.0845
  195DOPC  H15C24088   6.963   7.253   1.862  1.7389 -1.5084  0.3525
  195DOPC   C1124089   6.827   7.411   2.203  0.3055  0.2107 -0.4418
  195DOPC  H11A24090   6.739   7.450   2.146 -1.5281 -1.3057  1.1850
  195DOPC  H11B24091   6.814   7.421   2.313 -1.9506 -1.1926 -0.5072
  195DOPC     P24092   7.083   7.476   2.232 -0.0769  0.0382  0.1137
  195DOPC   O1324093   7.165   7.588   2.188 -0.0200  0.0939  0.2285
  195DOPC   O1424094   7.144   7.338   2.215  0.3825 -0.1819  0.0806
  195DOPC   O1224095   6.945   7.490   2.159 -0.0632  0.2764  0.1646
  195DOPC   O1124096   7.048   7.482   2.382 -0.3583 -0.1000  0.0718
  195DOPC    C124097   7.073   7.602   2.456 -1.0280  0.3756  0.4170
  195DOPC    HA24098   7.017   7.687   2.412 -1.8872 -0.3654  0.0649
  195DOPC    HB24099   7.182   7.623   2.461 -0.9720 -0.0756  1.3229
  195DOPC    C224100   7.039   7.598   2.615  0.0045  0.1920  0.4627
  195DOPC    HS24101   7.085   7.505   2.654 -0.7584 -0.4184 -0.0525
  195DOPC   O2124102   6.896   7.601   2.627  0.2674 -0.6954 -0.1342
  195DOPC   C2124103   6.838   7.479   2.610 -0.1657 -0.4535 -0.0909
  195DOPC   O2224104   6.900   7.375   2.610  0.4770  0.1143 -0.0391
  195DOPC   C2224105   6.689   7.504   2.602 -0.2220 -0.3473  0.0848
  195DOPC   H2R24106   6.653   7.458   2.508  0.4311  1.6708 -1.2184
  195DOPC   H2S24107   6.662   7.611   2.607  1.8270  0.1799  1.1985
  195DOPC    C324108   7.107   7.719   2.689 -0.6010  0.1460  0.3233
  195DOPC    HX24109   7.078   7.811   2.634 -0.7530  0.3668  0.7678
  195DOPC    HY24110   7.216   7.702   2.692 -0.8944 -1.8631  1.2510
  195DOPC   O3124111   7.068   7.720   2.825  0.7000 -0.0526 -0.0868
  195DOPC   C3124112   6.953   7.787   2.859 -0.6538 -0.1190 -0.2353
  195DOPC   O3224113   6.889   7.860   2.784  0.2731 -0.7578 -0.4727
  195DOPC   C3224114   6.928   7.769   3.009  0.0108  0.4006  0.2704
  195DOPC   H2X24115   6.980   7.856   3.055  0.3963  0.0763  0.4444
  195DOPC   H2Y24116   6.819   7.779   3.027  0.2727 -1.3202  3.4396
  195DOPC   C2324117   6.613   7.418   2.711  0.2276  0.4038  0.2817
  195DOPC   H3R24118   6.655   7.315   2.720 -1.5236 -0.3968 -0.1304
  195DOPC   H3S24119   6.509   7.415   2.673  1.3723 -2.7210 -3.3126
  195DOPC   C2424120   6.609   7.485   2.847  0.0615  0.3387  0.4849
  195DOPC   H4R24121   6.707   7.535   2.864 -0.1338  1.1390 -0.6174
  195DOPC   H4S24122   6.597   7.396   2.912 -0.1679  1.7305  2.4772
  195DOPC   C2524123   6.502   7.584   2.877  0.6400  0.0060 -0.1945
  195DOPC   H5R24124   6.414   7.568   2.811  0.4000 -1.1075  0.3759
  195DOPC   H5S24125   6.531   7.691   2.863  1.9036 -0.2548  0.3141
  195DOPC   C2624126   6.446   7.563   3.021  0.7857 -0.4137 -0.3365
  195DOPC   H6R24127   6.537   7.571   3.085  0.9395  0.0123 -0.6025
  195DOPC   H6S24128   6.393   7.466   3.027 -2.0541  0.8437 -2.7995
  195DOPC   C2724129   6.343   7.677   3.062 -0.1895 -0.3819  0.3473
  195DOPC   H7R24130   6.260   7.680   2.988  0.5107 -1.6180 -0.5345
  195DOPC   H7S24131   6.403   7.769   3.052 -0.1791 -0.4556 -0.3196
  195DOPC   C2824132   6.295   7.683   3.206 -0.1259 -0.0012  0.9151
  195DOPC   H8R24133   6.211   7.756   3.212 -2.0835 -2.0903  0.4096
  195DOPC   H8S24134   6.370   7.731   3.272 -0.3311  0.8936  0.5292
  195DOPC   C2924135   6.249   7.552   3.259  0.5956  0.2210 -0.0031
  195DOPC   H9R24136   6.313   7.464   3.240 -0.9609 -0.6718 -1.4602
  195DOPC  C21024137   6.132   7.525   3.321  0.1861 -0.4163  0.5241
  195DOPC  H10R24138   6.116   7.425   3.364 -0.6260 -1.3556 -1.8164
  195DOPC  C21124139   6.025   7.623   3.362 -0.0352 -0.1427 -0.0557
  195DOPC  H11R24140   5.936   7.586   3.306  2.2503 -0.7709 -3.6249
  195DOPC  H11S24141   6.049   7.729   3.336 -1.8319  0.6482  1.2854
  195DOPC  C21224142   5.996   7.616   3.507  0.4439 -0.7652 -0.0287
  195DOPC  H12R24143   6.074   7.662   3.572  1.3398 -0.2903 -1.3877
  195DOPC  H12S24144   5.974   7.514   3.545 -0.4891  0.6024  3.5841
  195DOPC  C21324145   5.871   7.701   3.538 -0.0198  0.6540  0.4128
  195DOPC  H13R24146   5.788   7.677   3.469 -0.2617  1.5653  0.3662
  195DOPC  H13S24147   5.888   7.806   3.506 -0.0261  0.6743  0.4762
  195DOPC  C21424148   5.820   7.683   3.680 -0.4618 -0.1526 -0.3188
  195DOPC  H14R24149   5.869   7.750   3.754 -1.1927 -0.0362  0.0615
  195DOPC  H14S24150   5.839   7.581   3.718 -4.2390 -1.3344 -1.2855
  195DOPC  C21524151   5.675   7.720   3.688 -0.6848 -0.3583  0.0429
  195DOPC  H15R24152   5.618   7.629   3.659 -1.4726 -0.4278  1.7086
  195DOPC  H15S24153   5.641   7.796   3.615 -0.0289  0.0950  0.1966
  195DOPC  C21624154   5.630   7.774   3.821 -0.0415 -0.0183 -0.3553
  195DOPC  H16R24155   5.676   7.875   3.828 -0.2951  0.1962 -1.5451
  195DOPC  H16S24156   5.675   7.713   3.902  0.5327 -0.2222 -0.8176
  195DOPC  C21724157   5.480   7.761   3.839 -0.1403 -0.4172 -0.0421
  195DOPC  H17R24158   5.457   7.653   3.851 -1.1194 -0.1807  0.3031
  195DOPC  H17S24159   5.425   7.805   3.753 -2.4826  1.3808  2.1903
  195DOPC  C21824160   5.434   7.840   3.968  0.2106 -0.2876  0.7456
  195DOPC  H18R24161   5.454   7.948   3.952  1.1342 -0.4688  0.6028
  195DOPC  H18S24162   5.496   7.787   4.044 -0.7037 -0.8499  1.1074
  195DOPC  H18T24163   5.327   7.827   3.992 -0.4310  1.5832 -0.8735
  195DOPC   C3324164   6.988   7.641   3.071 -0.0443  0.1202 -0.4959
  195DOPC   H3X24165   7.097   7.661   3.074  0.5422 -2.3983 -2.0024
  195DOPC   H3Y24166   6.966   7.556   3.004 -1.6825  0.5752 -0.5814
  195DOPC   C3424167   6.940   7.614   3.214  0.5728  0.2782  0.4140
  195DOPC   H4X24168   6.943   7.696   3.289 -0.5204  0.6417  0.0766
  195DOPC   H4Y24169   7.015   7.541   3.252 -1.7529 -1.1722  2.4733
  195DOPC   C3524170   6.796   7.555   3.215 -0.1664 -0.0602 -0.6073
  195DOPC   H5X24171   6.791   7.475   3.138  0.5444  0.7720 -1.5498
  195DOPC   H5Y24172   6.715   7.627   3.191 -0.5599 -0.5035 -0.6189
  195DOPC   C3624173   6.745   7.494   3.353  0.0566  0.1156  1.1640
  195DOPC   H6X24174   6.642   7.455   3.341 -0.3202  0.7924  2.0161
  195DOPC   H6Y24175   6.814   7.411   3.381 -1.9322 -1.0310  3.0021
  195DOPC   C3724176   6.724   7.587   3.469 -0.3757 -0.1062  0.1945
  195DOPC   H7X24177   6.822   7.625   3.505  0.5386 -1.3165 -0.9462
  195DOPC   H7Y24178   6.644   7.657   3.437 -0.5195 -1.1151 -1.8037
  195DOPC   C3824179   6.667   7.517   3.594  0.5204 -0.0232 -0.3956
  195DOPC   H8X24180   6.680   7.595   3.673 -0.4494  1.8467 -1.9880
  195DOPC   H8Y24181   6.725   7.432   3.634  1.1784  1.1782  1.3471
  195DOPC   C3924182   6.529   7.464   3.588 -0.2125 -0.3654  0.3045
  195DOPC   H9X24183   6.519   7.364   3.543  0.7034 -0.9418  1.3509
  195DOPC  C31024184   6.420   7.531   3.627 -0.3762  0.1250 -0.1177
  195DOPC  H10X24185   6.316   7.497   3.617 -0.5494  0.4920  0.4141
  195DOPC  C31124186   6.415   7.659   3.697  0.0833 -0.2606 -0.3698
  195DOPC  H11X24187   6.336   7.722   3.650 -0.8685 -1.1304  0.0291
  195DOPC  H11Y24188   6.512   7.709   3.677  0.3699  0.3416  2.1909
  195DOPC  C31224189   6.394   7.640   3.852  0.4717 -0.3998  0.0942
  195DOPC  H12X24190   6.403   7.739   3.902  3.8516 -0.3449 -0.4060
  195DOPC  H12Y24191   6.477   7.578   3.890  1.6278  1.9977  1.7726
  195DOPC  C31324192   6.258   7.580   3.893 -0.4829  0.1750  0.2611
  195DOPC  H13X24193   6.180   7.646   3.849  0.5460  1.3660  0.1346
  195DOPC  H13Y24194   6.249   7.481   3.845 -0.9239  0.1878  0.3166
  195DOPC  C31424195   6.224   7.554   4.041  0.2736  0.3010 -0.6026
  195DOPC  H14X24196   6.314   7.497   4.074  0.3407 -0.5665 -2.1754
  195DOPC  H14Y24197   6.227   7.652   4.092 -1.8702  0.2735 -0.3596
  195DOPC  C31524198   6.089   7.484   4.075 -0.0980 -0.0692 -0.0300
  195DOPC  H15X24199   6.078   7.490   4.186  0.2143  0.9317 -0.0464
  195DOPC  H15Y24200   6.089   7.378   4.042 -1.1924  0.5923 -2.3503
  195DOPC  C31624201   5.966   7.541   4.005  0.1516 -0.0785  0.0090
  195DOPC  H16X24202   5.929   7.634   4.054  0.0247 -0.2899  0.3170
  195DOPC  H16Y24203   5.986   7.560   3.898 -0.2217  0.2158 -0.0119
  195DOPC  C31724204   5.845   7.447   4.004  0.5619  0.2740  0.3138
  195DOPC  H17X24205   5.757   7.490   3.953  0.2794 -0.7154 -0.0486
  195DOPC  H17Y24206   5.868   7.350   3.955 -0.5335 -0.6623  1.6169
  195DOPC  C31824207   5.800   7.397   4.139  0.4842  0.1077 -0.1501
  195DOPC  H18X24208   5.778   7.481   4.209  2.8354  1.5993 -1.0995
  195DOPC  H18Y24209   5.713   7.329   4.124  1.4817 -1.7251  1.7648
  195DOPC  H18Z24210   5.880   7.336   4.186  0.0195  0.4135  1.0851
  196DOPC     N24211   0.836   1.546   2.620 -0.0631  0.0168 -0.1480
  196DOPC   C1224212   0.783   1.516   2.761 -0.3457  0.2446  0.0058
  196DOPC  H12A24213   0.730   1.423   2.772  1.3849 -0.7570  0.1531
  196DOPC  H12B24214   0.704   1.586   2.786 -0.7379  0.1353 -0.8884
  196DOPC   C1324215   0.722   1.595   2.533 -0.2858  0.0455 -0.0547
  196DOPC  H13A24216   0.758   1.613   2.432  0.0345 -0.2911 -0.0025
  196DOPC  H13B24217   0.646   1.519   2.527 -3.2521  2.7660  0.3088
  196DOPC  H13C24218   0.688   1.692   2.568  1.0771  1.1917 -1.7032
  196DOPC   C1424219   0.913   1.428   2.566  0.3897  0.3649  0.5271
  196DOPC  H14A24220   0.851   1.340   2.560  0.5047  0.3215 -0.0708
  196DOPC  H14B24221   0.955   1.449   2.469 -1.1777  1.5921  0.0829
  196DOPC  H14C24222   0.995   1.413   2.635  0.8624 -0.5090 -0.2031
  196DOPC   C1524223   0.942   1.648   2.627 -0.0065 -0.0896 -1.3112
  196DOPC  H15A24224   0.906   1.734   2.681 -1.7900 -1.3216 -0.4485
  196DOPC  H15B24225   0.982   1.680   2.532  2.0863 -1.0623 -0.8027
  196DOPC  H15C24226   1.022   1.607   2.687 -0.0407  0.9684 -0.5212
  196DOPC   C1124227   0.892   1.507   2.876 -0.2672 -0.1188 -0.5935
  196DOPC  H11A24228   0.930   1.610   2.888 -0.2764 -0.1719 -0.0829
  196DOPC  H11B24229   0.831   1.494   2.968  1.0859  0.6038  0.4445
  196DOPC     P24230   0.962   1.260   2.898 -0.3308  0.0151  0.2294
  196DOPC   O1324231   1.094   1.191   2.906 -0.3073  0.0180  0.1521
  196DOPC   O1424232   0.865   1.195   2.807  0.5194  0.2532  0.4780
  196DOPC   O1224233   0.992   1.410   2.857 -0.3137  0.0579 -0.1535
  196DOPC   O1124234   0.874   1.272   3.024  0.2882  0.1915 -0.5381
  196DOPC    C124235   0.922   1.307   3.157  0.1002 -0.9004  0.8598
  196DOPC    HA24236   0.853   1.383   3.200  3.0741  2.5024  0.1476
  196DOPC    HB24237   1.012   1.373   3.155 -1.5878  1.5873 -1.5852
  196DOPC    C224238   0.955   1.181   3.244 -0.2799  0.4278 -0.3629
  196DOPC    HS24239   1.024   1.119   3.183 -0.9221  0.5472 -1.2252
  196DOPC   O2124240   0.835   1.110   3.289  0.0310 -0.1487 -0.2007
  196DOPC   C2124241   0.807   0.988   3.236 -0.0278 -1.1691 -0.0586
  196DOPC   O2224242   0.872   0.934   3.145  0.0795 -0.1134 -0.8361
  196DOPC   C2224243   0.665   0.951   3.286 -0.3541  0.5031  0.0419
  196DOPC   H2R24244   0.596   0.952   3.199 -1.2369  0.3328  0.7218
  196DOPC   H2S24245   0.619   1.032   3.346  0.1273  1.1614 -0.4559
  196DOPC    C324246   1.032   1.237   3.368 -0.9533  0.4476  0.9000
  196DOPC    HX24247   0.963   1.311   3.413 -0.8095  1.5312 -0.5901
  196DOPC    HY24248   1.123   1.296   3.341  0.5451 -1.4799  1.5403
  196DOPC   O3124249   1.059   1.143   3.470  0.2008 -0.0502 -0.0911
  196DOPC   C3124250   1.175   1.074   3.460  0.0176  0.1767 -0.1844
  196DOPC   O3224251   1.254   1.086   3.368  0.2070 -0.1825 -0.0057
  196DOPC   C3224252   1.202   1.002   3.596  0.4636  0.8017  0.3241
  196DOPC   H2X24253   1.184   1.085   3.668 -0.7546  1.4004 -0.6220
  196DOPC   H2Y24254   1.118   0.930   3.607 -1.0921  2.6430  1.0808
  196DOPC   C2324255   0.672   0.818   3.369  0.6708  0.4230 -0.1336
  196DOPC   H3R24256   0.723   0.739   3.309  0.5526  1.3594 -1.5225
  196DOPC   H3S24257   0.565   0.790   3.378  0.0251  2.8584  0.5963
  196DOPC   C2424258   0.736   0.833   3.514  0.5866 -0.3840 -0.0163
  196DOPC   H4R24259   0.827   0.892   3.490 -0.1090  1.2461  1.2368
  196DOPC   H4S24260   0.755   0.726   3.540  0.5153 -0.4280 -0.1408
  196DOPC   C2524261   0.639   0.898   3.611 -0.4716 -0.9519 -0.4863
  196DOPC   H5R24262   0.544   0.841   3.623 -0.9032  0.0952  1.4121
  196DOPC   H5S24263   0.604   0.996   3.574 -3.3504 -1.9955 -0.8432
  196DOPC   C2624264   0.710   0.914   3.746 -0.4081 -0.5136 -0.0095
  196DOPC   H6R24265   0.809   0.964   3.744 -1.3734  1.5564  0.5505
  196DOPC   H6S24266   0.736   0.814   3.786 -2.3469 -1.6314 -1.3600
  196DOPC   C2724267   0.619   0.981   3.847 -0.7446  0.2269  0.3983
  196DOPC   H7R24268   0.517   0.936   3.843 -0.5866 -0.0531 -2.4454
  196DOPC   H7S24269   0.596   1.088   3.825 -0.4119  0.6284  1.8819
  196DOPC   C2824270   0.673   0.970   3.993 -0.2459  0.1643  0.3609
  196DOPC   H8R24271   0.609   1.029   4.062 -0.8038 -0.1715  0.1356
  196DOPC   H8S24272   0.771   1.019   4.011 -0.9300  1.4739  0.7031
  196DOPC   C2924273   0.670   0.825   4.054 -0.1953  0.3875  0.1221
  196DOPC   H9R24274   0.728   0.751   3.997  0.4922  1.0780 -0.0826
  196DOPC  C21024275   0.607   0.783   4.166 -0.2192 -0.6829  0.6888
  196DOPC  H10R24276   0.627   0.677   4.188 -1.2706 -1.5436 -2.0436
  196DOPC  C21124277   0.534   0.871   4.259  0.2758  0.6775  0.2020
  196DOPC  H11R24278   0.443   0.814   4.288 -0.0624  1.3075  0.3867
  196DOPC  H11S24279   0.505   0.965   4.207  1.0658  1.1178  0.5566
  196DOPC  C21224280   0.602   0.890   4.394 -0.4313 -0.0417 -0.1858
  196DOPC  H12R24281   0.537   0.959   4.452  0.0833  0.1045  0.2229
  196DOPC  H12S24282   0.704   0.930   4.380 -1.1634  0.9175 -3.8141
  196DOPC  C21324283   0.620   0.763   4.475 -0.4112 -0.2531 -0.2106
  196DOPC  H13R24284   0.694   0.693   4.432 -0.8144 -0.6004 -0.3432
  196DOPC  H13S24285   0.519   0.717   4.480 -0.4852  0.0200  1.1719
  196DOPC  C21424286   0.667   0.798   4.620 -0.0554  0.1412  0.4609
  196DOPC  H14R24287   0.598   0.879   4.651 -0.4523 -0.9695  2.7018
  196DOPC  H14S24288   0.770   0.842   4.619  0.1769 -0.2396  2.7011
  196DOPC  C21524289   0.663   0.674   4.712  1.0350  0.4592 -0.4978
  196DOPC  H15R24290   0.567   0.619   4.705  1.6690 -0.7332 -0.0100
  196DOPC  H15S24291   0.662   0.723   4.811  0.3260  2.1101 -1.2740
  196DOPC  C21624292   0.778   0.591   4.686  0.2832  0.3999 -0.2712
  196DOPC  H16R24293   0.863   0.662   4.674 -1.5489  2.3437 -2.7794
  196DOPC  H16S24294   0.783   0.535   4.591  0.5312 -0.1476  0.0576
  196DOPC  C21724295   0.832   0.497   4.796 -0.2125  0.4591  0.5819
  196DOPC  H17R24296   0.803   0.391   4.776 -0.4486  1.0091 -2.4458
  196DOPC  H17S24297   0.796   0.534   4.894 -1.7069  0.8032 -0.0689
  196DOPC  C21824298   0.985   0.492   4.789  0.5759  0.2465 -0.5195
  196DOPC  H18R24299   1.030   0.572   4.852 -1.3164  2.8611 -2.2715
  196DOPC  H18S24300   1.025   0.490   4.685  2.1469 -2.1124  0.0572
  196DOPC  H18T24301   1.023   0.400   4.838  2.4645  0.3546 -1.6784
  196DOPC   C3324302   1.343   0.943   3.609  0.3872  0.2811  0.4052
  196DOPC   H3X24303   1.420   1.022   3.595 -1.4196  1.9747 -0.4846
  196DOPC   H3Y24304   1.360   0.862   3.534 -0.4773 -0.4289  0.9604
  196DOPC   C3424305   1.374   0.882   3.743  0.0836 -0.6106  0.2070
  196DOPC   H4X24306   1.287   0.828   3.785 -0.4904  1.5390  1.9367
  196DOPC   H4Y24307   1.387   0.969   3.811 -0.6324  0.9620 -1.5626
  196DOPC   C3524308   1.498   0.785   3.746  0.7316 -0.3445  0.3552
  196DOPC   H5X24309   1.582   0.813   3.680 -0.2774  1.8038 -0.1077
  196DOPC   H5Y24310   1.464   0.686   3.707 -0.8408  0.0037  0.7648
  196DOPC   C3624311   1.552   0.768   3.890  0.1745  0.5452 -0.0652
  196DOPC   H6X24312   1.474   0.744   3.966  0.0328  1.1694 -0.0043
  196DOPC   H6Y24313   1.617   0.678   3.889 -1.0715 -0.4141  1.1808
  196DOPC   C3724314   1.629   0.893   3.926 -0.0764 -0.4796  0.0296
  196DOPC   H7X24315   1.705   0.921   3.850  1.5964  3.5562  2.8157
  196DOPC   H7Y24316   1.553   0.974   3.931 -1.9501 -2.2061  1.4769
  196DOPC   C3824317   1.695   0.886   4.068 -0.1115  0.4406  0.5302
  196DOPC   H8X24318   1.794   0.836   4.052 -0.5383 -0.9982  2.0833
  196DOPC   H8Y24319   1.638   0.821   4.138  0.9844  0.4871  1.5097
  196DOPC   C3924320   1.715   1.020   4.136 -0.0567  0.9825  0.1129
  196DOPC   H9X24321   1.783   1.095   4.092  1.1763  0.4395  1.0102
  196DOPC  C31024322   1.666   1.063   4.254  0.5335  0.5498  0.6151
  196DOPC  H10X24323   1.702   1.161   4.287  0.3105  0.1709  2.0395
  196DOPC  C31124324   1.595   0.987   4.370  0.0941 -0.5473 -0.6375
  196DOPC  H11X24325   1.603   0.880   4.339  0.7524 -0.6924 -0.0105
  196DOPC  H11Y24326   1.488   1.013   4.386 -0.4003 -2.5460 -0.4281
  196DOPC  C31224327   1.657   1.005   4.512 -0.2688 -0.0772 -0.1796
  196DOPC  H12X24328   1.758   0.961   4.502  0.1750  0.8014  0.3345
  196DOPC  H12Y24329   1.613   0.934   4.584  0.4053 -2.1710 -1.7341
  196DOPC  C31324330   1.647   1.149   4.564  0.0863 -0.5633  0.9691
  196DOPC  H13X24331   1.712   1.214   4.501  1.2340 -0.9825  1.6936
  196DOPC  H13Y24332   1.542   1.184   4.550  0.6230  0.6315 -0.3563
  196DOPC  C31424333   1.687   1.166   4.706  0.3054 -0.5795 -0.4441
  196DOPC  H14X24334   1.607   1.124   4.771  0.6709  1.5104  1.4657
  196DOPC  H14Y24335   1.773   1.098   4.725 -0.3095 -0.6551  2.4208
  196DOPC  C31524336   1.738   1.303   4.743  0.3738 -0.2529 -0.3720
  196DOPC  H15X24337   1.789   1.350   4.656 -0.1837 -2.0614 -1.7414
  196DOPC  H15Y24338   1.816   1.301   4.822 -1.4020 -0.7192  1.4404
  196DOPC  C31624339   1.615   1.383   4.801 -0.2549  0.0632  0.1544
  196DOPC  H16X24340   1.650   1.487   4.812 -1.7803  0.7006 -0.6867
  196DOPC  H16Y24341   1.527   1.380   4.733  0.0589 -1.9220 -0.2210
  196DOPC  C31724342   1.563   1.325   4.935  0.9852  0.0429 -0.1545
  196DOPC  H17X24343   1.511   1.228   4.918 -1.1646  1.0759  0.0852
  196DOPC  H17Y24344   1.643   1.314   5.010  1.2691  0.5695 -0.3756
  196DOPC  C31824345   1.459   1.422   4.991  0.4229 -0.0336  0.0732
  196DOPC  H18X24346   1.519   1.510   5.022 -1.4714  1.3594 -0.0609
  196DOPC  H18Y24347   1.388   1.464   4.916  3.2727  0.3263 -2.6590
  196DOPC  H18Z24348   1.402   1.367   5.070 -1.0229 -2.0033 -2.1887
  197DOPC     N24349   2.249   0.113   2.583 -0.3017 -0.2212 -0.1424
  197DOPC   C1224350   2.332   0.119   2.709 -0.1030  0.0894 -0.7122
  197DOPC  H12A24351   2.262   0.128   2.790  1.5289 -0.0710  0.7818
  197DOPC  H12B24352   2.389   0.211   2.711 -0.9590  0.6096  0.6125
  197DOPC   C1324353   2.344   0.104   2.464  0.2770  0.3341 -0.5965
  197DOPC  H13A24354   2.411   0.187   2.471  0.3255  0.2136  0.4226
  197DOPC  H13B24355   2.394   0.008   2.469 -1.8260 -0.8916 -1.5220
  197DOPC  H13C24356   2.305   0.124   2.365  0.1788  1.7460 -0.2851
  197DOPC   C1424357   2.178   0.240   2.553  0.3177 -0.2584  0.7071
  197DOPC  H14A24358   2.243   0.311   2.503 -0.8012  1.9065  2.1271
  197DOPC  H14B24359   2.095   0.231   2.485  0.0614  0.0452  0.9728
  197DOPC  H14C24360   2.139   0.285   2.643 -1.5016 -1.1767  0.4224
  197DOPC   C1524361   2.149   0.004   2.586 -0.8158 -0.4806  0.7825
  197DOPC  H15A24362   2.083   0.007   2.501 -0.6131  1.3897  0.6507
  197DOPC  H15B24363   2.086   0.010   2.674  0.3332  0.3291  1.5812
  197DOPC  H15C24364   2.203  -0.090   2.590  1.0957  0.4933 -0.5982
  197DOPC   C1124365   2.430   0.003   2.748 -0.5010  0.1579  0.1301
  197DOPC  H11A24366   2.456   0.029   2.853 -2.8783  1.6678  0.4090
  197DOPC  H11B24367   2.383  -0.098   2.744  4.4248 -2.4572  0.7649
  197DOPC     P24368   2.657   0.115   2.665 -0.3071 -0.2049  0.0633
  197DOPC   O1324369   2.590   0.242   2.642  0.2120 -0.2761  0.3090
  197DOPC   O1424370   2.770   0.081   2.575  0.1614  0.2570  0.2248
  197DOPC   O1224371   2.548   0.000   2.665 -0.4239  0.1287  0.8553
  197DOPC   O1124372   2.711   0.116   2.818 -0.2889 -0.2708  0.3657
  197DOPC    C124373   2.810   0.019   2.858 -0.1836 -0.7926 -0.5439
  197DOPC    HA24374   2.868   0.067   2.939  0.6199  1.8034 -2.5194
  197DOPC    HB24375   2.874  -0.010   2.772  1.0484  0.9405 -0.2649
  197DOPC    C224376   2.748  -0.111   2.910 -0.2754 -0.3550 -0.2779
  197DOPC    HS24377   2.683  -0.153   2.830 -1.7452  0.9597  0.1682
  197DOPC   O2124378   2.659  -0.068   3.022  0.1466 -0.5294  0.1484
  197DOPC   C2124379   2.576  -0.161   3.059  0.0886  1.2272  0.3022
  197DOPC   O2224380   2.544  -0.261   2.994  0.3237 -0.5655  0.0441
  197DOPC   C2224381   2.518  -0.135   3.196  0.5408  0.0635  0.3682
  197DOPC   H2R24382   2.407  -0.140   3.193  0.5643 -3.8113 -2.6626
  197DOPC   H2S24383   2.551  -0.034   3.227  0.6307 -0.1830  1.0860
  197DOPC    C324384   2.850  -0.211   2.966 -0.3340 -0.2591  0.8748
  197DOPC    HX24385   2.921  -0.241   2.886 -0.0339 -0.9170  1.3769
  197DOPC    HY24386   2.800  -0.301   3.006 -1.8746  0.8446  1.5147
  197DOPC   O3124387   2.922  -0.146   3.071  0.1059  0.4474 -0.2753
  197DOPC   C3124388   3.049  -0.187   3.096  0.2989  0.0729 -0.3827
  197DOPC   O3224389   3.106  -0.278   3.039  0.2330  0.2061 -0.0000
  197DOPC   C3224390   3.110  -0.103   3.202  0.2558 -0.2574  0.5275
  197DOPC   H2X24391   3.199  -0.053   3.157  0.4615 -1.3275 -0.2867
  197DOPC   H2Y24392   3.051  -0.010   3.218 -1.3148 -0.7809 -1.7934
  197DOPC   C2324393   2.542  -0.239   3.314 -0.1330  0.5002  0.1091
  197DOPC   H3R24394   2.643  -0.235   3.359 -0.3134 -3.7742  1.2763
  197DOPC   H3S24395   2.523  -0.343   3.281  1.2549  0.0136  0.7882
  197DOPC   C2424396   2.454  -0.222   3.435 -0.0868 -0.4255 -0.0840
  197DOPC   H4R24397   2.349  -0.229   3.401 -0.5649 -2.1506  1.5622
  197DOPC   H4S24398   2.478  -0.124   3.480 -2.4063  0.1527  0.0126
  197DOPC   C2524399   2.472  -0.331   3.542  0.7635  0.0732 -0.0173
  197DOPC   H5R24400   2.581  -0.340   3.563  1.3429  1.3009 -2.2489
  197DOPC   H5S24401   2.442  -0.422   3.486  0.8038  1.0982 -1.7886
  197DOPC   C2624402   2.408  -0.316   3.681  0.0613 -0.2754  1.3692
  197DOPC   H6R24403   2.461  -0.394   3.740  2.2195 -0.7825 -1.0275
  197DOPC   H6S24404   2.298  -0.331   3.673 -0.2203  2.3799 -1.5127
  197DOPC   C2724405   2.437  -0.179   3.742  0.1556 -0.2629  0.3952
  197DOPC   H7R24406   2.397  -0.097   3.679  3.4491  1.0992 -0.1371
  197DOPC   H7S24407   2.544  -0.151   3.730  0.1830 -0.9381 -1.1860
  197DOPC   C2824408   2.399  -0.159   3.890 -0.6081  0.0045 -0.3547
  197DOPC   H8R24409   2.460  -0.222   3.958  0.2866  2.6862  1.4774
  197DOPC   H8S24410   2.294  -0.194   3.897 -1.7583  3.1957 -0.1573
  197DOPC   C2924411   2.409  -0.011   3.929  0.6065  0.6450  0.6976
  197DOPC   H9R24412   2.326   0.050   3.890  1.9893  1.5093 -1.0205
  197DOPC  C21024413   2.507   0.051   3.998  0.1916 -0.0094  0.2319
  197DOPC  H10R24414   2.501   0.158   4.019  2.9064  0.3979 -0.6520
  197DOPC  C21124415   2.641  -0.008   4.038  0.3981  0.3512 -0.2583
  197DOPC  H11R24416   2.724   0.039   3.981 -0.3739  0.8271 -1.0339
  197DOPC  H11S24417   2.645  -0.118   4.023 -0.1847  0.1737  0.8179
  197DOPC  C21224418   2.680   0.023   4.186 -0.6691 -1.1020  0.5606
  197DOPC  H12R24419   2.642   0.125   4.207 -1.2044 -0.9046 -1.1932
  197DOPC  H12S24420   2.790   0.024   4.202 -0.6184  2.5286  0.8267
  197DOPC  C21324421   2.628  -0.078   4.283  0.0331  0.1381  0.9493
  197DOPC  H13R24422   2.688  -0.170   4.266  1.5042  1.5950 -2.7493
  197DOPC  H13S24423   2.527  -0.108   4.248 -0.0327 -1.5729  2.3941
  197DOPC  C21424424   2.637  -0.040   4.428  0.1287 -0.6303 -0.3597
  197DOPC  H14R24425   2.597  -0.118   4.497  1.7438  1.2771  2.9940
  197DOPC  H14S24426   2.573   0.050   4.434  0.5940 -0.4063  2.1056
  197DOPC  C21524427   2.784  -0.016   4.470  0.4520 -0.0762 -0.1528
  197DOPC  H15R24428   2.782   0.017   4.577 -2.2129 -1.1804  0.2169
  197DOPC  H15S24429   2.810   0.074   4.410  1.1970 -0.1918 -0.0105
  197DOPC  C21624430   2.891  -0.117   4.443  0.3512  0.1270  0.2643
  197DOPC  H16R24431   2.890  -0.147   4.336 -1.8111  0.2299  0.2155
  197DOPC  H16S24432   2.871  -0.209   4.503  0.6613 -0.5660 -0.6611
  197DOPC  C21724433   3.025  -0.077   4.487 -0.5270  0.2190  0.8063
  197DOPC  H17R24434   3.033  -0.065   4.597  1.4328  2.6740  0.4841
  197DOPC  H17S24435   3.040   0.021   4.437  0.0644 -0.7313 -0.9974
  197DOPC  C21824436   3.136  -0.168   4.441 -0.5549 -0.4065  0.4455
  197DOPC  H18R24437   3.127  -0.276   4.469 -1.6906 -0.6682 -0.8653
  197DOPC  H18S24438   3.237  -0.136   4.473 -0.4746 -1.6075  1.4896
  197DOPC  H18T24439   3.145  -0.161   4.331 -2.5384 -1.1865  0.1837
  197DOPC   C3324440   3.142  -0.182   3.331 -0.9759  0.1375  0.5188
  197DOPC   H3X24441   3.061  -0.254   3.356  0.8881 -2.5992 -0.8240
  197DOPC   H3Y24442   3.159  -0.105   3.409 -0.4811 -0.8583  1.4161
  197DOPC   C3424443   3.269  -0.272   3.316  0.3679  0.1375 -0.5511
  197DOPC   H4X24444   3.355  -0.220   3.268  0.4508 -0.2092 -0.7839
  197DOPC   H4Y24445   3.241  -0.351   3.244  0.9626 -0.1197 -0.5142
  197DOPC   C3524446   3.305  -0.348   3.442 -0.2849 -0.3886 -0.3863
  197DOPC   H5X24447   3.370  -0.435   3.418 -2.8171 -2.5350 -0.0824
  197DOPC   H5Y24448   3.215  -0.394   3.490 -0.0901  0.6359  1.0156
  197DOPC   C3624449   3.364  -0.264   3.559  0.0992  0.1637 -0.0555
  197DOPC   H6X24450   3.444  -0.192   3.533 -0.8895  0.8471 -1.3211
  197DOPC   H6Y24451   3.279  -0.202   3.595 -0.7148 -1.7843  1.6249
  197DOPC   C3724452   3.392  -0.359   3.683 -0.2170 -0.0317  0.4064
  197DOPC   H7X24453   3.299  -0.417   3.697 -1.6450  2.1874  0.7227
  197DOPC   H7Y24454   3.476  -0.428   3.659 -1.1668 -1.6560  1.5955
  197DOPC   C3824455   3.426  -0.283   3.809  0.1935 -0.6620 -0.5765
  197DOPC   H8X24456   3.465  -0.355   3.884  2.3578 -0.8340 -1.7764
  197DOPC   H8Y24457   3.340  -0.218   3.836 -0.8376 -1.5529 -1.6475
  197DOPC   C3924458   3.547  -0.198   3.786 -0.0826 -0.1972  0.7968
  197DOPC   H9X24459   3.584  -0.216   3.684 -0.0350  0.4781  0.6937
  197DOPC  C31024460   3.608  -0.107   3.863  0.8212 -0.3135  0.1393
  197DOPC  H10X24461   3.690  -0.060   3.808  0.8894 -0.8810 -0.2541
  197DOPC  C31124462   3.562  -0.054   3.997 -0.6562 -0.7816  0.0420
  197DOPC  H11X24463   3.477  -0.110   4.042 -1.4297  0.1716 -0.1885
  197DOPC  H11Y24464   3.555   0.057   3.996 -1.1084 -0.8091 -0.1608
  197DOPC  C31224465   3.684  -0.091   4.100 -0.5564 -0.3932  0.6107
  197DOPC  H12X24466   3.771  -0.043   4.051 -0.5961 -2.1385 -1.2462
  197DOPC  H12Y24467   3.705  -0.200   4.100 -2.6646 -0.8456  1.5115
  197DOPC  C31324468   3.651  -0.027   4.234  0.5966 -0.1445 -0.1855
  197DOPC  H13X24469   3.665   0.083   4.225 -0.6410  0.1914  1.4036
  197DOPC  H13Y24470   3.545  -0.045   4.263  0.5840  1.2649  0.7701
  197DOPC  C31424471   3.754  -0.069   4.352  0.0778 -0.1519 -0.5378
  197DOPC  H14X24472   3.752  -0.180   4.359  0.6670 -0.1868 -0.7802
  197DOPC  H14Y24473   3.857  -0.051   4.314  0.9624  0.0006  1.8005
  197DOPC  C31524474   3.725   0.001   4.484 -0.4487  0.1700 -0.3129
  197DOPC  H15X24475   3.633  -0.022   4.541  0.9266  1.1332  2.4645
  197DOPC  H15Y24476   3.713   0.108   4.454 -1.2137 -0.0555 -0.8326
  197DOPC  C31624477   3.827  -0.013   4.598  0.4433 -0.1368  0.5078
  197DOPC  H16X24478   3.927   0.014   4.558 -0.2417 -0.2490 -1.3861
  197DOPC  H16Y24479   3.790   0.050   4.681  0.7553 -1.7095  1.8916
  197DOPC  C31724480   3.842  -0.161   4.650  0.5139  0.8093 -0.3290
  197DOPC  H17X24481   3.741  -0.206   4.664 -0.1372  2.0002 -0.9885
  197DOPC  H17Y24482   3.899  -0.225   4.579 -0.8186 -1.8308  0.8717
  197DOPC  C31824483   3.908  -0.168   4.789  0.5614 -0.6850 -0.1314
  197DOPC  H18X24484   3.899  -0.270   4.832  0.7115  0.3113  2.4234
  197DOPC  H18Y24485   4.012  -0.132   4.774  1.3695 -2.2754  1.3082
  197DOPC  H18Z24486   3.859  -0.095   4.857  1.1440  0.9024 -1.3693
  198DOPC     N24487   0.003   0.531   2.348 -0.1254 -0.1734  0.1746
  198DOPC   C1224488   0.029   0.548   2.492 -0.4963  0.7770 -0.2557
  198DOPC  H12A24489  -0.010   0.641   2.530 -0.5630  0.1844  1.2078
  198DOPC  H12B24490   0.134   0.555   2.514 -0.1698 -1.8989 -0.6095
  198DOPC   C1324491   0.106   0.427   2.290  0.2282 -0.0538 -0.7454
  198DOPC  H13A24492   0.096   0.336   2.348  0.3722  0.9367  0.8922
  198DOPC  H13B24493   0.080   0.402   2.188 -1.5825  1.4226 -0.6979
  198DOPC  H13C24494   0.209   0.456   2.286  0.1221  0.3864 -0.3580
  198DOPC   C1424495   0.047   0.653   2.264 -0.5651  0.3811 -0.0359
  198DOPC  H14A24496   0.067   0.634   2.159 -0.6482  0.0321  0.0093
  198DOPC  H14B24497  -0.025   0.733   2.268  0.8309  1.6058  2.9418
  198DOPC  H14C24498   0.138   0.690   2.308 -0.7707 -0.8388  1.5215
  198DOPC   C1524499  -0.136   0.495   2.301  0.1423 -0.5639  0.1416
  198DOPC  H15A24500  -0.132   0.482   2.194  1.1929 -0.1559  0.1172
  198DOPC  H15B24501  -0.208   0.575   2.311 -0.7203 -1.1799 -0.9044
  198DOPC  H15C24502  -0.176   0.407   2.349  1.8201 -1.2725  0.3179
  198DOPC   C1124503  -0.020   0.425   2.583  0.5190 -0.0423  0.1351
  198DOPC  H11A24504  -0.018   0.449   2.692 -3.3158  1.1101  0.1055
  198DOPC  H11B24505  -0.126   0.415   2.553  0.7712 -0.1513 -0.7531
  198DOPC     P24506   0.199   0.290   2.602 -0.0182 -0.1672 -0.0434
  198DOPC   O1324507   0.269   0.424   2.617  0.0794  0.1500  0.1692
  198DOPC   O1424508   0.267   0.185   2.528  0.1206  0.3325  0.0104
  198DOPC   O1224509   0.052   0.309   2.552 -0.0009  0.0419  0.1208
  198DOPC   O1124510   0.167   0.237   2.739 -0.2381  0.0196 -0.3509
  198DOPC    C124511   0.062   0.143   2.780 -0.0090 -0.5785 -0.3799
  198DOPC    HA24512   0.111   0.048   2.811  1.9458  0.2770 -0.6901
  198DOPC    HB24513  -0.013   0.125   2.700  0.8044 -1.1062 -1.0359
  198DOPC    C224514  -0.028   0.196   2.899 -0.7235 -0.1849 -0.3859
  198DOPC    HS24515  -0.064   0.296   2.867  0.1269 -0.7013 -3.2733
  198DOPC   O2124516   0.060   0.217   3.023  0.1713  0.4858  0.4016
  198DOPC   C2124517   0.007   0.300   3.105 -0.2352 -0.2400  0.1898
  198DOPC   O2224518  -0.093   0.366   3.087 -0.4851 -0.1875 -0.0725
  198DOPC   C2224519   0.083   0.317   3.231  0.1029 -0.2055 -0.5577
  198DOPC   H2R24520   0.186   0.350   3.205 -0.4537  0.9420 -1.3731
  198DOPC   H2S24521   0.084   0.220   3.286 -1.3022 -0.1899 -0.4655
  198DOPC    C324522  -0.154   0.108   2.926 -0.0605  0.6616 -0.0692
  198DOPC    HX24523  -0.200   0.115   2.825  0.5932  1.5146 -0.3230
  198DOPC    HY24524  -0.218   0.160   3.000  0.4124  0.8114  0.2331
  198DOPC   O3124525  -0.105  -0.021   2.974 -0.3838  0.4358  0.2009
  198DOPC   C3124526  -0.161  -0.124   2.911  0.2340 -0.9914 -0.1770
  198DOPC   O3224527  -0.238  -0.118   2.818  0.2589 -0.5830  0.8521
  198DOPC   C3224528  -0.095  -0.256   2.964  0.4358  0.3175  0.3699
  198DOPC   H2X24529   0.002  -0.266   2.911 -0.2141 -1.6132 -0.5327
  198DOPC   H2Y24530  -0.069  -0.246   3.072  1.3210  1.0555  0.1033
  198DOPC   C2324531   0.029   0.422   3.328 -1.0677 -0.5251  0.2762
  198DOPC   H3R24532  -0.074   0.404   3.366 -0.0952 -0.5398  3.1412
  198DOPC   H3S24533   0.037   0.525   3.289  0.2082 -0.9864 -0.7689
  198DOPC   C2424534   0.107   0.411   3.462  0.2103 -0.9695  0.3936
  198DOPC   H4R24535   0.129   0.305   3.486  2.3649 -0.5689  0.3691
  198DOPC   H4S24536   0.052   0.460   3.545 -0.7084  1.4669 -1.5299
  198DOPC   C2524537   0.248   0.478   3.455  0.7195  0.1595 -0.5116
  198DOPC   H5R24538   0.249   0.568   3.390  2.5038  0.9232  0.5044
  198DOPC   H5S24539   0.311   0.400   3.407  1.5305  0.4526  0.0657
  198DOPC   C2624540   0.305   0.491   3.593  0.6202 -0.2908  0.0291
  198DOPC   H6R24541   0.293   0.398   3.651 -1.2293  0.1460  0.4256
  198DOPC   H6S24542   0.240   0.565   3.645  1.3638 -0.4223  1.1848
  198DOPC   C2724543   0.445   0.539   3.594 -0.5751  0.2927  0.3443
  198DOPC   H7R24544   0.451   0.643   3.556  0.5825  0.5839  1.2677
  198DOPC   H7S24545   0.514   0.485   3.527  1.2963  2.6406  0.2451
  198DOPC   C2824546   0.511   0.520   3.732  0.5938 -0.3204 -1.5474
  198DOPC   H8R24547   0.621   0.537   3.733  0.6776 -0.8224 -0.8872
  198DOPC   H8S24548   0.491   0.418   3.772 -0.5543  0.3796 -0.2354
  198DOPC   C2924549   0.451   0.620   3.827 -0.3879 -0.2662 -0.3597
  198DOPC   H9R24550   0.459   0.723   3.791 -2.4052  0.1067  0.1658
  198DOPC  C21024551   0.401   0.598   3.952  0.1281 -0.5008  0.8910
  198DOPC  H10R24552   0.349   0.686   3.993 -0.3111 -0.0323 -0.6041
  198DOPC  C21124553   0.391   0.481   4.042 -0.1352  0.7474 -0.4192
  198DOPC  H11R24554   0.431   0.519   4.139  2.1917 -0.1238 -0.9855
  198DOPC  H11S24555   0.458   0.397   4.015  0.4984  1.5843 -1.5241
  198DOPC  C21224556   0.252   0.425   4.066 -0.1093 -0.2725  0.4154
  198DOPC  H12R24557   0.195   0.503   4.121 -2.6920  0.6947 -3.2803
  198DOPC  H12S24558   0.253   0.334   4.129  0.2804 -0.9956 -0.6176
  198DOPC  C21324559   0.183   0.380   3.933  0.1383 -0.8967 -0.0920
  198DOPC  H13R24560   0.265   0.341   3.869  0.2396 -1.8900  0.6190
  198DOPC  H13S24561   0.144   0.472   3.882 -0.8946  0.0406  2.2623
  198DOPC  C21424562   0.079   0.271   3.940  0.2955  0.6930  1.1142
  198DOPC  H14R24563   0.126   0.177   3.974  0.8781  0.6719  0.2917
  198DOPC  H14S24564   0.056   0.263   3.831 -0.5176 -1.6603  1.4106
  198DOPC  C21524565  -0.051   0.305   4.012 -0.2519  0.2249 -0.4076
  198DOPC  H15R24566  -0.058   0.415   4.026  1.3418  0.3897 -0.7589
  198DOPC  H15S24567  -0.045   0.271   4.117  0.7705  2.1591  0.1906
  198DOPC  C21624568  -0.174   0.236   3.944 -0.3740 -0.2438 -0.5957
  198DOPC  H16R24569  -0.152   0.128   3.929  2.1604  0.0538  0.4439
  198DOPC  H16S24570  -0.188   0.277   3.842 -0.4005 -2.4460 -1.5155
  198DOPC  C21724571  -0.307   0.250   4.017 -0.0066 -0.3228 -0.7252
  198DOPC  H17R24572  -0.290   0.177   4.099  1.4074  0.0818 -0.6261
  198DOPC  H17S24573  -0.392   0.221   3.952 -1.6572  1.7590  0.3773
  198DOPC  C21824574  -0.336   0.394   4.078 -0.1297 -0.2948  0.3722
  198DOPC  H18R24575  -0.347   0.458   3.987  0.9615 -1.1409 -0.3832
  198DOPC  H18S24576  -0.253   0.426   4.145 -1.0258  0.0542  1.3351
  198DOPC  H18T24577  -0.432   0.392   4.132  0.6487 -1.0927  1.7845
  198DOPC   C3324578  -0.178  -0.377   2.916 -0.3823 -0.0857 -1.0768
  198DOPC   H3X24579  -0.121  -0.471   2.933 -0.3943  0.4606  3.1279
  198DOPC   H3Y24580  -0.185  -0.371   2.805  0.0510 -1.1603 -1.1775
  198DOPC   C3424581  -0.323  -0.378   2.975  0.0270  0.1394  0.8658
  198DOPC   H4X24582  -0.389  -0.314   2.913 -1.3700 -0.7345  1.3983
  198DOPC   H4Y24583  -0.333  -0.347   3.081 -3.7719  3.1775 -0.1758
  198DOPC   C3524584  -0.387  -0.512   2.953  0.1817 -0.2764  0.7276
  198DOPC   H5X24585  -0.335  -0.585   3.020  0.2187 -1.6079 -0.6964
  198DOPC   H5Y24586  -0.374  -0.549   2.849 -0.9864 -1.2439  0.9007
  198DOPC   C3624587  -0.540  -0.513   2.981 -0.1445 -0.1855  0.1932
  198DOPC   H6X24588  -0.592  -0.459   2.900  0.9382  0.4540 -0.0934
  198DOPC   H6Y24589  -0.564  -0.622   2.979 -0.2494 -0.2116  1.6661
  198DOPC   C3724590  -0.580  -0.464   3.118  0.4904  0.1175 -0.1567
  198DOPC   H7X24591  -0.530  -0.522   3.199 -0.8371 -0.8485  0.0161
  198DOPC   H7Y24592  -0.541  -0.361   3.119  0.6255  0.1130 -2.1990
  198DOPC   C3824593  -0.737  -0.477   3.144 -0.8568 -0.0114 -0.5473
  198DOPC   H8X24594  -0.779  -0.408   3.069 -1.5285  1.8394  1.4408
  198DOPC   H8Y24595  -0.755  -0.434   3.245  1.3873 -0.8948  0.3105
  198DOPC   C3924596  -0.798  -0.619   3.143  0.1368 -0.2177 -0.4820
  198DOPC   H9X24597  -0.733  -0.693   3.192 -0.3926  0.1550  0.8092
  198DOPC  C31024598  -0.923  -0.659   3.098 -0.4044  0.2535  0.5787
  198DOPC  H10X24599  -0.939  -0.767   3.080  1.2033  0.0847  0.0190
  198DOPC  C31124600  -1.018  -0.556   3.043 -0.3699  0.4309  0.0586
  198DOPC  H11X24601  -1.100  -0.600   2.983 -1.8986  0.0549  2.2896
  198DOPC  H11Y24602  -0.966  -0.489   2.972  0.1695 -1.4318 -1.3628
  198DOPC  C31224603  -1.098  -0.475   3.149  0.0540 -0.2336 -0.3656
  198DOPC  H12X24604  -1.138  -0.383   3.101  1.3586  0.6351  0.1299
  198DOPC  H12Y24605  -1.029  -0.445   3.231 -2.6871 -1.4848  2.6259
  198DOPC  C31324606  -1.214  -0.551   3.220 -0.9288 -0.6301 -0.0952
  198DOPC  H13X24607  -1.308  -0.563   3.161 -1.7578 -1.0604  1.2473
  198DOPC  H13Y24608  -1.176  -0.655   3.228  0.4752 -0.2599 -1.5197
  198DOPC  C31424609  -1.238  -0.493   3.363 -0.5059 -0.2713  0.7984
  198DOPC  H14X24610  -1.137  -0.481   3.408 -0.5845 -1.4721  1.3259
  198DOPC  H14Y24611  -1.274  -0.388   3.359 -1.3561 -0.5403  1.2342
  198DOPC  C31524612  -1.336  -0.572   3.449  0.4063  0.0387 -0.6539
  198DOPC  H15X24613  -1.310  -0.679   3.444  0.0293 -0.0291 -1.1641
  198DOPC  H15Y24614  -1.431  -0.564   3.392  0.9333  3.2297 -1.2819
  198DOPC  C31624615  -1.363  -0.512   3.582  0.9141  0.0224 -0.0760
  198DOPC  H16X24616  -1.264  -0.495   3.630  1.0987 -1.1123 -0.0362
  198DOPC  H16Y24617  -1.405  -0.409   3.577  2.9521  1.1188  2.6985
  198DOPC  C31724618  -1.464  -0.595   3.659 -0.5388 -0.1880 -0.8035
  198DOPC  H17X24619  -1.557  -0.591   3.598 -1.8852 -1.6079  1.0397
  198DOPC  H17Y24620  -1.435  -0.701   3.673  1.2990  0.3756 -0.1311
  198DOPC  C31824621  -1.497  -0.550   3.802  0.2686  0.1654 -0.5523
  198DOPC  H18X24622  -1.510  -0.440   3.811  2.0796  0.3281  0.7390
  198DOPC  H18Y24623  -1.589  -0.606   3.827 -0.1389 -0.4232 -3.1110
  198DOPC  H18Z24624  -1.406  -0.563   3.866 -0.6113 -0.4955  0.6019
  199DOPC     N24625   7.078   1.054   2.031 -0.1829  0.5311 -0.2273
  199DOPC   C1224626   7.120   0.928   2.106 -0.1379 -0.1112  0.0346
  199DOPC  H12A24627   7.222   0.936   2.138 -0.0270  0.4594 -0.4491
  199DOPC  H12B24628   7.115   0.844   2.038 -0.1077 -0.5830  0.6041
  199DOPC   C1324629   7.171   1.059   1.910 -0.3872  0.0236 -0.6949
  199DOPC  H13A24630   7.150   1.149   1.854  1.7289  0.7001 -0.4861
  199DOPC  H13B24631   7.274   1.053   1.942  0.0428 -1.2111 -2.1476
  199DOPC  H13C24632   7.148   0.982   1.837  0.9921  1.3089 -2.5774
  199DOPC   C1424633   7.099   1.178   2.104  0.3209  0.4518 -0.5337
  199DOPC  H14A24634   7.038   1.191   2.192  1.4999  0.1581  0.3504
  199DOPC  H14B24635   7.200   1.199   2.138 -0.8131  1.0258  2.7821
  199DOPC  H14C24636   7.069   1.259   2.039 -2.0152  1.7128  1.9450
  199DOPC   C1524637   6.932   1.054   1.984 -0.4923 -0.4843 -0.4651
  199DOPC  H15A24638   6.870   1.002   2.056 -2.6495  0.0872 -1.7998
  199DOPC  H15B24639   6.915   1.001   1.891  0.7092 -2.5879  0.4450
  199DOPC  H15C24640   6.890   1.153   1.978  0.0630 -0.2435 -0.3729
  199DOPC   C1124641   7.029   0.888   2.221 -0.0908  0.4634  0.1705
  199DOPC  H11A24642   7.086   0.832   2.299 -1.4403 -0.4246  0.5458
  199DOPC  H11B24643   6.985   0.976   2.273 -5.2918 -1.8403  0.2880
  199DOPC     P24644   6.818   0.764   2.284  0.1899 -0.0506 -0.0494
  199DOPC   O1324645   6.741   0.647   2.244  0.4779  0.1113 -0.0309
  199DOPC   O1424646   6.738   0.887   2.314 -0.2802  0.2526 -0.0284
  199DOPC   O1224647   6.925   0.802   2.174  0.0337 -0.5165 -0.2785
  199DOPC   O1124648   6.893   0.723   2.413 -0.2789  0.1469 -0.0692
  199DOPC    C124649   6.918   0.804   2.526  0.1670  0.0615 -0.3886
  199DOPC    HA24650   6.902   0.912   2.507 -0.8915  0.2887  1.5143
  199DOPC    HB24651   7.025   0.795   2.554 -0.2180 -1.5002  0.7481
  199DOPC    C224652   6.848   0.754   2.654  0.6261 -0.3281 -0.3071
  199DOPC    HS24653   6.740   0.780   2.657 -0.0824 -3.0299  0.5542
  199DOPC   O2124654   6.910   0.809   2.769  0.2231  0.2736 -0.1945
  199DOPC   C2124655   6.903   0.944   2.792 -0.2879  0.7019 -0.1606
  199DOPC   O2224656   6.842   1.024   2.724 -0.0866  0.4534 -0.1664
  199DOPC   C2224657   6.999   0.972   2.906 -0.2050 -0.1716  0.1069
  199DOPC   H2R24658   7.089   1.019   2.863  1.0947 -2.0970  0.5859
  199DOPC   H2S24659   7.039   0.876   2.945  0.1147  0.1984  0.6936
  199DOPC    C324660   6.849   0.603   2.667  0.1225  0.3624 -0.2076
  199DOPC    HX24661   6.950   0.558   2.662  0.1775  0.3396  0.9629
  199DOPC    HY24662   6.776   0.563   2.594  1.9569  0.3978 -2.1682
  199DOPC   O3124663   6.799   0.571   2.802 -0.3168 -0.3928 -0.1140
  199DOPC   C3124664   6.669   0.578   2.831  0.0859 -0.3104 -0.0045
  199DOPC   O3224665   6.577   0.615   2.767 -0.1064  0.1937  0.3129
  199DOPC   C3224666   6.647   0.527   2.974 -0.2654  1.1407  0.5092
  199DOPC   H2X24667   6.742   0.551   3.026  0.6798 -0.7634 -0.2534
  199DOPC   H2Y24668   6.550   0.570   3.009 -2.4059 -1.4640 -1.7383
  199DOPC   C2324669   6.933   1.052   3.020  0.6620  0.2056 -0.6519
  199DOPC   H3R24670   6.845   1.109   2.983  2.5275  2.7903 -1.3266
  199DOPC   H3S24671   6.999   1.120   3.078  0.6225  0.3734 -0.8046
  199DOPC   C2424672   6.879   0.953   3.131 -0.3855 -0.1032  0.0228
  199DOPC   H4R24673   6.814   0.873   3.088 -1.8578  0.8299  0.4523
  199DOPC   H4S24674   6.807   1.008   3.195 -0.0102 -0.4791  0.7802
  199DOPC   C2524675   6.995   0.909   3.229 -0.2310 -0.4510 -0.0201
  199DOPC   H5R24676   7.062   0.997   3.238  0.1659 -0.8317  0.8746
  199DOPC   H5S24677   7.037   0.817   3.183 -0.5623 -0.8882  0.5357
  199DOPC   C2624678   6.936   0.873   3.369 -0.2456  0.1626 -0.1458
  199DOPC   H6R24679   6.847   0.808   3.354 -0.4483  0.3284  0.2942
  199DOPC   H6S24680   6.899   0.962   3.425 -0.1647  0.9712 -1.3412
  199DOPC   C2724681   7.037   0.794   3.461 -1.1783 -0.2094 -0.2860
  199DOPC   H7R24682   7.115   0.870   3.479 -3.1465  1.9286 -0.3913
  199DOPC   H7S24683   7.086   0.717   3.397 -2.1601 -0.6567 -0.5130
  199DOPC   C2824684   6.974   0.748   3.596 -1.1306  0.0223  0.2864
  199DOPC   H8R24685   6.889   0.679   3.579  1.0875 -2.9092  0.3589
  199DOPC   H8S24686   6.937   0.838   3.649 -0.4495  0.6236 -0.2414
  199DOPC   C2924687   7.072   0.676   3.684  0.9608  0.2950  0.1124
  199DOPC   H9R24688   7.142   0.611   3.631  0.7308 -0.4040  0.6500
  199DOPC  C21024689   7.087   0.687   3.816 -0.0865  0.2336  0.5243
  199DOPC  H10R24690   7.152   0.613   3.864  1.6389  0.8732 -0.7228
  199DOPC  C21124691   6.992   0.763   3.905 -0.0371  0.1737  0.6503
  199DOPC  H11R24692   6.976   0.707   4.000 -0.1536 -0.8015  0.0714
  199DOPC  H11S24693   6.889   0.767   3.863 -0.3044  0.6041  1.3222
  199DOPC  C21224694   7.040   0.907   3.944 -1.3870  0.6043 -0.5279
  199DOPC  H12R24695   6.959   0.962   3.997 -0.9574  3.1475 -2.3557
  199DOPC  H12S24696   7.062   0.961   3.850  0.0456  1.7837  0.4527
  199DOPC  C21324697   7.186   0.914   4.012  0.9781 -0.2493 -0.1017
  199DOPC  H13R24698   7.268   0.900   3.939  2.7280 -0.7740  1.8662
  199DOPC  H13S24699   7.185   0.838   4.093 -0.3687  0.6587  0.7831
  199DOPC  C21424700   7.214   1.058   4.070 -0.0359  0.0844 -0.8189
  199DOPC  H14R24701   7.123   1.078   4.132 -0.0042 -1.1114 -0.3572
  199DOPC  H14S24702   7.204   1.129   3.985 -1.7020  0.3346 -0.4573
  199DOPC  C21524703   7.336   1.061   4.155  0.9244 -1.0457 -0.5219
  199DOPC  H15R24704   7.413   1.036   4.078  0.8161 -0.5250 -0.8018
  199DOPC  H15S24705   7.332   0.990   4.240 -1.5855  1.1932  1.3645
  199DOPC  C21624706   7.365   1.210   4.207 -0.0574 -0.2797 -0.5850
  199DOPC  H16R24707   7.452   1.215   4.276 -1.2264 -1.8200  1.0774
  199DOPC  H16S24708   7.283   1.247   4.272  0.1711 -0.1941 -0.3420
  199DOPC  C21724709   7.387   1.316   4.097  0.1682 -0.6999  0.3592
  199DOPC  H17R24710   7.404   1.409   4.157 -1.5376 -1.1244  1.6020
  199DOPC  H17S24711   7.297   1.324   4.033  1.1527 -0.1153 -0.9909
  199DOPC  C21824712   7.513   1.303   4.009  0.1047  0.0169  0.5999
  199DOPC  H18R24713   7.518   1.388   3.938 -1.3570  0.9161  1.5484
  199DOPC  H18S24714   7.506   1.203   3.961  0.2864 -0.3688  1.3618
  199DOPC  H18T24715   7.593   1.290   4.086  0.0560 -0.6534  0.5418
  199DOPC   C3324716   6.642   0.373   2.976  0.4574  0.3381 -0.6643
  199DOPC   H3X24717   6.739   0.329   2.944  1.5029  2.2024 -0.2475
  199DOPC   H3Y24718   6.562   0.344   2.904 -0.5163  1.0974  0.0828
  199DOPC   C3424719   6.588   0.309   3.105  0.1630  0.1157 -0.0195
  199DOPC   H4X24720   6.581   0.199   3.093 -0.7150  0.0205  1.1844
  199DOPC   H4Y24721   6.482   0.341   3.104  0.7298  2.2254 -1.8715
  199DOPC   C3524722   6.661   0.340   3.235  0.0124 -0.1619 -0.1479
  199DOPC   H5X24723   6.664   0.449   3.253  1.9976 -0.1981  0.0060
  199DOPC   H5Y24724   6.765   0.308   3.213 -0.3280  0.7387 -3.7578
  199DOPC   C3624725   6.587   0.278   3.353 -0.5117 -0.0762 -0.1949
  199DOPC   H6X24726   6.478   0.295   3.356 -0.2951  1.3755  1.5674
  199DOPC   H6Y24727   6.611   0.170   3.347 -0.0902 -0.1303  1.7652
  199DOPC   C3724728   6.642   0.343   3.487 -0.7395 -0.0692 -0.4693
  199DOPC   H7X24729   6.753   0.336   3.489 -0.7435 -0.1774 -0.6033
  199DOPC   H7Y24730   6.613   0.450   3.485  0.4193  0.2598 -0.1909
  199DOPC   C3824731   6.587   0.279   3.614 -0.4109 -0.2581 -0.3809
  199DOPC   H8X24732   6.634   0.178   3.607 -0.8733 -0.3936 -1.8293
  199DOPC   H8Y24733   6.476   0.279   3.613 -0.4175  0.8867 -0.8860
  199DOPC   C3924734   6.638   0.360   3.725 -0.0854  0.0522  0.6296
  199DOPC   H9X24735   6.562   0.434   3.754 -2.5689 -1.4038 -1.7674
  199DOPC  C31024736   6.766   0.358   3.771 -0.3200 -0.5593  0.5565
  199DOPC  H10X24737   6.793   0.431   3.850  1.8190  0.3609 -0.9109
  199DOPC  C31124738   6.882   0.268   3.724 -0.2940 -0.1183  0.7370
  199DOPC  H11X24739   6.975   0.328   3.714 -1.3197  1.2171 -1.7806
  199DOPC  H11Y24740   6.869   0.223   3.623  0.3891 -0.9019  0.9944
  199DOPC  C31224741   6.901   0.142   3.817  0.5895 -0.0701  0.1225
  199DOPC  H12X24742   6.807   0.084   3.817  0.8035 -0.4194 -0.2108
  199DOPC  H12Y24743   6.926   0.159   3.924 -1.9057 -2.4634  1.1949
  199DOPC  C31324744   6.999   0.038   3.761 -0.1485 -0.4283  0.2065
  199DOPC  H13X24745   6.980   0.027   3.652 -1.6986 -0.6343  0.4773
  199DOPC  H13Y24746   7.098   0.087   3.769 -1.4165  2.0211  1.9670
  199DOPC  C31424747   7.004  -0.101   3.824  0.3327 -0.1932 -0.1687
  199DOPC  H14X24748   7.017  -0.073   3.931  2.5304 -3.6251  0.6094
  199DOPC  H14Y24749   6.904  -0.147   3.817  0.3827 -0.0926 -1.8419
  199DOPC  C31524750   7.105  -0.209   3.781  0.1080 -0.0289 -0.0910
  199DOPC  H15X24751   7.101  -0.297   3.849  1.0212  0.3970  0.5361
  199DOPC  H15Y24752   7.210  -0.172   3.785 -0.6529  2.1715  2.3180
  199DOPC  C31624753   7.080  -0.254   3.637  0.2990 -0.3130 -0.3363
  199DOPC  H16X24754   6.972  -0.281   3.630  0.0624  0.1065  1.2621
  199DOPC  H16Y24755   7.092  -0.163   3.576 -0.9005 -0.0778 -0.2503
  199DOPC  C31724756   7.151  -0.385   3.610  0.2499 -0.0881 -0.0661
  199DOPC  H17X24757   7.261  -0.376   3.624  0.0946  2.1801  0.0351
  199DOPC  H17Y24758   7.105  -0.462   3.675  3.3412 -2.1503 -0.1216
  199DOPC  C31824759   7.137  -0.419   3.462  0.2742 -0.2663  0.6456
  199DOPC  H18X24760   7.035  -0.420   3.418  1.2770  0.1628 -1.8925
  199DOPC  H18Y24761   7.200  -0.351   3.401 -0.1185 -1.4083 -1.1202
  199DOPC  H18Z24762   7.173  -0.520   3.436 -1.1044 -0.2619 -1.5408
  200DOPC     N24763   1.659   0.254   2.932 -0.6319 -0.0998 -0.3493
  200DOPC   C1224764   1.586   0.239   3.066  0.4236  0.4260  0.3630
  200DOPC  H12A24765   1.490   0.190   3.055 -1.0423  2.9506  0.8814
  200DOPC  H12B24766   1.544   0.335   3.092 -2.6972 -0.9796  0.9656
  200DOPC   C1324767   1.591   0.359   2.847  0.8089  0.0951  0.5562
  200DOPC  H13A24768   1.486   0.338   2.830  0.3317  1.4873  1.5980
  200DOPC  H13B24769   1.603   0.461   2.880  2.5522 -0.4312  1.6773
  200DOPC  H13C24770   1.629   0.350   2.746  0.7026  0.8953  0.4375
  200DOPC   C1424771   1.650   0.125   2.859 -0.1041  0.2142  0.0248
  200DOPC  H14A24772   1.552   0.111   2.816 -0.2078  1.5288 -0.1908
  200DOPC  H14B24773   1.704   0.130   2.766 -1.0738 -0.4695 -0.6008
  200DOPC  H14C24774   1.694   0.045   2.917  0.6918 -1.0806 -2.2750
  200DOPC   C1524775   1.805   0.293   2.952  0.1819 -0.0677  0.4368
  200DOPC  H15A24776   1.856   0.318   2.860  1.2219 -0.9324  0.7476
  200DOPC  H15B24777   1.861   0.207   2.985  1.7521  0.4292 -0.7763
  200DOPC  H15C24778   1.820   0.372   3.024  3.4484 -0.3408  0.2217
  200DOPC   C1124779   1.667   0.170   3.183  0.8498 -0.1826 -0.7121
  200DOPC  H11A24780   1.597   0.151   3.267  0.9000 -1.7894 -1.0030
  200DOPC  H11B24781   1.697   0.067   3.155  0.6928 -0.3909 -0.1157
  200DOPC     P24782   1.770   0.378   3.307 -0.0557  0.3181  0.1099
  200DOPC   O1324783   1.708   0.477   3.216  0.1158  0.6396 -0.4744
  200DOPC   O1424784   1.907   0.414   3.342  0.3493  0.2439  0.1315
  200DOPC   O1224785   1.781   0.242   3.230 -0.3095  0.0914  0.0685
  200DOPC   O1124786   1.684   0.360   3.440  0.3046 -0.5214  0.6878
  200DOPC    C124787   1.713   0.255   3.535  0.3699 -0.0312  0.6925
  200DOPC    HA24788   1.805   0.198   3.511  0.7651  0.4170  1.1279
  200DOPC    HB24789   1.632   0.178   3.532  0.9177 -0.5988 -1.8118
  200DOPC    C224790   1.715   0.308   3.682  0.1691 -0.3348  0.3721
  200DOPC    HS24791   1.749   0.229   3.753 -0.1191 -2.4426 -1.7207
  200DOPC   O2124792   1.584   0.363   3.716  0.5517  0.1019  0.0712
  200DOPC   C2124793   1.532   0.313   3.835 -0.0434 -1.3768  0.5021
  200DOPC   O2224794   1.588   0.227   3.903  0.2724  0.5462  0.2843
  200DOPC   C2224795   1.409   0.401   3.871  0.1803 -0.1165  0.0123
  200DOPC   H2R24796   1.321   0.367   3.812 -0.7758  2.8292 -0.4222
  200DOPC   H2S24797   1.440   0.504   3.841  0.2051  0.3369  1.5331
  200DOPC    C324798   1.826   0.422   3.700 -0.1500  0.1326  0.4693
  200DOPC    HX24799   1.784   0.511   3.650  1.9253  1.1386  0.3925
  200DOPC    HY24800   1.922   0.398   3.649 -1.0087  0.0512 -1.1720
  200DOPC   O3124801   1.841   0.451   3.840 -0.0473  0.2685 -0.0165
  200DOPC   C3124802   1.949   0.399   3.901  0.5599  0.9019 -0.0180
  200DOPC   O3224803   2.041   0.342   3.842  0.7380  0.3833  0.2556
  200DOPC   C3224804   1.952   0.422   4.054 -0.1683  0.6109 -0.2304
  200DOPC   H2X24805   1.996   0.333   4.102 -1.4099  0.2590  0.2872
  200DOPC   H2Y24806   2.024   0.504   4.079 -1.3092  1.5931 -0.0651
  200DOPC   C2324807   1.368   0.400   4.026  0.6235 -0.1838  0.0268
  200DOPC   H3R24808   1.286   0.475   4.033  1.2126  0.4315  0.4110
  200DOPC   H3S24809   1.457   0.423   4.088  1.1700 -3.3958  0.6192
  200DOPC   C2424810   1.315   0.269   4.071  0.5620  0.5991  0.1479
  200DOPC   H4R24811   1.381   0.184   4.045  1.4371  1.5741 -0.9524
  200DOPC   H4S24812   1.213   0.265   4.025 -0.0998  1.4899  1.4645
  200DOPC   C2524813   1.303   0.258   4.227  0.4861  0.3372 -0.3018
  200DOPC   H5R24814   1.307   0.359   4.273  1.4830 -0.7827  2.2869
  200DOPC   H5S24815   1.396   0.208   4.260 -0.6095 -1.3138  0.4091
  200DOPC   C2624816   1.179   0.194   4.282 -0.0730 -0.1579 -0.8267
  200DOPC   H6R24817   1.178   0.084   4.268  0.3993 -0.1264 -1.1233
  200DOPC   H6S24818   1.086   0.234   4.236  0.2382  0.2835 -1.0782
  200DOPC   C2724819   1.172   0.233   4.429  0.8318  0.2692  0.3165
  200DOPC   H7R24820   1.151   0.342   4.427 -0.9783 -0.0255 -2.7306
  200DOPC   H7S24821   1.273   0.209   4.470  0.5525 -2.8642 -0.6194
  200DOPC   C2824822   1.048   0.164   4.497 -0.5081 -0.8564 -0.1815
  200DOPC   H8R24823   0.962   0.171   4.427  0.1460  0.9516 -0.8636
  200DOPC   H8S24824   1.025   0.221   4.590 -0.3883 -0.3302 -0.4740
  200DOPC   C2924825   1.075   0.026   4.543 -0.2888  0.0811  0.0059
  200DOPC   H9R24826   1.053  -0.047   4.464 -1.8070  1.0357 -0.4967
  200DOPC  C21024827   1.124  -0.005   4.659  0.2619  0.5314  0.3767
  200DOPC  H10R24828   1.140  -0.110   4.687 -2.2332  0.2666  1.0680
  200DOPC  C21124829   1.168   0.082   4.785  0.7109 -0.3408 -0.6381
  200DOPC  H11R24830   1.156   0.191   4.768 -1.1053 -0.4460 -0.2697
  200DOPC  H11S24831   1.278   0.085   4.802  0.5157  0.9938  0.6228
  200DOPC  C21224832   1.083   0.064   4.914 -0.0704 -0.5319 -0.0499
  200DOPC  H12R24833   0.976   0.073   4.886  0.2914 -1.3753 -1.8868
  200DOPC  H12S24834   1.107   0.141   4.990  0.1030 -1.4182  0.8071
  200DOPC  C21324835   1.097  -0.068   4.986  0.1692 -0.1418 -0.3805
  200DOPC  H13R24836   1.200  -0.078   5.026  0.7143  0.7757 -1.5027
  200DOPC  H13S24837   1.084  -0.159   4.924 -0.1234 -0.5287  0.2374
  200DOPC  C21424838   1.010  -0.082   5.110 -0.2737 -1.1387  0.6520
  200DOPC  H14R24839   0.901  -0.073   5.088 -0.4614  0.0677  1.9103
  200DOPC  H14S24840   1.024   0.007   5.173 -1.3082  1.3091 -2.3121
  200DOPC  C21524841   1.024  -0.215   5.184  0.0107 -0.3598  0.1136
  200DOPC  H15R24842   1.130  -0.237   5.206  1.2316  3.3417 -1.3397
  200DOPC  H15S24843   0.998  -0.298   5.114  1.3954  0.2568 -1.1660
  200DOPC  C21624844   0.930  -0.224   5.299  0.3792 -0.0397 -0.1954
  200DOPC  H16R24845   0.828  -0.183   5.279 -0.1092 -1.6798 -1.2145
  200DOPC  H16S24846   0.974  -0.155   5.374  2.4977 -0.3639 -1.0831
  200DOPC  C21724847   0.917  -0.368   5.359  0.0039 -0.3931  0.0127
  200DOPC  H17R24848   1.020  -0.408   5.367 -0.2165 -0.8956  0.3965
  200DOPC  H17S24849   0.877  -0.435   5.279  1.0520 -1.3303  0.2448
  200DOPC  C21824850   0.837  -0.381   5.488  0.1186 -0.1396  0.4225
  200DOPC  H18R24851   0.736  -0.336   5.476  0.3941 -0.0606 -2.1839
  200DOPC  H18S24852   0.878  -0.319   5.570  0.9053  1.4882 -1.1562
  200DOPC  H18T24853   0.845  -0.484   5.529  1.7329  0.1502  0.8810
  200DOPC   C3324854   1.806   0.445   4.119  0.0990  1.8941 -0.0084
  200DOPC   H3X24855   1.733   0.363   4.101  1.2909  1.1117 -1.4639
  200DOPC   H3Y24856   1.752   0.534   4.079  0.0799  0.8831 -2.4013
  200DOPC   C3424857   1.825   0.450   4.272  0.1886 -0.8305  0.2703
  200DOPC   H4X24858   1.889   0.530   4.315  1.4088 -1.4751 -0.2950
  200DOPC   H4Y24859   1.871   0.356   4.309 -0.5835 -1.4102 -0.2231
  200DOPC   C3524860   1.697   0.472   4.347 -0.2388  0.4613  0.2427
  200DOPC   H5X24861   1.638   0.379   4.331 -0.5010  0.5916  0.4320
  200DOPC   H5Y24862   1.643   0.561   4.308 -1.8650 -0.6591 -0.1927
  200DOPC   C3624863   1.724   0.481   4.495 -0.6996 -0.3321 -0.2921
  200DOPC   H6X24864   1.797   0.407   4.534 -0.0808  0.4701  0.0937
  200DOPC   H6Y24865   1.773   0.579   4.513 -0.5460 -0.1577 -1.5450
  200DOPC   C3724866   1.601   0.455   4.583  0.6047 -0.7649 -0.5951
  200DOPC   H7X24867   1.511   0.500   4.536  2.2071  3.5812 -0.0091
  200DOPC   H7Y24868   1.590   0.345   4.592 -0.5843 -0.4877  3.6993
  200DOPC   C3824869   1.617   0.532   4.721 -0.8582  0.5102  0.6037
  200DOPC   H8X24870   1.664   0.633   4.715  1.9556 -0.6472  1.2822
  200DOPC   H8Y24871   1.699   0.469   4.761 -1.9770 -1.2829  0.1854
  200DOPC   C3924872   1.489   0.521   4.798  0.1049  0.4264 -0.0336
  200DOPC   H9X24873   1.495   0.440   4.872 -1.2533 -0.9295 -1.3429
  200DOPC  C31024874   1.372   0.586   4.785  0.5550  0.2105 -0.1037
  200DOPC  H10X24875   1.281   0.549   4.834  0.3632  1.4602  0.5332
  200DOPC  C31124876   1.352   0.684   4.676  0.1754 -0.7112 -0.0395
  200DOPC  H11X24877   1.445   0.731   4.635 -0.7151  1.2384  0.0550
  200DOPC  H11Y24878   1.298   0.769   4.724  4.4084  2.2035  0.1911
  200DOPC  C31224879   1.261   0.638   4.565  0.0192  0.0431  0.1630
  200DOPC  H12X24880   1.161   0.602   4.599  0.7233 -0.7770  1.4557
  200DOPC  H12Y24881   1.299   0.543   4.522 -0.6835 -0.3379  0.3590
  200DOPC  C31324882   1.231   0.746   4.453 -0.6073 -0.1839  0.3313
  200DOPC  H13X24883   1.193   0.842   4.496 -2.0056 -0.4408 -0.2701
  200DOPC  H13Y24884   1.328   0.772   4.405 -1.1298  0.6291 -0.3329
  200DOPC  C31424885   1.145   0.686   4.338 -0.1914 -0.4194 -0.4798
  200DOPC  H14X24886   1.159   0.576   4.335  2.0685 -0.1598 -0.4824
  200DOPC  H14Y24887   1.037   0.700   4.360 -0.1349  2.0052 -1.4244
  200DOPC  C31524888   1.182   0.755   4.203  0.5036  0.1895  0.2482
  200DOPC  H15X24889   1.133   0.703   4.118  1.1494  0.3560 -0.2309
  200DOPC  H15Y24890   1.292   0.746   4.190  0.4462 -0.3506  0.1287
  200DOPC  C31624891   1.161   0.912   4.197 -0.4047  0.1707 -0.0841
  200DOPC  H16X24892   1.065   0.939   4.247 -0.7462 -0.7460 -0.2225
  200DOPC  H16Y24893   1.241   0.958   4.258 -1.1234 -0.4903  1.3983
  200DOPC  C31724894   1.170   0.984   4.062  0.1551 -0.1381  0.9550
  200DOPC  H17X24895   1.179   1.093   4.081  1.3964 -0.1705  0.6410
  200DOPC  H17Y24896   1.264   0.955   4.010  0.4993  0.9192  0.9646
  200DOPC  C31824897   1.062   0.939   3.961  1.0751  0.1615  0.6716
  200DOPC  H18X24898   1.043   0.831   3.978  1.5187  0.3055  2.2194
  200DOPC  H18Y24899   0.967   0.989   3.990  0.9084  0.7852 -0.8608
  200DOPC  H18Z24900   1.087   0.971   3.858  0.4091  0.4088  0.5809
  201SOD    SOD24901   3.352   4.203   7.800  0.3218  0.2565 -0.0587
  202SOD    SOD24902   0.226   7.405   9.429  0.0343  0.5886  0.2456
  203SOD    SOD24903   1.640   3.265   0.928 -0.6292 -0.2714 -0.2997
  204SOD    SOD24904   3.026   4.538   0.791 -0.8820  0.3745  0.0138
  205SOD    SOD24905   3.839   4.640   0.737 -0.7450 -0.4929 -0.0108
  206SOD    SOD24906   2.164   1.257   2.911  0.1313 -0.0788  0.6025
  207SOD    SOD24907   4.339   6.288   2.968  0.0922  0.3381  0.1347
  208SOD    SOD24908   4.513   5.053   0.304  0.0338  0.3071  0.2971
  209SOD    SOD24909   1.077   6.126   7.555  0.3729 -0.0872 -0.1588
  210SOD    SOD24910   0.696   4.639   7.762  0.1464  0.2442  0.3385
  211SOD    SOD24911   2.883   7.155   9.151 -0.3166 -0.4500 -0.7355
  212SOD    SOD24912   5.168   7.229   8.129  0.3481  0.1186 -0.1167
  213SOD    SOD24913   4.352   0.805   8.700  0.0806  0.4627  0.2432
  214SOD    SOD24914   3.823   7.460   1.551 -0.3117  0.4313 -0.1713
  215SOD    SOD24915   2.825   5.053   8.749  0.0347  0.0252 -0.0658
  216SOD    SOD24916   3.732   2.161   8.952 -0.4973  0.2645  0.4484
  217SOD    SOD24917   0.138   2.716   0.429 -0.0814 -0.0390 -0.0550
  218SOD    SOD24918   2.078   3.335   8.570  0.6989  0.0047  0.5397
  219SOD    SOD24919   3.496   3.207   9.704  0.5049  0.3641 -0.0085
  220SOD    SOD24920   4.170   0.243   2.248 -0.2026 -0.1503 -0.1516
  221SOD    SOD24921   6.832   7.376   9.295 -0.6378  0.4132  0.0724
  222SOD    SOD24922   3.984   0.027   0.216  0.2368  0.4762 -0.4089
  223SOD    SOD24923   0.233   1.199   7.901  0.1054 -0.2011 -0.0804
  224SOD    SOD24924   3.133   6.792   0.918  0.4557  0.1779  0.2628
  225SOD    SOD24925   2.008   0.207   1.251  0.6290 -0.5211 -0.1200
  226SOD    SOD24926   0.805   6.108   1.205 -0.2284 -0.2132  0.0428
  227CLA    CLA24927   2.584   3.523   0.765  0.0478  0.0500  0.1203
  228CLA    CLA24928   6.115   4.139   0.300  0.2540 -0.0715  0.2461
  229CLA    CLA24929   4.046   0.830   9.069  0.0005 -0.1109  0.0273
  230CLA    CLA24930   5.051   0.696   7.791  0.0713 -0.2286  0.1764
  231CLA    CLA24931   3.453   3.725   1.902  0.2403  0.1587 -0.3035
  232CLA    CLA24932   4.649   7.520   1.168 -0.1104 -0.1798  0.1451
  233CLA    CLA24933   4.253   0.928   9.551 -0.0653  0.4831  0.0027
  234CLA    CLA24934   0.948   5.878   1.731 -0.2337  0.0031 -0.1058
  235CLA    CLA24935   1.460   6.636   7.961 -0.0244 -0.3454  0.0190
  236CLA    CLA24936   2.125   1.309   2.130 -0.2261 -0.0107  0.4342
  237CLA    CLA24937   7.242   5.055   1.668  0.2174 -0.2175  0.1109
  238CLA    CLA24938   4.043   4.992   9.422  0.2536  0.2013  0.0732
  239CLA    CLA24939   1.946   4.988   9.070 -0.7576  0.2314 -0.1152
  240CLA    CLA24940   2.864   4.721   9.026  0.5664  0.3851  0.0807
  241CLA    CLA24941   5.664   1.943   9.111  0.5707 -0.1686  0.6316
  242CLA    CLA24942   6.927   7.512   0.666  0.2855  0.3161  0.1074
  243CLA    CLA24943   1.906   5.773   8.198  0.1416 -0.0551 -0.2868
  244CLA    CLA24944   3.594   3.439   8.638 -0.3719  0.3533  0.4387
  245CLA    CLA24945   6.076   7.340   8.491 -0.2564 -0.1688 -0.3835
  246CLA    CLA24946   1.460   7.307   0.123  0.1492  0.2389 -0.1623
  247CLA    CLA24947   3.819   6.907   1.202 -0.3767 -0.0459 -0.3040
  248CLA    CLA24948   4.253   2.142   9.475  0.2798  0.4191 -0.2285
  249CLA    CLA24949   1.611   0.450   1.831  0.1163 -0.0135 -0.0750
  250CLA    CLA24950   3.708   3.611   7.590  0.4015 -0.3143 -0.0005
  251CLA    CLA24951   2.167   1.521   8.548 -0.4478 -0.0494  0.5604
  252CLA    CLA24952   0.339   3.851   8.993  0.2004  0.1240  0.0558
  253TIP3   OH224953   5.980   0.788   0.194  0.1060  0.0858  0.1467
  253TIP3    H124954   6.034   0.709   0.199  0.7124  0.5401  1.0506
  253TIP3    H224955   5.904   0.762   0.141  1.7132 -0.2466 -2.1364
  254TIP3   OH224956   6.344   5.426   1.039 -0.2914  0.4532 -0.1038
  254TIP3    H124957   6.329   5.494   1.104 -1.7129  0.5332 -0.4845
  254TIP3    H224958   6.343   5.344   1.089  0.2707  0.6207  0.1893
  255TIP3   OH224959   1.687   7.199   7.375 -0.2268  0.5372 -0.4788
  255TIP3    H124960   1.702   7.157   7.290  1.5609  1.4315 -0.6482
  255TIP3    H224961   1.762   7.173   7.428 -1.0618  0.4103  0.6857
  256TIP3   OH224962   0.228   0.288   8.607 -0.7145  0.6149  0.6029
  256TIP3    H124963   0.247   0.209   8.556 -1.2521  0.8357  0.0596
  256TIP3    H224964   0.150   0.325   8.567 -0.0697  1.8055  0.4099
  257TIP3   OH224965   0.577   4.860   0.513  0.1377  0.5694  0.6480
  257TIP3    H124966   0.500   4.891   0.562  0.0887  1.3157  0.1194
  257TIP3    H224967   0.603   4.935   0.460 -0.1433 -0.3814 -0.8964
  258TIP3   OH224968   5.115   1.932   7.596  0.5587 -0.0840  0.0655
  258TIP3    H124969   5.172   1.870   7.642  1.1423  0.0330 -0.4793
  258TIP3    H224970   5.092   1.996   7.662 -1.8029 -1.9895  1.2306
  259TIP3   OH224971   1.441   0.302   0.893 -0.2242  0.4627  0.1225
  259TIP3    H124972   1.527   0.274   0.923  0.1663  1.4768  0.0085
  259TIP3    H224973   1.404   0.226   0.849  0.2929 -0.2178  0.8418
  260TIP3   OH224974   3.029   3.751   0.443 -0.0508 -0.3285 -0.5872
  260TIP3    H124975   3.105   3.706   0.406  0.6704 -0.0567  0.4875
  260TIP3    H224976   3.067   3.810   0.509 -1.2615 -0.7176  0.4893
  261TIP3   OH224977   4.452   4.598   9.752  0.2712  0.0173 -0.0732
  261TIP3    H124978   4.446   4.600   9.657  1.6171  0.8018 -0.1631
  261TIP3    H224979   4.376   4.648   9.782  0.2299  0.3723 -0.7580
  262TIP3   OH224980   0.688   2.140   1.714  0.1205 -0.0440 -0.1224
  262TIP3    H124981   0.682   2.214   1.654  0.6804  1.1482  1.2262
  262TIP3    H224982   0.696   2.064   1.657  1.4440  1.0973 -1.5784
  263TIP3   OH224983   6.359   6.863   9.763 -0.4969  0.0144  0.3257
  263TIP3    H124984   6.277   6.912   9.772 -0.6138 -0.3346  1.2076
  263TIP3    H224985   6.361   6.805   9.838  0.7293  0.2562  0.4981
  264TIP3   OH224986   5.753   0.616   1.617 -0.4308 -0.2548 -0.4098
  264TIP3    H124987   5.680   0.612   1.555 -0.1882  0.4366 -0.7466
  264TIP3    H224988   5.794   0.529   1.610 -1.4727 -0.8103  0.1191
  265TIP3   OH224989   3.389   6.815   9.760  0.7529  0.5841  0.4861
  265TIP3    H124990   3.466   6.870   9.776  1.0256  0.3588 -0.0255
  265TIP3    H224991   3.386   6.805   9.665  0.7247 -0.3112  0.5761
  266TIP3   OH224992   4.318   3.718   7.744 -0.5283  0.0365 -0.1676
  266TIP3    H124993   4.340   3.704   7.652 -0.1716 -1.8378  0.1847
  266TIP3    H224994   4.394   3.763   7.781 -0.4537  0.3094 -0.6422
  267TIP3   OH224995   1.526   4.293   0.086 -0.0409  0.0765 -0.0891
  267TIP3    H124996   1.476   4.373   0.066  2.0885  1.4506 -0.2086
  267TIP3    H224997   1.579   4.316   0.162 -1.8083 -2.3739  2.0439
  268TIP3   OH224998   2.295   2.012   7.509 -0.1562 -0.6585 -0.9029
  268TIP3    H124999   2.243   1.990   7.431 -1.5080  1.0609 -0.5592
  268TIP3    H225000   2.359   2.075   7.478 -1.8058  1.3803 -0.3990
  269TIP3   OH225001   0.330   1.470   9.702 -0.0277  0.2744  0.0300
  269TIP3    H125002   0.243   1.473   9.662  0.4039 -0.3731 -0.9915
  269TIP3    H225003   0.362   1.561   9.696 -0.9324  0.6819  1.1301
  270TIP3   OH225004   1.541   6.704   9.401  0.1852  0.1128 -0.2026
  270TIP3    H125005   1.485   6.766   9.355 -0.4331 -0.1818  0.1436
  270TIP3    H225006   1.494   6.621   9.396 -0.1750  0.1830  1.4192
  271TIP3   OH225007   2.716   6.068   0.789  0.3694  0.0668  0.1972
  271TIP3    H125008   2.670   6.047   0.870  1.7015 -0.2395  0.9002
  271TIP3    H225009   2.786   6.003   0.783 -0.3957 -0.6507 -1.8289
  272TIP3   OH225010   6.864   6.122   9.369 -0.2574  0.7424 -0.0278
  272TIP3    H125011   6.849   6.217   9.369 -1.0892  0.6257  0.6572
  272TIP3    H225012   6.804   6.089   9.436  1.5549 -0.0420  1.2603
  273TIP3   OH225013   6.584   2.127   8.217  0.4005 -0.1367  0.2971
  273TIP3    H125014   6.573   2.064   8.288  2.7917  0.8327  1.6530
  273TIP3    H225015   6.677   2.120   8.194 -0.0116  0.6045 -1.7750
  274TIP3   OH225016   6.958   3.524   1.742  0.2776  0.3101 -0.0122
  274TIP3    H125017   6.982   3.580   1.668  1.7334  0.2829  0.4020
  274TIP3    H225018   6.888   3.468   1.708 -1.1409  2.2521 -0.4803
  275TIP3   OH225019   1.563   2.674   2.298  0.2722  0.1186 -0.6658
  275TIP3    H125020   1.652   2.653   2.327 -0.0087  0.2734  0.3389
  275TIP3    H225021   1.526   2.590   2.273 -0.6456 -0.6476  2.7697
  276TIP3   OH225022   6.260   7.325   8.184 -0.4255  0.6161  0.1770
  276TIP3    H125023   6.244   7.369   8.101 -1.9002 -0.0919  0.0610
  276TIP3    H225024   6.176   7.327   8.230  0.3695  1.0314  1.6863
  277TIP3   OH225025   2.788   6.245   0.131 -0.1835 -0.1498  0.4102
  277TIP3    H125026   2.842   6.174   0.167 -0.6703 -0.9374 -0.3714
  277TIP3    H225027   2.698   6.217   0.147 -0.4521 -0.8307 -1.8555
  278TIP3   OH225028   1.577   6.431   1.637 -0.0969 -0.5805  0.6920
  278TIP3    H125029   1.645   6.484   1.679  1.1172 -1.0391 -0.6220
  278TIP3    H225030   1.537   6.381   1.709 -0.1834  0.8993  1.7152
  279TIP3   OH225031   0.153   3.746   2.334 -0.6327  0.0819 -0.7163
  279TIP3    H125032   0.060   3.755   2.315 -0.4857 -1.0214 -2.0190
  279TIP3    H225033   0.159   3.667   2.387 -0.3299 -0.4233 -1.4979
  280TIP3   OH225034   1.334   3.186   8.105 -0.0150  0.5125 -0.4099
  280TIP3    H125035   1.408   3.125   8.106  0.2346  0.8090  0.9940
  280TIP3    H225036   1.374   3.272   8.121 -0.7332  0.5378  1.4936
  281TIP3   OH225037   7.533   1.869   7.802  0.2426 -0.0960  0.4181
  281TIP3    H125038   7.576   1.783   7.801 -0.9326 -0.7650  2.1558
  281TIP3    H225039   7.465   1.863   7.735  0.4056 -0.4011  0.2774
  282TIP3   OH225040   5.950   5.426   1.260 -0.6335  0.7877  0.7325
  282TIP3    H125041   5.942   5.412   1.166 -0.8612 -0.9588  0.9825
  282TIP3    H225042   6.034   5.387   1.283 -1.5542 -0.8253  1.5613
  283TIP3   OH225043   2.543   2.323   2.330  0.3326 -0.5005 -0.0094
  283TIP3    H125044   2.536   2.400   2.273 -1.4015 -0.1477  0.6018
  283TIP3    H225045   2.460   2.277   2.317  1.0750 -1.9259  0.1360
  284TIP3   OH225046   4.904   6.478   8.659  0.1617 -0.0621 -0.1510
  284TIP3    H125047   4.823   6.524   8.636  0.1527  1.2236  2.1848
  284TIP3    H225048   4.969   6.513   8.598 -0.4160  1.1672 -0.0914
  285TIP3   OH225049   4.270   2.408   1.668 -0.3154  0.0090  0.0298
  285TIP3    H125050   4.302   2.484   1.716 -0.9830  0.4782 -0.2546
  285TIP3    H225051   4.303   2.420   1.579  0.1238 -0.3752  0.1352
  286TIP3   OH225052   1.734   2.932   2.394 -0.2404 -0.1661  0.1474
  286TIP3    H125053   1.764   2.841   2.386 -1.2852 -0.3836 -2.0056
  286TIP3    H225054   1.641   2.926   2.413 -0.4079  0.4443 -0.4391
  287TIP3   OH225055   2.465   2.756   2.002 -0.9657  0.1089 -0.1558
  287TIP3    H125056   2.504   2.685   1.951  0.1349  2.2676 -2.5112
  287TIP3    H225057   2.516   2.758   2.083  0.6395 -0.2362 -1.1111
  288TIP3   OH225058   4.527   1.485   1.250  0.1634 -0.2935 -0.0870
  288TIP3    H125059   4.535   1.393   1.225 -0.2276 -0.1645 -0.7066
  288TIP3    H225060   4.509   1.531   1.168 -1.1701  0.1407  0.4190
  289TIP3   OH225061   1.548   2.075   7.557 -0.5291  0.7729 -0.0223
  289TIP3    H125062   1.532   2.009   7.623  1.7270  1.0084  0.8707
  289TIP3    H225063   1.605   2.139   7.600 -1.2124  2.3664 -1.3827
  290TIP3   OH225064   7.159   1.479   0.704 -0.3046 -0.0742  0.2648
  290TIP3    H125065   7.150   1.430   0.786 -0.0073 -0.6623 -0.0429
  290TIP3    H225066   7.206   1.419   0.646 -0.9870  0.1281 -0.5121
  291TIP3   OH225067   2.506   1.434   0.697 -0.0905 -0.6921 -0.2096
  291TIP3    H125068   2.434   1.371   0.699 -0.0461 -0.9309 -2.7529
  291TIP3    H225069   2.502   1.472   0.609  0.1838  2.5534  1.0221
  292TIP3   OH225070   6.321   7.296   9.086  0.0138  0.3605  0.4689
  292TIP3    H125071   6.349   7.223   9.030  0.8297  0.9008  0.1529
  292TIP3    H225072   6.330   7.373   9.030 -0.2433  0.7746  0.9988
  293TIP3   OH225073   5.229   6.235   1.446 -0.6835  0.4507  0.1076
  293TIP3    H125074   5.323   6.222   1.459 -0.2046  0.1747 -2.9576
  293TIP3    H225075   5.214   6.325   1.475  0.2523  0.1134  1.7611
  294TIP3   OH225076   4.717   4.374   2.329  0.6701  0.6302  0.1301
  294TIP3    H125077   4.727   4.353   2.422  0.3205 -2.0528 -0.3669
  294TIP3    H225078   4.701   4.468   2.328  0.7902  0.7679  2.7674
  295TIP3   OH225079   4.689   2.347   0.100 -0.6427  0.3054  0.1674
  295TIP3    H125080   4.668   2.375   0.011  1.6972 -1.3596 -1.0157
  295TIP3    H225081   4.604   2.328   0.140 -1.6827 -1.1101 -2.5125
  296TIP3   OH225082   7.271   1.057   9.942 -0.2050  0.5155 -0.2185
  296TIP3    H125083   7.187   1.011   9.942  0.1549 -0.1710 -0.9034
  296TIP3    H225084   7.284   1.084  10.033  0.0046 -1.6009  0.4532
  297TIP3   OH225085   7.414   7.054   8.797 -0.1141  0.0376  0.0848
  297TIP3    H125086   7.327   7.036   8.832 -0.2174  0.0423 -0.1630
  297TIP3    H225087   7.472   6.994   8.843 -0.4482 -0.9486 -0.7404
  298TIP3   OH225088   0.075   0.149   9.708  0.1428 -0.5123 -0.7753
  298TIP3    H125089   0.150   0.167   9.765  0.8038 -1.2028 -1.4035
  298TIP3    H225090   0.006   0.118   9.768  0.3928 -0.0062 -0.2132
  299TIP3   OH225091   0.835   3.293   9.869 -0.0238 -0.4034  0.0845
  299TIP3    H125092   0.754   3.330   9.903 -0.3279 -0.4912 -0.5206
  299TIP3    H225093   0.905   3.334   9.920 -0.3980  0.3930 -0.0326
  300TIP3   OH225094   5.452   7.296   1.618 -0.3116 -0.2496  0.6322
  300TIP3    H125095   5.427   7.257   1.534  1.2577 -2.2124  1.0190
  300TIP3    H225096   5.498   7.377   1.593  0.4963 -1.0140 -0.4549
  301TIP3   OH225097   5.139   3.064   2.348 -0.4139  0.1979  0.1261
  301TIP3    H125098   5.103   3.146   2.381 -2.7370  0.1635 -2.0317
  301TIP3    H225099   5.092   2.996   2.396 -0.8411  0.1622 -0.3277
  302TIP3   OH225100   3.347   6.011   1.056 -0.0747  0.2736  0.4525
  302TIP3    H125101   3.416   6.019   0.991  0.9175 -2.5147  1.0105
  302TIP3    H225102   3.285   5.948   1.018 -1.2182  1.1165  0.8554
  303TIP3   OH225103   3.641   6.585   1.561  0.3459  0.4141  0.1511
  303TIP3    H125104   3.652   6.670   1.519  1.3468 -0.2379 -0.9798
  303TIP3    H225105   3.648   6.522   1.489  1.2672 -0.7071  1.1783
  304TIP3   OH225106   1.578   1.493   9.357  0.5059 -0.0442 -0.0506
  304TIP3    H125107   1.584   1.566   9.295 -1.7708 -0.2529 -0.5972
  304TIP3    H225108   1.650   1.435   9.332  0.4169  0.4909 -1.6855
  305TIP3   OH225109   0.932   7.262   0.590 -0.0084 -0.3157  0.1630
  305TIP3    H125110   0.871   7.190   0.576 -0.6650  0.6064 -2.1377
  305TIP3    H225111   1.006   7.222   0.636 -0.6146 -2.3276 -0.5045
  306TIP3   OH225112   2.123   3.357   6.964 -0.6544 -0.6610 -0.0208
  306TIP3    H125113   2.162   3.366   6.877 -2.0674 -0.9588 -0.7052
  306TIP3    H225114   2.056   3.290   6.955  0.1292 -1.7576  1.6659
  307TIP3   OH225115   6.849   3.221   2.309 -0.1170  0.1669  0.2189
  307TIP3    H125116   6.813   3.298   2.354  0.6518  0.2027  0.7980
  307TIP3    H225117   6.786   3.151   2.327 -1.5355  0.9351 -1.4261
  308TIP3   OH225118   4.283   0.253   6.633 -0.8279 -0.6462 -0.1262
  308TIP3    H125119   4.372   0.287   6.620 -1.3905  1.9156  1.9639
  308TIP3    H225120   4.296   0.161   6.656  1.1498 -0.7061 -1.2732
  309TIP3   OH225121   2.863   5.724   2.641 -0.2010 -0.6555 -0.3234
  309TIP3    H125122   2.859   5.774   2.723  2.7704  0.1275 -0.5287
  309TIP3    H225123   2.804   5.650   2.654 -3.5646  1.9521  0.6297
  310TIP3   OH225124   2.298   2.228   1.971  0.0986 -0.1048  0.2128
  310TIP3    H125125   2.383   2.219   1.930 -0.2266  0.9049 -0.7414
  310TIP3    H225126   2.305   2.308   2.024 -1.3379  2.3559 -2.9464
  311TIP3   OH225127   1.138   6.918   9.058  0.3973  0.0026  0.2352
  311TIP3    H125128   1.091   6.842   9.092 -1.6225  1.6670  1.4242
  311TIP3    H225129   1.122   6.916   8.963  0.2825 -0.9668  0.2653
  312TIP3   OH225130   2.746   6.255   8.124 -0.1902  0.3760 -0.0138
  312TIP3    H125131   2.676   6.191   8.120 -0.7786  0.5611  3.6639
  312TIP3    H225132   2.755   6.275   8.217  1.1347  4.3553 -0.7894
  313TIP3   OH225133   2.709   5.349   9.446 -0.0808 -0.1694  0.3493
  313TIP3    H125134   2.782   5.365   9.506  2.0640 -2.0442 -1.5364
  313TIP3    H225135   2.712   5.424   9.385  1.6656 -1.1359 -0.8745
  314TIP3   OH225136   6.306   7.053   9.229 -0.3943 -0.1683 -0.1550
  314TIP3    H125137   6.356   7.049   9.310  0.3660 -0.3082 -0.6187
  314TIP3    H225138   6.311   7.146   9.203  1.5244 -0.5371 -1.3329
  315TIP3   OH225139   2.834   0.695   9.923  0.3842  0.1905 -0.1914
  315TIP3    H125140   2.886   0.732   9.995 -0.9571  1.1468  0.3206
  315TIP3    H225141   2.748   0.678   9.962  0.4706 -2.0581 -0.8276
  316TIP3   OH225142   3.712   1.594   1.012 -0.4111  0.1149  0.3705
  316TIP3    H125143   3.725   1.611   0.919 -2.3939  0.0980  0.0495
  316TIP3    H225144   3.767   1.659   1.056  0.0925  0.5096 -0.7924
  317TIP3   OH225145   4.084   1.549   1.608  0.7316  0.8611 -0.0050
  317TIP3    H125146   4.072   1.637   1.573  0.1157  0.6412 -0.3549
  317TIP3    H225147   4.009   1.499   1.576  0.9562  0.2621  0.3721
  318TIP3   OH225148   6.578   6.912   1.589  0.6094 -0.7286  0.1786
  318TIP3    H125149   6.583   6.828   1.543  1.0079 -0.9683  0.6550
  318TIP3    H225150   6.616   6.895   1.675 -1.3686 -0.6404  1.1336
  319TIP3   OH225151   0.615   7.493   9.243  0.3690  0.4230 -0.2966
  319TIP3    H125152   0.675   7.562   9.272  1.3356 -0.9227  0.9751
  319TIP3    H225153   0.627   7.490   9.148 -0.0618  2.3157 -0.4577
  320TIP3   OH225154   2.771   2.334   7.734 -0.6730 -0.4766 -0.4292
  320TIP3    H125155   2.709   2.395   7.693 -0.6785  0.1452  0.4557
  320TIP3    H225156   2.716   2.273   7.783 -0.6266 -0.5268 -0.4392
  321TIP3   OH225157   1.496   0.291   2.246 -0.1550 -0.4480 -0.1891
  321TIP3    H125158   1.500   0.384   2.269  0.7173 -0.4919 -0.1126
  321TIP3    H225159   1.406   0.265   2.265 -0.8108  0.7114 -1.5726
  322TIP3   OH225160   4.621   2.502   0.580  0.4176  0.1655  0.4575
  322TIP3    H125161   4.582   2.426   0.622 -1.0197 -0.5105 -1.9483
  322TIP3    H225162   4.564   2.521   0.506  2.7846  1.2716 -1.2056
  323TIP3   OH225163   5.565   7.512   0.540 -0.1768  0.1867  0.0703
  323TIP3    H125164   5.635   7.518   0.475 -0.6224 -0.7733 -0.5250
  323TIP3    H225165   5.496   7.569   0.507 -0.4877 -0.4640 -0.4282
  324TIP3   OH225166   5.696   5.999   9.211 -0.3150  0.4988 -0.2518
  324TIP3    H125167   5.625   5.962   9.264 -0.1064 -0.5302 -0.6693
  324TIP3    H225168   5.724   6.076   9.260  1.4834 -1.6598  2.5006
  325TIP3   OH225169   6.832   0.728   0.497 -0.4433  0.1987 -0.6240
  325TIP3    H125170   6.801   0.800   0.442 -0.8614  0.7599  0.3117
  325TIP3    H225171   6.779   0.734   0.577  0.4922 -0.2614  0.0582
  326TIP3   OH225172   0.091   0.268   9.475 -0.7612 -0.4832  0.2720
  326TIP3    H125173   0.056   0.357   9.478  1.0983  0.3421 -0.8411
  326TIP3    H225174   0.090   0.239   9.567  0.4229  1.4494  0.9573
  327TIP3   OH225175   4.436   6.755   7.138 -0.2099 -0.0652  0.2932
  327TIP3    H125176   4.381   6.820   7.181  0.8342  0.6978  0.5178
  327TIP3    H225177   4.512   6.805   7.107  0.1598 -1.0140 -0.3859
  328TIP3   OH225178   5.794   2.323   9.745 -0.1358 -0.9919 -0.6790
  328TIP3    H125179   5.717   2.278   9.781 -0.4079 -0.0848 -0.1119
  328TIP3    H225180   5.780   2.321   9.650 -1.7989  0.7495 -0.5346
  329TIP3   OH225181   1.692   6.166   8.794 -0.3372  0.0953 -0.4195
  329TIP3    H125182   1.714   6.211   8.876 -0.7316 -1.7718  0.7719
  329TIP3    H225183   1.762   6.190   8.734  1.5631 -0.7158  1.3517
  330TIP3   OH225184   1.311   2.279   7.889 -0.2413  0.4095 -0.3642
  330TIP3    H125185   1.300   2.369   7.918  0.5491  0.8974 -1.5249
  330TIP3    H225186   1.393   2.250   7.929 -0.2743  0.3481 -0.3408
  331TIP3   OH225187   0.200   5.511   0.768  0.1589  0.3569  0.2997
  331TIP3    H125188   0.271   5.511   0.832  0.1515 -0.2946  0.3094
  331TIP3    H225189   0.120   5.510   0.820  0.1426  0.5989  0.2827
  332TIP3   OH225190   2.689   3.256   6.846  0.8534  0.2105  0.5570
  332TIP3    H125191   2.712   3.334   6.795 -0.5088 -0.1028 -0.5965
  332TIP3    H225192   2.719   3.182   6.793  0.7906 -0.0858  0.9295
  333TIP3   OH225193   1.764   1.042   2.375 -0.0016  1.0674  0.1717
  333TIP3    H125194   1.857   1.062   2.368 -0.0734  0.7989 -1.9572
  333TIP3    H225195   1.761   0.948   2.396  0.1991  1.1437  0.5522
  334TIP3   OH225196   3.884   0.305   0.847  0.6253  0.2219 -0.3150
  334TIP3    H125197   3.798   0.263   0.844  0.7858 -0.0505 -2.1909
  334TIP3    H225198   3.940   0.241   0.892  0.2042 -0.2737 -0.4814
  335TIP3   OH225199   1.359   7.308   9.102  0.0901 -0.0322  0.2398
  335TIP3    H125200   1.404   7.379   9.147  1.8860  0.2849 -1.8583
  335TIP3    H225201   1.339   7.245   9.170  2.9477  0.2677  1.5007
  336TIP3   OH225202   7.210   6.766   9.779 -0.3922  0.0947 -0.5384
  336TIP3    H125203   7.172   6.830   9.719  0.0967  0.7900 -0.1303
  336TIP3    H225204   7.299   6.752   9.746 -0.3851 -0.1144 -0.4319
  337TIP3   OH225205   0.826   0.743   0.294  0.5486 -0.3292 -0.2844
  337TIP3    H125206   0.897   0.704   0.346  0.5221  0.5111  0.4052
  337TIP3    H225207   0.832   0.837   0.312 -0.6968 -0.2360 -0.2881
  338TIP3   OH225208   1.581   2.486   1.429 -0.5655  0.2678 -0.3395
  338TIP3    H125209   1.511   2.499   1.493  0.0312  1.7662  0.0380
  338TIP3    H225210   1.611   2.397   1.445 -0.4554  0.5880  1.4582
  339TIP3   OH225211   7.221   1.433   1.371  0.6401  0.5185  0.0665
  339TIP3    H125212   7.153   1.480   1.419  0.7299 -0.4329  1.1624
  339TIP3    H225213   7.173   1.372   1.315  0.5810 -0.2668  0.9591
  340TIP3   OH225214   5.534   1.102   0.536 -0.3446  0.2666 -0.1233
  340TIP3    H125215   5.549   1.195   0.552  2.8804 -0.3073  0.9164
  340TIP3    H225216   5.515   1.066   0.623  2.3818 -0.5512  0.2367
  341TIP3   OH225217   7.290   3.030   8.426 -0.0588  0.5182 -0.0629
  341TIP3    H125218   7.355   3.070   8.485  0.9694  2.7375 -2.5032
  341TIP3    H225219   7.207   3.038   8.472  0.9388  0.4425  1.8410
  342TIP3   OH225220   5.754   0.143   8.092 -0.3511 -0.3768 -0.3972
  342TIP3    H125221   5.667   0.107   8.106 -0.3010 -0.2584  0.2476
  342TIP3    H225222   5.810   0.093   8.151 -0.3235  0.9419  0.7506
  343TIP3   OH225223   6.947   2.115   1.733 -0.2972  0.1216  0.4127
  343TIP3    H125224   6.902   2.095   1.651 -0.0904 -0.1289  0.3576
  343TIP3    H225225   6.886   2.088   1.801 -0.4069  0.1849  0.3390
  344TIP3   OH225226   1.325   4.017   7.414  0.3417 -0.3697 -0.3111
  344TIP3    H125227   1.340   4.022   7.320 -0.6327  1.8155 -0.4031
  344TIP3    H225228   1.234   4.045   7.426  0.4674 -0.5227  1.2927
  345TIP3   OH225229   3.076   7.010   7.281 -0.0706 -0.1970  0.1650
  345TIP3    H125230   3.117   6.945   7.224 -0.9786 -0.9278  0.3034
  345TIP3    H225231   3.040   7.075   7.221 -0.1172 -0.4164 -0.0491
  346TIP3   OH225232   6.080   1.565   0.781  0.4995  0.3872  0.6623
  346TIP3    H125233   6.093   1.658   0.764 -1.9454  1.0269  1.8274
  346TIP3    H225234   6.102   1.555   0.874 -0.9604  0.2269  1.0171
  347TIP3   OH225235   3.184   5.111   8.994  1.1992  0.2922  0.2772
  347TIP3    H125236   3.150   5.198   9.014  1.8356  0.3640  1.0665
  347TIP3    H225237   3.138   5.053   9.054  2.0679  0.3258  0.9989
  348TIP3   OH225238   2.152   6.143   1.145 -0.0860 -0.7669 -0.1878
  348TIP3    H125239   2.205   6.120   1.222  0.6538  0.9259 -0.1434
  348TIP3    H225240   2.212   6.131   1.071 -0.3010 -0.8612 -0.3461
  349TIP3   OH225241   7.653   1.161   7.470 -0.5269 -0.6862  0.2107
  349TIP3    H125242   7.683   1.147   7.380  1.5946 -0.1297  0.7761
  349TIP3    H225243   7.641   1.256   7.476  0.1053 -0.6343  0.7197
  350TIP3   OH225244   6.069   2.262   9.044  1.1457 -0.1738 -0.3630
  350TIP3    H125245   6.003   2.208   9.001 -0.5642  1.1818  0.4738
  350TIP3    H225246   6.066   2.236   9.136  0.9351  0.6904 -0.1120
  351TIP3   OH225247   1.561   1.581   0.082 -0.0867  0.2497  0.2915
  351TIP3    H125248   1.586   1.556   0.171  2.4469 -0.4952 -0.5484
  351TIP3    H225249   1.576   1.675   0.078 -2.7064  0.7958  1.3360
  352TIP3   OH225250   4.232   3.264   9.489  0.2988 -0.2558  0.7784
  352TIP3    H125251   4.223   3.310   9.405 -0.6750 -0.4486  0.7674
  352TIP3    H225252   4.323   3.234   9.490  0.5066  0.3266  0.0899
  353TIP3   OH225253   4.082   0.102   1.983  0.3949 -0.1950 -0.1783
  353TIP3    H125254   4.005   0.100   1.927  1.4811  0.0478 -1.7525
  353TIP3    H225255   4.053   0.063   2.065 -1.3037 -0.4038 -0.8348
  354TIP3   OH225256   3.964   2.530   9.150 -0.2076  0.4074 -0.3241
  354TIP3    H125257   3.912   2.574   9.218 -0.9432  1.8072 -1.7149
  354TIP3    H225258   4.054   2.554   9.169 -0.2519 -0.2839  0.8788
  355TIP3   OH225259   3.938   1.637   1.915  0.2519  0.1562 -0.0677
  355TIP3    H125260   3.917   1.558   1.865  0.8549  0.6201 -1.0793
  355TIP3    H225261   3.925   1.709   1.853  0.4284  0.7979  0.6261
  356TIP3   OH225262   0.638   4.580   1.069  0.3223 -0.5105  0.2487
  356TIP3    H125263   0.553   4.622   1.078 -0.6404 -2.6936  2.6194
  356TIP3    H225264   0.619   4.497   1.025  1.3922 -0.5820 -0.1114
  357TIP3   OH225265   6.494   1.273   7.785 -0.5226  0.4581  0.3070
  357TIP3    H125266   6.524   1.362   7.765  1.2543 -0.1426  0.0955
  357TIP3    H225267   6.440   1.249   7.710 -1.7728  1.6515  0.7818
  358TIP3   OH225268   1.360   0.652   8.608  0.5414  0.7552 -0.0300
  358TIP3    H125269   1.444   0.683   8.641  1.9615 -3.4707  1.0461
  358TIP3    H225270   1.365   0.663   8.513  1.7673  1.6759  0.1255
  359TIP3   OH225271   2.465   0.782   9.044  0.3793 -0.2414  0.1268
  359TIP3    H125272   2.547   0.762   8.999 -0.4423 -2.0016 -0.6807
  359TIP3    H225273   2.436   0.698   9.079 -0.8135  0.4526  0.8680
  360TIP3   OH225274   6.724   0.978   0.085 -0.0362 -0.0057 -0.6816
  360TIP3    H125275   6.640   1.004   0.046 -0.5797 -1.2087 -0.3511
  360TIP3    H225276   6.788   1.033   0.041 -0.9168  0.4359 -1.4583
  361TIP3   OH225277   5.239   1.778   7.801  0.2515 -0.1617  0.4435
  361TIP3    H125278   5.304   1.804   7.866 -0.3168  0.3746  0.8103
  361TIP3    H225279   5.282   1.709   7.750  0.5487 -0.9126  1.6793
  362TIP3   OH225280   0.892   0.241   9.990 -0.6570 -1.0951  0.0630
  362TIP3    H125281   0.970   0.260  10.043 -1.1954 -3.0304  1.6785
  362TIP3    H225282   0.925   0.234   9.901  0.9454 -1.3378  0.6396
  363TIP3   OH225283   2.389   2.026   2.193  0.1865  0.0580  0.1144
  363TIP3    H125284   2.337   2.089   2.143 -0.3846 -0.4723  0.0194
  363TIP3    H225285   2.345   2.021   2.278  0.3851 -0.0157  0.2133
  364TIP3   OH225286   3.936   7.526   2.659 -0.1508  0.1143 -0.6271
  364TIP3    H125287   3.864   7.550   2.601  0.0431  0.7415 -0.6198
  364TIP3    H225288   3.955   7.435   2.638  0.0818  0.4067 -1.7267
  365TIP3   OH225289   3.013   4.974   7.790 -0.6624  0.5286  0.1666
  365TIP3    H125290   3.054   5.061   7.788 -0.4774  0.5116  1.7476
  365TIP3    H225291   3.085   4.913   7.771 -0.8476  0.7042 -1.2241
  366TIP3   OH225292   5.716   4.895   8.622  0.2194 -0.4380 -0.0571
  366TIP3    H125293   5.623   4.882   8.608 -0.2353  2.7560 -0.9189
  366TIP3    H225294   5.753   4.900   8.534  0.6839  0.9377  0.1857
  367TIP3   OH225295   1.405   0.146   9.319 -0.1314 -0.0031  0.6700
  367TIP3    H125296   1.422   0.175   9.229  0.5873 -0.4029  0.6674
  367TIP3    H225297   1.361   0.220   9.361 -0.0304  0.3657  0.1305
  368TIP3   OH225298   1.687   4.964   1.157  0.4248  0.2193  0.1982
  368TIP3    H125299   1.780   4.940   1.159  0.4170  0.2288  0.9896
  368TIP3    H225300   1.644   4.897   1.210  0.3568  1.7246  2.1374
  369TIP3   OH225301   0.901   2.021   0.053  0.4868 -0.2251 -0.0209
  369TIP3    H125302   0.915   2.025   0.148 -0.1326 -0.0269  0.0710
  369TIP3    H225303   0.965   2.083   0.017  0.9417 -0.5385  0.2374
  370TIP3   OH225304   6.391   0.984   8.711 -0.0342 -0.5153  0.1792
  370TIP3    H125305   6.330   0.985   8.638 -2.1757 -1.8828  1.8225
  370TIP3    H225306   6.356   1.048   8.773  0.5032 -0.8975  0.9054
  371TIP3   OH225307   3.830   3.110   8.290 -0.0988  0.0759  0.2055
  371TIP3    H125308   3.781   3.071   8.218  1.1642  0.0352 -0.6523
  371TIP3    H225309   3.864   3.192   8.255  2.1532 -0.8475  0.0663
  372TIP3   OH225310   0.709   4.249   1.223 -0.6147  0.1023 -0.8882
  372TIP3    H125311   0.702   4.300   1.304  0.4017 -1.5075  0.2935
  372TIP3    H225312   0.801   4.256   1.198 -0.2212 -1.8128 -0.1699
  373TIP3   OH225313   6.393   2.206   9.257  0.2308 -0.0934  0.7091
  373TIP3    H125314   6.453   2.225   9.185  1.5287 -1.0393  1.4926
  373TIP3    H225315   6.334   2.282   9.260 -1.5019 -1.0775 -2.8893
  374TIP3   OH225316   2.626   4.913   0.737 -1.1330 -0.5339 -0.9536
  374TIP3    H125317   2.676   4.972   0.681  1.0448 -0.6050  0.7787
  374TIP3    H225318   2.661   4.826   0.719  0.1774 -0.4673  0.9782
  375TIP3   OH225319   3.052   3.065   0.332 -0.1909 -0.0837  0.1243
  375TIP3    H125320   3.080   2.979   0.362  1.0828 -0.4679 -1.9922
  375TIP3    H225321   3.063   3.122   0.409  0.2162 -1.5257  1.1696
  376TIP3   OH225322   6.843   4.888   9.322  0.4812  0.0799 -0.1074
  376TIP3    H125323   6.884   4.807   9.290 -1.8599 -0.6521 -1.5157
  376TIP3    H225324   6.892   4.958   9.280  1.0625 -0.7015 -0.7666
  377TIP3   OH225325   0.573   0.467   3.197 -0.1865  0.1856  0.1889
  377TIP3    H125326   0.570   0.386   3.147  0.1170 -0.0856  0.5983
  377TIP3    H225327   0.644   0.453   3.260 -0.7950  0.3824  0.9270
  378TIP3   OH225328   3.165   1.371   8.355 -0.4359 -0.2962 -0.5106
  378TIP3    H125329   3.122   1.450   8.386 -0.7245 -0.9827  0.9433
  378TIP3    H225330   3.105   1.335   8.289 -0.6063  0.3440 -0.7117
  379TIP3   OH225331   4.540   5.933   7.167 -0.0607  0.3631  0.1328
  379TIP3    H125332   4.467   5.986   7.134 -1.8847 -1.8969  0.2567
  379TIP3    H225333   4.504   5.845   7.173  2.3214 -0.5997  1.5275
  380TIP3   OH225334   4.839   3.993   1.007  0.1892 -0.6968 -0.3665
  380TIP3    H125335   4.934   4.001   1.009  0.3412 -2.0617 -0.7347
  380TIP3    H225336   4.823   3.900   0.987 -1.2148 -0.6561  0.3954
  381TIP3   OH225337   5.619   0.776   9.800 -0.1533 -0.3013 -0.5649
  381TIP3    H125338   5.623   0.794   9.894 -0.6188  0.1040 -0.6245
  381TIP3    H225339   5.708   0.749   9.778 -0.0516 -0.4487  0.0008
  382TIP3   OH225340   7.107   6.253   9.115  0.7592 -0.3113  0.2072
  382TIP3    H125341   7.015   6.262   9.091  0.8785  2.5410  0.3903
  382TIP3    H225342   7.154   6.264   9.033  0.9542 -0.1229  0.3426
  383TIP3   OH225343   4.290   3.099   7.315 -0.1461 -0.6653 -0.1644
  383TIP3    H125344   4.271   3.032   7.249  1.4638 -1.4039  0.0949
  383TIP3    H225345   4.333   3.169   7.267 -1.3875  0.0087 -0.3450
  384TIP3   OH225346   2.735   7.602   9.153 -0.4784 -0.2568  0.0600
  384TIP3    H125347   2.704   7.615   9.243 -1.7170  1.7832 -0.6191
  384TIP3    H225348   2.663   7.558   9.109 -1.0016  1.2182 -0.6015
  385TIP3   OH225349   6.100   2.828   9.696 -0.1880  0.2438 -0.1825
  385TIP3    H125350   6.145   2.878   9.627  2.1187 -0.4859  0.7084
  385TIP3    H225351   6.168   2.810   9.761 -1.6112 -1.6503  0.8748
  386TIP3   OH225352   2.525   1.992   2.602  0.1933 -0.1540 -0.0676
  386TIP3    H125353   2.532   1.916   2.659 -0.6669 -0.2308 -0.0533
  386TIP3    H225354   2.593   2.052   2.634  2.2436 -1.6764 -1.3249
  387TIP3   OH225355   2.193   4.796   9.073 -0.1927  0.0807  0.2717
  387TIP3    H125356   2.215   4.798   8.980  0.1750  0.8651  0.3631
  387TIP3    H225357   2.115   4.852   9.080 -0.0473  0.2585  0.4751
  388TIP3   OH225358   5.794   3.165   9.339 -0.0664 -0.3511  0.5059
  388TIP3    H125359   5.881   3.201   9.319 -0.3321  0.1502  0.2534
  388TIP3    H225360   5.752   3.154   9.254 -0.3672 -0.3079  0.6478
  389TIP3   OH225361   4.307   3.450   0.961 -0.0407 -0.0191 -0.7500
  389TIP3    H125362   4.365   3.375   0.947 -0.1162 -0.2808  0.2503
  389TIP3    H225363   4.218   3.413   0.954 -0.0858  0.2228 -1.4819
  390TIP3   OH225364   0.520   1.497   1.940  0.1839  0.0649  0.3393
  390TIP3    H125365   0.514   1.548   1.859  0.1819 -1.2064 -0.4884
  390TIP3    H225366   0.475   1.415   1.920  2.8159 -1.5515  0.5712
  391TIP3   OH225367   4.892   4.682   8.526  0.2841  0.0248 -0.4188
  391TIP3    H125368   4.834   4.629   8.472  1.1716 -1.8013  0.3424
  391TIP3    H225369   4.977   4.677   8.482 -0.1441  3.3159 -1.9653
  392TIP3   OH225370   3.524   0.670   1.715  0.2332 -0.3974 -0.7571
  392TIP3    H125371   3.458   0.628   1.659 -2.3066  1.4488  0.6431
  392TIP3    H225372   3.515   0.626   1.800  1.2998 -0.5647 -0.7189
  393TIP3   OH225373   7.384   2.245   9.031  0.1063  0.1292 -0.7716
  393TIP3    H125374   7.425   2.183   9.091 -1.7802 -1.6229 -1.1493
  393TIP3    H225375   7.452   2.267   8.968  1.8440  1.2611  1.3729
  394TIP3   OH225376   0.536   2.930   9.852 -0.5585 -0.1416  0.0845
  394TIP3    H125377   0.573   2.898   9.934  1.1213  2.6797  0.5563
  394TIP3    H225378   0.464   2.987   9.878 -1.1822 -0.6186 -0.5346
  395TIP3   OH225379   2.796   6.493   7.705 -0.2557 -0.2582  0.0515
  395TIP3    H125380   2.738   6.482   7.630 -0.6809 -0.2321  0.3767
  395TIP3    H225381   2.791   6.586   7.726  3.1769  0.7404 -2.5674
  396TIP3   OH225382   3.670   1.524   8.057 -0.2570  0.1837 -0.0325
  396TIP3    H125383   3.709   1.439   8.075 -0.5759 -0.1431 -0.8216
  396TIP3    H225384   3.670   1.531   7.961 -0.1023  1.1324  0.0271
  397TIP3   OH225385   2.947   0.296   1.271  0.4782 -0.0062  0.2845
  397TIP3    H125386   2.999   0.248   1.335  0.7078 -0.6018 -0.3376
  397TIP3    H225387   2.979   0.386   1.276 -0.4446  0.2689  1.9672
  398TIP3   OH225388   5.125   5.252   2.688 -0.5324 -0.3263 -0.0592
  398TIP3    H125389   5.144   5.258   2.594 -1.5019 -0.7402 -0.2871
  398TIP3    H225390   5.206   5.218   2.726  0.2396  0.8345 -0.5898
  399TIP3   OH225391   2.232   7.048   9.190  0.2207  0.3113  0.6216
  399TIP3    H125392   2.145   7.086   9.204  0.1126  0.5433 -0.5907
  399TIP3    H225393   2.262   7.025   9.278 -1.2352 -0.1469  1.0376
  400TIP3   OH225394   4.184   4.344   0.309 -0.2230  0.5010  0.0667
  400TIP3    H125395   4.093   4.370   0.295 -1.0123 -2.0674  0.0238
  400TIP3    H225396   4.194   4.262   0.261  2.4790  1.2659 -0.8814
  401TIP3   OH225397   2.275   6.159   0.903 -0.0228 -0.1316  0.0764
  401TIP3    H125398   2.343   6.183   0.839 -0.5200  1.7235  0.1717
  401TIP3    H225399   2.197   6.141   0.850  0.2601 -1.2579  0.0261
  402TIP3   OH225400   5.562   6.672   0.921  0.2476 -0.1624 -0.1942
  402TIP3    H125401   5.580   6.620   0.999 -1.0262 -0.8467 -0.3420
  402TIP3    H225402   5.553   6.608   0.851 -0.2876  0.3303 -0.5821
  403TIP3   OH225403   6.635   5.230   1.090  0.5467  0.3608  0.5976
  403TIP3    H125404   6.666   5.239   1.181  1.9100 -0.3293  0.2215
  403TIP3    H225405   6.704   5.271   1.038  0.8924 -1.2482 -0.2688
  404TIP3   OH225406   3.002   1.110   7.961 -0.3848  0.2009 -0.4183
  404TIP3    H125407   3.061   1.034   7.956 -0.8542 -0.2127  0.1920
  404TIP3    H225408   2.938   1.094   7.892 -0.5083  0.0174 -0.2630
  405TIP3   OH225409   5.496   4.186   7.684 -0.1729 -0.4725 -0.6569
  405TIP3    H125410   5.519   4.126   7.613 -1.0041 -2.1423  0.4034
  405TIP3    H225411   5.563   4.169   7.751 -0.6140 -0.4594 -0.2120
  406TIP3   OH225412   3.178   6.348   7.067  0.1023 -0.0452  0.1703
  406TIP3    H125413   3.249   6.413   7.074  0.8641 -0.8597  0.2459
  406TIP3    H225414   3.104   6.389   7.111  1.0323  0.1640  1.6273
  407TIP3   OH225415   7.108   4.894   0.746  0.0555  0.3704  0.4273
  407TIP3    H125416   7.052   4.956   0.793  0.3361  1.1077 -0.1867
  407TIP3    H225417   7.099   4.812   0.795 -0.7773  0.7352  0.9132
  408TIP3   OH225418   1.332   2.056   8.732 -0.3774  0.2868 -0.2568
  408TIP3    H125419   1.415   2.035   8.775 -0.2717  1.6695  0.2587
  408TIP3    H225420   1.336   2.009   8.648  0.7631  0.0397 -0.0807
  409TIP3   OH225421   7.449   1.939   0.140 -0.1626 -0.3888  0.8277
  409TIP3    H125422   7.412   1.989   0.212 -1.1114 -1.4473  1.0797
  409TIP3    H225423   7.419   1.850   0.153  0.0670 -0.7019 -0.5986
  410TIP3   OH225424   6.360   6.636   9.923  0.6085  0.4749 -0.2257
  410TIP3    H125425   6.339   6.566   9.861  1.4259  0.0743 -0.0703
  410TIP3    H225426   6.290   6.632   9.988  0.6792 -0.2586 -0.1788
  411TIP3   OH225427   2.208   1.576   3.228 -0.1253  0.3048  0.0833
  411TIP3    H125428   2.164   1.517   3.289 -1.0413  0.6522 -0.2368
  411TIP3    H225429   2.243   1.646   3.284 -0.0728  0.0921  0.3203
  412TIP3   OH225430   2.448   2.132   9.412 -0.0786  0.0785  0.6613
  412TIP3    H125431   2.484   2.200   9.355 -1.3710  1.7065  1.7011
  412TIP3    H225432   2.485   2.150   9.498  0.9039 -1.6290  0.6496
  413TIP3   OH225433   7.596   3.657   7.617  0.4841  0.0240 -0.2300
  413TIP3    H125434   7.555   3.671   7.532  0.0699  0.0990 -0.0219
  413TIP3    H225435   7.530   3.610   7.668  0.2094  1.1256  0.4702
  414TIP3   OH225436   3.667   4.071   8.183  0.0949  0.1611 -0.5882
  414TIP3    H125437   3.732   4.073   8.253 -1.0552 -1.4548  0.6071
  414TIP3    H225438   3.616   4.151   8.196 -0.2240 -0.2036  0.5812
  415TIP3   OH225439   4.083   1.846   7.534  0.2868  0.0430  0.1596
  415TIP3    H125440   4.021   1.775   7.516  1.2306 -2.0242  4.0401
  415TIP3    H225441   4.166   1.815   7.498  0.3262 -0.0086  0.2941
  416TIP3   OH225442   2.729   3.011   0.997  0.3881  0.5897  0.0902
  416TIP3    H125443   2.656   2.949   0.992  0.8843 -0.0138  0.2027
  416TIP3    H225444   2.690   3.096   0.975 -0.4562  0.3685  0.6812
  417TIP3   OH225445   6.060   5.224   9.683 -0.1675 -0.5537  0.0704
  417TIP3    H125446   6.010   5.257   9.608  0.2131 -0.6233 -0.2196
  417TIP3    H225447   6.140   5.277   9.684 -0.8638  0.5243  1.3920
  418TIP3   OH225448   5.716   2.422   1.407 -0.3869 -0.1195 -0.1513
  418TIP3    H125449   5.796   2.375   1.432 -1.2403 -1.0487  0.9754
  418TIP3    H225450   5.676   2.367   1.340 -1.3301 -0.9824  1.0873
  419TIP3   OH225451   3.878   4.407   2.018  0.0621 -0.2837 -0.3950
  419TIP3    H125452   3.785   4.386   2.013 -0.2183  0.2467  1.7268
  419TIP3    H225453   3.884   4.496   1.985 -0.0634 -0.5750 -1.2188
  420TIP3   OH225454   0.722   6.062   9.654 -0.6677  0.2976 -0.0905
  420TIP3    H125455   0.806   6.034   9.689  0.2483  2.0200 -0.7976
  420TIP3    H225456   0.679   6.107   9.727 -0.8499 -0.2926  0.1735
  421TIP3   OH225457   0.076   0.195   0.657 -0.0173 -0.1359 -0.2514
  421TIP3    H125458   0.038   0.275   0.694 -0.1806  0.0899 -0.8955
  421TIP3    H225459   0.124   0.156   0.730  0.4318  0.7792 -0.0378
  422TIP3   OH225460   2.324   3.370   8.131  0.1437  0.0735 -0.1311
  422TIP3    H125461   2.383   3.440   8.104 -0.7767  1.6361  1.5908
  422TIP3    H225462   2.380   3.294   8.144  1.3811  0.8369 -0.8648
  423TIP3   OH225463   0.098   6.555   7.876  0.2443 -0.4983 -0.2007
  423TIP3    H125464   0.112   6.464   7.904  1.5216 -0.0023  0.8714
  423TIP3    H225465   0.041   6.592   7.943 -1.5635 -0.8831 -1.4474
  424TIP3   OH225466   7.028   6.503   8.372  0.9219  0.0463  0.0192
  424TIP3    H125467   6.996   6.460   8.451 -0.5582  1.2755  0.1550
  424TIP3    H225468   6.950   6.544   8.334  2.2405  3.1005  0.2557
  425TIP3   OH225469   5.270   3.026   7.373 -0.1259 -0.7835  0.2753
  425TIP3    H125470   5.194   3.013   7.316 -0.8009  0.2175  0.9141
  425TIP3    H225471   5.264   3.117   7.401  0.5593 -1.0624  1.4145
  426TIP3   OH225472   4.476   1.028   9.317 -0.0523  0.3615  0.8103
  426TIP3    H125473   4.407   1.005   9.380 -1.0998  0.1439 -0.3840
  426TIP3    H225474   4.488   0.948   9.265  1.3961  0.2682  1.2433
  427TIP3   OH225475   2.715   5.078   9.242  0.0447 -0.3029  0.3419
  427TIP3    H125476   2.630   5.120   9.253  0.4415  0.9595 -1.1499
  427TIP3    H225477   2.713   5.005   9.304 -0.6586  1.8752  3.1172
  428TIP3   OH225478   6.077   5.297   8.145 -0.3132 -0.1500 -0.2123
  428TIP3    H125479   6.094   5.246   8.224  1.0493 -2.1594 -1.6870
  428TIP3    H225480   6.052   5.232   8.080  0.1922  1.2316 -1.8456
  429TIP3   OH225481   2.462   7.256   0.744 -0.0695 -0.4832 -0.0010
  429TIP3    H125482   2.373   7.262   0.777  0.4630 -1.9523  1.8832
  429TIP3    H225483   2.516   7.299   0.810  0.7378 -0.6726 -0.5157
  430TIP3   OH225484   1.333   5.630   7.069 -0.6389  0.0204 -0.2564
  430TIP3    H125485   1.248   5.586   7.070 -0.6327 -0.0180  0.9972
  430TIP3    H225486   1.338   5.672   6.984 -1.8621 -0.0904 -0.3978
  431TIP3   OH225487   3.769   2.863   0.098 -0.0648 -0.1809 -0.0652
  431TIP3    H125488   3.851   2.863   0.050 -0.5632 -0.7161 -0.9461
  431TIP3    H225489   3.785   2.807   0.174  0.8320  0.9443  0.5983
  432TIP3   OH225490   6.898   6.254   0.263 -0.7620 -0.1160  0.6909
  432TIP3    H125491   6.973   6.202   0.292 -0.9090 -1.0406 -0.5061
  432TIP3    H225492   6.822   6.198   0.280 -0.8604 -0.6676 -1.3092
  433TIP3   OH225493   5.417   4.860   0.409  0.0418 -0.2776  0.3760
  433TIP3    H125494   5.384   4.787   0.461 -0.5785 -1.0204 -1.0066
  433TIP3    H225495   5.448   4.820   0.328 -1.0616  1.0610 -0.7636
  434TIP3   OH225496   5.075   6.591   8.511  0.5399 -0.0785  0.0007
  434TIP3    H125497   5.093   6.564   8.422  0.1318  0.8750 -0.3845
  434TIP3    H225498   5.161   6.616   8.546  0.6906 -0.3932 -0.1373
  435TIP3   OH225499   4.401   4.575   9.478 -0.2671  0.3045 -0.1241
  435TIP3    H125500   4.424   4.540   9.392 -0.7493 -0.3207 -0.0014
  435TIP3    H225501   4.320   4.624   9.464 -0.7939 -0.4716  0.1129
  436TIP3   OH225502   5.123   2.278   0.138 -0.4024  0.1368 -0.2675
  436TIP3    H125503   5.038   2.302   0.175 -1.1032 -2.9142  0.4272
  436TIP3    H225504   5.187   2.322   0.194 -1.5163 -0.7933  1.8468
  437TIP3   OH225505   5.513   3.132   9.378  0.5392  0.1806  0.4729
  437TIP3    H125506   5.598   3.115   9.418  0.5146 -1.0671  0.0469
  437TIP3    H225507   5.526   3.115   9.285 -0.2056 -0.2086  0.4270
  438TIP3   OH225508   2.847   0.302   1.847 -0.2171 -0.0674  0.5255
  438TIP3    H125509   2.765   0.254   1.854  0.0038 -0.4120  0.7800
  438TIP3    H225510   2.848   0.334   1.756  0.0063 -1.2326  0.0964
  439TIP3   OH225511   1.964   7.574   8.797  0.2752 -0.1705 -0.5173
  439TIP3    H125512   1.976   7.525   8.716 -0.4863  0.3553 -0.9628
  439TIP3    H225513   1.873   7.555   8.822  0.0978  0.6981 -0.4879
  440TIP3   OH225514   2.062   0.654   0.145 -0.0767 -0.7716 -0.0878
  440TIP3    H125515   2.116   0.730   0.168 -0.9001 -0.4248  0.7466
  440TIP3    H225516   1.986   0.660   0.202 -0.7615 -1.5409 -0.8874
  441TIP3   OH225517   5.338   6.215   0.520  0.1890 -0.0122  0.4633
  441TIP3    H125518   5.364   6.140   0.466  1.0492 -1.0936  2.2610
  441TIP3    H225519   5.411   6.276   0.515 -0.2228  0.4198 -0.4672
  442TIP3   OH225520   2.408   7.031   6.598 -0.1160  0.0296 -0.0884
  442TIP3    H125521   2.446   7.085   6.668  0.8736 -0.6133 -0.1143
  442TIP3    H225522   2.422   6.941   6.627 -0.9536 -0.2339 -0.4723
  443TIP3   OH225523   0.875   2.012   0.688 -0.0266 -0.3217  0.0084
  443TIP3    H125524   0.849   1.920   0.691 -0.7635 -0.1752 -1.1136
  443TIP3    H225525   0.819   2.050   0.621  0.3038  0.9432  0.4250
  444TIP3   OH225526   4.802   6.448   1.558 -0.0841 -0.0143  0.4671
  444TIP3    H125527   4.879   6.458   1.503  0.6483 -0.3109  1.4072
  444TIP3    H225528   4.740   6.399   1.505  0.4904 -0.0365 -0.1887
  445TIP3   OH225529   5.773   5.494   1.627 -0.3065 -0.1548 -0.2578
  445TIP3    H125530   5.775   5.417   1.570 -0.1545  0.7653 -1.5331
  445TIP3    H225531   5.757   5.459   1.715  1.8957 -1.8449 -0.4483
  446TIP3   OH225532   3.978   3.365   0.190 -0.0058  0.4760  0.6956
  446TIP3    H125533   3.917   3.342   0.120  0.5473 -0.4431  0.4871
  446TIP3    H225534   4.001   3.281   0.230  0.7543  0.8477  1.0696
  447TIP3   OH225535   5.954   1.502   7.959  0.2286 -0.0560  0.0390
  447TIP3    H125536   5.877   1.559   7.960 -0.2267 -0.6640  1.7544
  447TIP3    H225537   6.016   1.547   7.901 -1.6508  0.0898 -1.9744
  448TIP3   OH225538   2.933   1.503   3.162 -0.2977  0.3376  0.2861
  448TIP3    H125539   2.872   1.431   3.178 -0.9082  0.4328 -1.4747
  448TIP3    H225540   2.927   1.521   3.069 -0.7805  3.2366  0.7743
  449TIP3   OH225541   4.663   3.976   8.772 -0.3457  0.1501 -0.9066
  449TIP3    H125542   4.652   3.884   8.746  0.3023  0.7558 -3.5883
  449TIP3    H225543   4.605   4.025   8.714  1.2032  1.6440 -1.2609
  450TIP3   OH225544   2.851   4.316   9.629 -0.8770 -0.4139 -0.0213
  450TIP3    H125545   2.909   4.370   9.576  1.6462 -1.2603  1.6943
  450TIP3    H225546   2.827   4.371   9.703 -1.1459 -0.5055 -0.0393
  451TIP3   OH225547   1.812   0.807   2.514 -0.4962  0.1994  0.6000
  451TIP3    H125548   1.818   0.722   2.472  1.8401  1.7869 -2.7120
  451TIP3    H225549   1.899   0.823   2.550 -0.8225  1.2806  0.9687
  452TIP3   OH225550   1.671   6.436   0.558 -0.1093 -0.5053 -0.4585
  452TIP3    H125551   1.692   6.358   0.610  1.9758 -1.5154 -2.6234
  452TIP3    H225552   1.575   6.440   0.560 -0.2830 -2.9149  0.0588
  453TIP3   OH225553   4.446   6.718   8.304  0.4345 -0.4762  0.1965
  453TIP3    H125554   4.500   6.681   8.234 -0.6582  0.2509 -1.0996
  453TIP3    H225555   4.362   6.673   8.295 -0.3065  0.9056 -0.1970
  454TIP3   OH225556   5.071   1.718   2.118  0.0917  0.0806  0.4648
  454TIP3    H125557   4.994   1.671   2.148 -0.5068  0.1583 -0.8927
  454TIP3    H225558   5.145   1.669   2.153 -0.5661 -0.1617  1.5283
  455TIP3   OH225559   5.993   0.375   0.376  0.8927  0.0806  0.1354
  455TIP3    H125560   6.026   0.293   0.340  0.0650  0.2171 -0.9528
  455TIP3    H225561   5.927   0.404   0.314  0.4058  1.0251  1.0695
  456TIP3   OH225562   5.784   4.845   1.748 -0.1151  0.1937  0.1462
  456TIP3    H125563   5.707   4.896   1.773  0.0584  0.9728 -0.8409
  456TIP3    H225564   5.844   4.910   1.711  0.5518 -0.5810 -0.1459
  457TIP3   OH225565   3.647   7.061   8.668  0.6600  0.0192  0.2504
  457TIP3    H125566   3.616   7.128   8.729 -0.2862  1.7437 -1.9906
  457TIP3    H225567   3.567   7.029   8.625  1.4348  0.4020 -1.5607
  458TIP3   OH225568   3.680   4.818   2.630 -0.1532 -0.3619 -0.1324
  458TIP3    H125569   3.717   4.738   2.595 -1.6188 -1.3290  0.4246
  458TIP3    H225570   3.614   4.845   2.566  0.7282  0.7472 -0.6051
  459TIP3   OH225571   4.182   4.616   0.283  0.0301  0.1139  0.4188
  459TIP3    H125572   4.239   4.648   0.353  0.2789  2.0991 -0.6309
  459TIP3    H225573   4.193   4.521   0.285  1.5817  0.2779  1.7377
  460TIP3   OH225574   3.680   5.402   7.985 -0.1234  0.0686 -0.2510
  460TIP3    H125575   3.677   5.407   7.889 -0.7842 -1.7808 -0.3659
  460TIP3    H225576   3.596   5.365   8.010  0.6627 -1.0198  0.9076
  461TIP3   OH225577   2.099   3.916   9.325  0.2605  0.1570 -0.7379
  461TIP3    H125578   2.083   3.907   9.231 -0.5003 -0.0876 -0.5867
  461TIP3    H225579   2.145   4.000   9.333 -0.1281  0.4260 -1.2734
  462TIP3   OH225580   0.058   2.320   9.968 -0.3615 -0.0198  0.1365
  462TIP3    H125581   0.053   2.415   9.960  3.9268  0.2565 -2.6888
  462TIP3    H225582   0.037   2.287   9.880  2.2981 -1.2031 -0.1616
  463TIP3   OH225583   7.288   3.883   9.123  0.1997 -0.2779 -0.2762
  463TIP3    H125584   7.254   3.806   9.169  1.1394  0.1227  1.1389
  463TIP3    H225585   7.218   3.947   9.129  0.1434 -0.3829  0.2147
  464TIP3   OH225586   4.742   1.641   8.849  0.0008 -0.2683  0.3627
  464TIP3    H125587   4.680   1.592   8.903 -1.0654 -0.3804 -0.9059
  464TIP3    H225588   4.828   1.611   8.878 -0.5211 -0.2638  2.0306
  465TIP3   OH225589   2.467   4.902   1.013  0.1746 -0.2224  0.3466
  465TIP3    H125590   2.472   4.924   0.920  1.1148 -1.0332  0.1983
  465TIP3    H225591   2.373   4.898   1.031 -0.0771 -2.2803 -1.1272
  466TIP3   OH225592   4.075   7.084   9.507  1.0588  0.1131  0.3583
  466TIP3    H125593   4.039   6.998   9.483  1.0615 -0.4148  2.0578
  466TIP3    H225594   4.128   7.067   9.585 -1.4909  2.0497  2.7563
  467TIP3   OH225595   2.222   4.177   9.370 -0.7666 -0.3235 -0.7609
  467TIP3    H125596   2.145   4.229   9.392 -0.8806  0.0752 -2.0226
  467TIP3    H225597   2.274   4.234   9.313 -0.6570 -1.3998 -1.7677
  468TIP3   OH225598   3.278   6.974   8.349  0.3233 -0.2657  0.8814
  468TIP3    H125599   3.329   7.045   8.310  0.0153  0.1719  1.2593
  468TIP3    H225600   3.342   6.909   8.376  0.4697 -1.7506 -2.5381
  469TIP3   OH225601   7.067   3.356   2.216  0.0274  0.3340  0.3758
  469TIP3    H125602   7.018   3.365   2.135  2.1532 -0.5898 -1.0983
  469TIP3    H225603   7.025   3.283   2.262  0.9452 -1.5757 -1.6493
  470TIP3   OH225604   4.778   4.252   1.292  0.4533 -0.3187  0.2849
  470TIP3    H125605   4.786   4.239   1.386 -1.4798  0.9826  0.6868
  470TIP3    H225606   4.719   4.183   1.263  0.5305 -0.3309  0.1572
  471TIP3   OH225607   3.576   3.597   2.332 -0.0738 -0.2320  0.5245
  471TIP3    H125608   3.671   3.592   2.340 -0.2057 -0.4390  2.1823
  471TIP3    H225609   3.547   3.506   2.330 -0.1547 -0.2113 -1.6641
  472TIP3   OH225610   6.327   5.143   2.497 -0.2179 -0.1690  0.1984
  472TIP3    H125611   6.258   5.179   2.552  0.2790 -0.1758  0.8433
  472TIP3    H225612   6.379   5.089   2.557 -1.0052 -2.0676 -0.7418
  473TIP3   OH225613   6.216   2.041   8.575 -0.0669  0.1859 -0.4862
  473TIP3    H125614   6.277   2.110   8.600  0.7401 -0.5671 -0.3199
  473TIP3    H225615   6.130   2.081   8.582  0.3213  0.8771  0.5840
  474TIP3   OH225616   3.781   0.494   1.569 -0.4322  0.1158 -0.4879
  474TIP3    H125617   3.852   0.513   1.507  0.1782 -2.2905 -0.6171
  474TIP3    H225618   3.743   0.580   1.588  1.7790  1.3671 -1.2854
  475TIP3   OH225619   6.383   5.469   1.332  0.4896  0.6963  0.0309
  475TIP3    H125620   6.397   5.464   1.426 -0.5471 -0.8482  0.1440
  475TIP3    H225621   6.470   5.463   1.294  0.9726  1.9692  0.8893
  476TIP3   OH225622   0.188   7.425   0.259 -0.2581 -0.0408  0.0638
  476TIP3    H125623   0.262   7.418   0.198  1.2659 -1.4342  1.9605
  476TIP3    H225624   0.215   7.375   0.335 -2.9433 -0.0467  1.1069
  477TIP3   OH225625   4.539   7.638   2.686  0.0113 -0.2689 -0.0460
  477TIP3    H125626   4.446   7.657   2.673  0.1365  0.0962 -0.4580
  477TIP3    H225627   4.542   7.582   2.763 -0.5654 -0.4332 -0.1378
  478TIP3   OH225628   1.233   3.220   9.540 -0.6285  0.4079 -0.2410
  478TIP3    H125629   1.210   3.247   9.629  0.8090 -2.4160  1.1297
  478TIP3    H225630   1.151   3.185   9.504 -0.5682 -1.4560  1.2756
  479TIP3   OH225631   6.245   2.682   1.635  0.0206  0.2160 -0.0809
  479TIP3    H125632   6.277   2.756   1.686  0.7991  0.5417 -1.0060
  479TIP3    H225633   6.166   2.653   1.680  0.7413  0.4247  1.3526
  480TIP3   OH225634   5.187   2.450   1.509  0.0195  0.5121 -0.0831
  480TIP3    H125635   5.282   2.458   1.516  0.0161  0.8186 -0.3375
  480TIP3    H225636   5.156   2.445   1.599  0.0967  2.6781  0.0996
  481TIP3   OH225637   3.116   3.948   7.291 -0.1484  0.0717  0.4285
  481TIP3    H125638   3.188   3.897   7.328 -0.3563 -0.1317  0.5472
  481TIP3    H225639   3.118   3.927   7.197 -1.2566 -1.4274  0.7009
  482TIP3   OH225640   4.085   6.713   7.204  0.0302 -0.3723  0.3925
  482TIP3    H125641   4.067   6.762   7.124  0.1191 -2.0589 -0.7342
  482TIP3    H225642   4.092   6.779   7.273  0.5706  1.1977 -1.0958
  483TIP3   OH225643   2.960   2.137   2.925 -0.3721  0.3338  0.5075
  483TIP3    H125644   2.878   2.117   2.971 -0.7366  0.9387  0.1324
  483TIP3    H225645   2.956   2.232   2.911  0.8449  0.5332  1.3596
  484TIP3   OH225646   2.490   4.408   9.676 -0.4059 -0.3519  0.1684
  484TIP3    H125647   2.501   4.503   9.681 -0.3041 -0.3925  3.6327
  484TIP3    H225648   2.524   4.383   9.590 -0.6106  2.7298 -0.9011
  485TIP3   OH225649   5.358   2.792   9.086 -1.0136 -0.3489  0.0523
  485TIP3    H125650   5.352   2.732   9.161 -0.1015 -0.8025 -0.2185
  485TIP3    H225651   5.335   2.877   9.121  0.1866 -0.4127  1.0522
  486TIP3   OH225652   0.941   2.166   7.356 -0.4779 -0.5422  0.3736
  486TIP3    H125653   0.932   2.231   7.426 -1.2469 -2.7544  2.4928
  486TIP3    H225654   1.029   2.180   7.322 -0.5701  1.4951  0.8387
  487TIP3   OH225655   4.245   2.955   8.236  0.0922  0.0711 -0.0759
  487TIP3    H125656   4.325   2.978   8.189 -0.0276 -1.0051 -0.8449
  487TIP3    H225657   4.195   3.036   8.240  1.2250  0.7641  0.4422
  488TIP3   OH225658   4.668   2.547   8.480 -0.1420  0.1357  0.4718
  488TIP3    H125659   4.582   2.530   8.517 -0.0099 -2.6339 -0.2410
  488TIP3    H225660   4.712   2.462   8.483  1.8075  1.0164 -1.0689
  489TIP3   OH225661   0.567   5.307   0.671 -0.1654  0.2765 -0.1524
  489TIP3    H125662   0.597   5.395   0.697  0.4619  0.4790 -1.4680
  489TIP3    H225663   0.637   5.274   0.615 -0.0610 -1.3794  0.9033
  490TIP3   OH225664   6.777   4.766   7.626  0.2763 -0.3293  0.9675
  490TIP3    H125665   6.708   4.759   7.692  1.2165 -1.3880  1.8740
  490TIP3    H225666   6.815   4.853   7.641 -1.0207  0.3946  0.2588
  491TIP3   OH225667   3.243   4.788   7.794 -0.0171 -0.3892 -0.7174
  491TIP3    H125668   3.221   4.798   7.886 -3.2295  0.6825 -1.4564
  491TIP3    H225669   3.307   4.857   7.776  1.2100 -1.0890  0.8165
  492TIP3   OH225670   6.177   2.623   0.405 -0.1142 -0.3061 -0.0066
  492TIP3    H125671   6.211   2.645   0.318 -1.5806  0.8555 -0.3328
  492TIP3    H225672   6.209   2.534   0.422  1.4220  0.0087 -1.0878
  493TIP3   OH225673   3.633   3.526   0.016  0.2418 -0.5533  0.0453
  493TIP3    H125674   3.589   3.496   0.095  2.1765  1.1792  1.9101
  493TIP3    H225675   3.652   3.618   0.033  0.2183  0.0591 -2.7268
  494TIP3   OH225676   4.118   4.237   9.443 -0.4458  0.0859 -0.4019
  494TIP3    H125677   4.136   4.146   9.420  0.9202 -0.0750  1.0905
  494TIP3    H225678   4.127   4.285   9.361 -0.5317 -1.0263 -1.0883
  495TIP3   OH225679   6.503   3.346   7.929  1.2110  0.6328  0.2997
  495TIP3    H125680   6.475   3.324   7.840  1.6819  0.9198  0.0810
  495TIP3    H225681   6.588   3.304   7.938  0.0231 -1.7299  1.5618
  496TIP3   OH225682   2.794   4.355   8.029  0.0614 -0.4619  0.2893
  496TIP3    H125683   2.858   4.284   8.036  1.3313  0.6815  0.7330
  496TIP3    H225684   2.748   4.354   8.113  0.6058 -0.2849  0.5955
  497TIP3   OH225685   4.016   7.390   7.964  0.3826 -0.5341 -0.6701
  497TIP3    H125686   4.032   7.377   8.058  0.9325  0.5992 -0.5938
  497TIP3    H225687   3.943   7.451   7.960  1.6034  0.9580 -0.9376
  498TIP3   OH225688   3.315   5.528   7.358  0.0741  0.2064 -0.0626
  498TIP3    H125689   3.403   5.563   7.371  0.1666  0.3459 -1.0116
  498TIP3    H225690   3.278   5.582   7.288 -0.0614 -1.0833 -1.0124
  499TIP3   OH225691   6.625   3.979   9.136 -0.9243 -0.2117  0.4247
  499TIP3    H125692   6.615   3.932   9.053  1.7405 -0.9200  0.4346
  499TIP3    H225693   6.636   4.071   9.110  1.2817 -0.5984 -0.1749
  500TIP3   OH225694   4.094   2.113   0.763 -1.0279  0.0798 -0.5338
  500TIP3    H125695   4.144   2.186   0.798 -0.0766 -0.1271 -1.4237
  500TIP3    H225696   4.146   2.035   0.785 -1.2702 -0.1963 -0.9295
  501TIP3   OH225697   6.886   0.939   1.684  0.5716  0.1720 -0.1797
  501TIP3    H125698   6.924   1.019   1.647 -0.4963  0.6829 -0.1960
  501TIP3    H225699   6.924   0.868   1.631  2.4868  0.5251  0.6086
  502TIP3   OH225700   2.338   3.334   8.587  0.2753  0.1792 -0.3133
  502TIP3    H125701   2.347   3.348   8.681 -1.3427  0.7829 -0.2286
  502TIP3    H225702   2.423   3.298   8.560  0.6845 -0.2286  1.4060
  503TIP3   OH225703   1.093   6.669   0.916 -0.5592 -0.2858 -0.2388
  503TIP3    H125704   1.108   6.624   0.999  0.4591  2.4425  1.1622
  503TIP3    H225705   1.000   6.693   0.917 -0.4226  0.2173  0.3685
  504TIP3   OH225706   5.393   1.738   9.123  0.8668 -0.2402 -0.2940
  504TIP3    H125707   5.484   1.770   9.118  0.5923  0.4088 -1.4797
  504TIP3    H225708   5.374   1.706   9.035 -0.9864  2.3382 -0.9461
  505TIP3   OH225709   4.630   3.064   7.734 -0.5983  0.0994  0.3438
  505TIP3    H125710   4.697   2.997   7.723  0.0910  0.8948 -0.5495
  505TIP3    H225711   4.567   3.047   7.664 -0.5077  0.2733  0.2178
  506TIP3   OH225712   7.299   5.733   0.387 -0.2523  0.4264 -0.6283
  506TIP3    H125713   7.242   5.688   0.324  0.0056  0.5354 -0.9438
  506TIP3    H225714   7.387   5.707   0.363 -0.1686  0.2361 -0.1189
  507TIP3   OH225715   5.250   5.326   9.380 -0.1674 -0.5604  0.1021
  507TIP3    H125716   5.279   5.240   9.350 -0.8235 -1.0264  0.7532
  507TIP3    H225717   5.157   5.329   9.358  0.1687  0.6262 -1.3217
  508TIP3   OH225718   2.918   4.010   7.021 -0.0217 -0.0383  0.0029
  508TIP3    H125719   2.881   3.938   7.072  0.6438  0.0551  0.6277
  508TIP3    H225720   2.946   3.969   6.939  2.9162 -1.1332  1.3871
  509TIP3   OH225721   6.581   3.917   0.223  0.1470 -0.0822 -0.3141
  509TIP3    H125722   6.616   3.844   0.172 -0.5242 -1.1985  0.7705
  509TIP3    H225723   6.487   3.912   0.211  0.1206  0.8534 -0.5430
  510TIP3   OH225724   3.928   6.185   9.642 -0.2286 -0.8255  0.3161
  510TIP3    H125725   3.947   6.212   9.732  0.3137 -0.5852  0.1378
  510TIP3    H225726   3.833   6.182   9.637 -0.4862  2.8666 -0.1373
  511TIP3   OH225727   3.023   6.929   8.450  0.1846  0.4084 -0.4496
  511TIP3    H125728   3.106   6.942   8.405  0.7199  0.6229  0.5592
  511TIP3    H225729   3.044   6.866   8.519 -0.5570  0.2706 -0.3486
  512TIP3   OH225730   4.825   0.056   8.449  0.3434 -0.1952  0.0355
  512TIP3    H125731   4.841   0.094   8.535 -0.1505 -3.8784  1.9816
  512TIP3    H225732   4.910   0.057   8.406  0.5973  1.7326  0.5048
  513TIP3   OH225733   7.637   2.327   8.993 -0.0204 -0.0936 -0.0475
  513TIP3    H125734   7.732   2.341   8.992 -0.3563  2.7535 -0.8405
  513TIP3    H225735   7.606   2.378   9.068 -0.9419 -0.9582  0.1779
  514TIP3   OH225736   1.391   7.038   9.951  0.4314  0.2166 -0.2500
  514TIP3    H125737   1.406   7.133   9.961  0.3619  0.1899  0.1066
  514TIP3    H225738   1.469   6.998   9.989  1.7637  0.1675 -2.7980
  515TIP3   OH225739   2.654   0.883   0.885  0.1482  0.2223 -0.5023
  515TIP3    H125740   2.617   0.825   0.819  1.3925 -0.5537 -0.5345
  515TIP3    H225741   2.741   0.904   0.853 -0.8219  3.5451 -1.3609
  516TIP3   OH225742   2.220   7.386   0.792  0.2426  0.0389  0.3025
  516TIP3    H125743   2.252   7.453   0.852 -1.2309  0.3180  0.7910
  516TIP3    H225744   2.183   7.435   0.719  0.3960 -0.2749  0.0126
  517TIP3   OH225745   2.751   7.323   6.520 -0.5375  0.0779 -0.0288
  517TIP3    H125746   2.710   7.408   6.534  0.9678  0.5038  2.1358
  517TIP3    H225747   2.689   7.260   6.555  0.3810  0.7011  2.9977
  518TIP3   OH225748   0.945   5.295   9.003  0.0199 -0.1092  0.2163
  518TIP3    H125749   0.985   5.299   9.090  2.2941 -2.8125 -0.5220
  518TIP3    H225750   0.871   5.236   9.013  0.0994 -0.1797  0.3847
  519TIP3   OH225751   5.893   2.193   0.526 -0.2970  0.0329 -0.0436
  519TIP3    H125752   5.948   2.136   0.472 -0.2279 -1.6113  1.6460
  519TIP3    H225753   5.933   2.280   0.517  1.1169 -0.6500 -0.7837
  520TIP3   OH225754   0.208   3.489   1.805  0.0071  0.4224  0.0316
  520TIP3    H125755   0.303   3.478   1.795  0.1141  1.0930  0.2901
  520TIP3    H225756   0.185   3.559   1.744 -0.7293 -1.3445 -1.8440
  521TIP3   OH225757   4.173   0.265   7.884  0.3997 -0.2370  0.4352
  521TIP3    H125758   4.197   0.259   7.791  0.3178 -0.3492  0.4206
  521TIP3    H225759   4.080   0.244   7.886 -0.2756  2.4049  0.2202
  522TIP3   OH225760   4.009   3.999   2.012  0.5407 -0.0041  0.1627
  522TIP3    H125761   4.045   3.962   1.932  0.9862 -1.3029  0.9355
  522TIP3    H225762   4.065   3.966   2.081  1.6453  2.9828  0.8575
  523TIP3   OH225763   3.021   6.059   0.276 -0.0767 -0.2777 -0.1957
  523TIP3    H125764   3.059   6.147   0.285 -1.2057  0.1936  0.1815
  523TIP3    H225765   3.028   6.021   0.363 -0.8859  0.0002  0.0000
  524TIP3   OH225766   4.593   4.734   8.672  0.4219 -0.3776 -0.2689
  524TIP3    H125767   4.523   4.777   8.623  1.0365 -0.0471 -0.8809
  524TIP3    H225768   4.658   4.803   8.686 -0.0503 -0.2521  1.6834
  525TIP3   OH225769   5.687   2.431   0.002 -0.1867  0.2489  0.1913
  525TIP3    H125770   5.718   2.418  -0.087 -0.3449 -1.1965  0.3305
  525TIP3    H225771   5.597   2.397   0.001  0.0317 -0.3601  1.0584
  526TIP3   OH225772   3.242   1.109   8.737 -0.5082  0.1503 -0.1211
  526TIP3    H125773   3.269   1.114   8.829 -1.2088 -2.2707  0.3122
  526TIP3    H225774   3.146   1.110   8.741 -0.5457 -0.4462 -0.7594
  527TIP3   OH225775   1.235   5.607   7.860  0.2617  0.0793  0.3136
  527TIP3    H125776   1.327   5.633   7.855  0.6215 -1.0022  0.9840
  527TIP3    H225777   1.198   5.635   7.776  0.6770  2.3925  0.8508
  528TIP3   OH225778   5.126   7.049   1.117  0.3004 -0.4047 -0.2484
  528TIP3    H125779   5.050   7.073   1.065  1.2442  0.9368 -1.0735
  528TIP3    H225780   5.091   7.025   1.203 -0.9907  0.7581 -0.4287
  529TIP3   OH225781   6.586   0.988   1.696 -0.1316  0.2813 -0.3147
  529TIP3    H125782   6.681   0.971   1.695 -0.1493  0.1580 -0.1079
  529TIP3    H225783   6.579   1.083   1.685  0.0923  0.5216  1.2965
  530TIP3   OH225784   6.471   2.670   0.693 -0.0868  0.0689 -0.5177
  530TIP3    H125785   6.385   2.689   0.732 -0.7156 -2.4392 -0.4806
  530TIP3    H225786   6.452   2.663   0.599  0.3208  0.5969 -0.6423
  531TIP3   OH225787   0.998   7.106   9.457  0.3339  0.6307  0.5318
  531TIP3    H125788   1.006   7.017   9.422  1.8189  1.2772 -0.9626
  531TIP3    H225789   0.932   7.148   9.402 -0.7709  0.3224  1.5904
  532TIP3   OH225790   2.665   6.602   0.822  0.1162  0.3350  0.1773
  532TIP3    H125791   2.658   6.634   0.732  0.4879  0.0028  0.0320
  532TIP3    H225792   2.583   6.554   0.836  0.0685  0.3661  0.0116
  533TIP3   OH225793   4.089   6.769   6.881  0.2526  0.2710 -0.2148
  533TIP3    H125794   4.143   6.699   6.917  2.2931  1.9959  0.2801
  533TIP3    H225795   4.083   6.750   6.787 -1.5834 -1.9801  0.2520
  534TIP3   OH225796   0.541   6.967   0.762 -0.2495  0.1999  0.1635
  534TIP3    H125797   0.571   6.926   0.681  0.9201  0.2804  0.5354
  534TIP3    H225798   0.446   6.959   0.759 -0.1256 -1.7263 -0.2122
  535TIP3   OH225799   5.967   4.808   0.809 -0.2992 -0.0544  0.0286
  535TIP3    H125800   6.060   4.786   0.807 -0.0941  0.7859 -1.1365
  535TIP3    H225801   5.923   4.726   0.829  0.6215 -0.7765 -0.7962
  536TIP3   OH225802   2.724   1.573   8.323 -0.5053 -0.1398  0.0568
  536TIP3    H125803   2.635   1.592   8.294 -0.6129  1.1923  1.1810
  536TIP3    H225804   2.721   1.481   8.351 -1.5666 -0.0557  0.2540
  537TIP3   OH225805   4.277   7.071   9.687  0.1502 -0.5297  0.3891
  537TIP3    H125806   4.313   6.994   9.731  2.5913  1.5387  2.3936
  537TIP3    H225807   4.347   7.100   9.628 -0.4219  0.5700  0.2182
  538TIP3   OH225808   5.023   0.545   6.924 -0.5628  0.0420  0.6722
  538TIP3    H125809   4.982   0.581   7.003 -0.8713  0.4912  0.3079
  538TIP3    H225810   4.953   0.495   6.882 -0.0909 -1.1867  1.2812
  539TIP3   OH225811   5.174   4.268   0.185  0.1411 -0.3336 -0.1049
  539TIP3    H125812   5.215   4.354   0.176 -1.6499  0.6336  0.5775
  539TIP3    H225813   5.190   4.243   0.276  0.5805 -0.6880 -0.2769
  540TIP3   OH225814   3.282   1.201   1.501 -0.1819 -0.2267 -0.2023
  540TIP3    H125815   3.188   1.183   1.492 -0.2290 -0.5981  0.8988
  540TIP3    H225816   3.307   1.242   1.418 -1.0640 -1.2166 -0.9895
  541TIP3   OH225817   3.024   7.561   9.101 -0.2845  0.1797  0.0784
  541TIP3    H125818   2.958   7.511   9.053 -0.7739  2.0841 -1.3555
  541TIP3    H225819   2.999   7.653   9.089  2.4802  0.9820 -0.3411
  542TIP3   OH225820   4.251   2.945   9.272 -0.0184  0.1001 -0.0276
  542TIP3    H125821   4.330   2.947   9.327  0.6529  1.1767 -0.9882
  542TIP3    H225822   4.271   2.882   9.203 -0.9890 -1.5012  1.0961
  543TIP3   OH225823   6.119   3.555   8.356 -0.5458 -0.0140  0.2239
  543TIP3    H125824   6.111   3.460   8.367  1.2350 -0.1937  0.2212
  543TIP3    H225825   6.127   3.567   8.262 -0.1619  0.0764  0.2665
  544TIP3   OH225826   5.603   5.679   0.356 -0.2996 -0.3736 -0.0420
  544TIP3    H125827   5.554   5.597   0.366  1.4591 -1.4991 -0.1370
  544TIP3    H225828   5.685   5.663   0.403 -0.0047  1.4394  0.1354
  545TIP3   OH225829   3.377   3.025   9.588 -0.3502  0.0048  0.3259
  545TIP3    H125830   3.289   3.006   9.555 -0.2054  0.6600 -0.4583
  545TIP3    H225831   3.411   2.939   9.614 -0.5649 -0.5097 -1.0190
  546TIP3   OH225832   1.058   5.333   0.010  0.3374  0.1879  0.4009
  546TIP3    H125833   1.110   5.412  -0.004 -1.8628  1.7736  0.6536
  546TIP3    H225834   0.995   5.357   0.078  1.1680 -2.6142  2.3847
  547TIP3   OH225835   5.084   0.470   9.018  0.1176 -0.4429  0.7690
  547TIP3    H125836   5.077   0.539   9.084  0.9693  0.9741 -0.5346
  547TIP3    H225837   5.000   0.425   9.020 -1.8686  2.8484 -0.6222
  548TIP3   OH225838   2.454   0.353   7.183 -1.1366 -0.0615  0.5350
  548TIP3    H125839   2.434   0.276   7.130 -0.4522 -1.1650  1.8092
  548TIP3    H225840   2.421   0.426   7.132 -1.9030 -1.1991 -0.6772
  549TIP3   OH225841   0.519   4.452   8.026  0.0701  0.5216 -0.0793
  549TIP3    H125842   0.487   4.534   7.990 -1.8762 -0.5644 -1.0079
  549TIP3    H225843   0.511   4.463   8.121 -2.5815  0.5775 -0.2429
  550TIP3   OH225844   7.059   7.668   8.455 -0.2148 -0.5719 -0.0451
  550TIP3    H125845   7.084   7.585   8.414 -0.6079 -0.7264  0.0185
  550TIP3    H225846   6.999   7.708   8.392 -1.0011 -0.9151  0.4684
  551TIP3   OH225847   1.139   7.078   7.118 -0.8913 -0.3510 -0.3518
  551TIP3    H125848   1.228   7.086   7.152 -0.5328 -1.1405 -1.0448
  551TIP3    H225849   1.103   7.166   7.125 -0.2869 -0.1564  0.5462
  552TIP3   OH225850   0.872   1.645   9.838 -0.0052 -0.2983  0.0160
  552TIP3    H125851   0.918   1.594   9.905  2.0276  1.9671  0.5016
  552TIP3    H225852   0.833   1.718   9.887 -1.6236 -0.5544 -0.8343
  553TIP3   OH225853   5.026   4.761   1.981 -0.0013 -0.2222 -0.1168
  553TIP3    H125854   4.999   4.801   2.063 -0.1067 -2.2863  0.9331
  553TIP3    H225855   4.947   4.759   1.928 -0.0731  0.5924 -0.0531
  554TIP3   OH225856   0.732   4.932   8.723  0.2703 -0.1462  0.4358
  554TIP3    H125857   0.796   4.926   8.652 -1.3532 -2.1784 -0.9767
  554TIP3    H225858   0.762   4.867   8.787 -0.0060 -0.6093  0.0966
  555TIP3   OH225859   3.049   5.789   1.283 -0.0242 -0.3302 -0.2029
  555TIP3    H125860   3.115   5.721   1.299 -0.6378 -0.8539  0.1503
  555TIP3    H225861   3.096   5.871   1.294  1.2028 -0.6467 -2.5316
  556TIP3   OH225862   4.628   3.123   8.464 -0.0564 -0.5454 -0.1715
  556TIP3    H125863   4.604   3.059   8.397 -1.4399 -0.1133 -0.1096
  556TIP3    H225864   4.707   3.166   8.429 -0.4073 -0.7463 -1.2442
  557TIP3   OH225865   4.857   5.064   7.746  0.1255  0.5162 -0.4525
  557TIP3    H125866   4.891   5.153   7.743  0.4452  0.3816 -1.3713
  557TIP3    H225867   4.765   5.072   7.720 -0.1581  0.7079  0.5940
  558TIP3   OH225868   5.873   5.247   0.711  0.4674 -0.7596 -0.8150
  558TIP3    H125869   5.850   5.157   0.732  1.5973 -0.6594  1.0935
  558TIP3    H225870   5.968   5.246   0.700  0.3737  0.0243 -1.8339
  559TIP3   OH225871   4.260   7.315   0.248  0.0234 -0.4250  0.4966
  559TIP3    H125872   4.245   7.304   0.342  0.9031 -0.3721  0.6511
  559TIP3    H225873   4.236   7.406   0.231 -4.2057 -1.4626 -0.1808
  560TIP3   OH225874   6.819   4.266   7.826  0.0504 -0.3757  0.0759
  560TIP3    H125875   6.758   4.308   7.766 -0.3155  0.4411  0.9937
  560TIP3    H225876   6.899   4.254   7.774 -0.6201 -0.7565 -0.9001
  561TIP3   OH225877   2.672   1.204   8.986  0.5856 -0.1359  0.0079
  561TIP3    H125878   2.614   1.202   9.063  1.8836 -0.4581  1.0164
  561TIP3    H225879   2.737   1.271   9.008  0.6465  0.1633 -1.0648
  562TIP3   OH225880   4.503   5.595   2.661 -0.4245 -0.2634 -0.7839
  562TIP3    H125881   4.565   5.522   2.656 -0.1274 -0.0463 -0.2940
  562TIP3    H225882   4.417   5.552   2.667 -0.1684 -0.6156  0.8386
  563TIP3   OH225883   2.265   1.245   0.567  0.1742 -0.0197  0.4569
  563TIP3    H125884   2.239   1.241   0.475 -0.1875  2.0537  0.4290
  563TIP3    H225885   2.324   1.170   0.578  0.6938  0.0190 -1.6083
  564TIP3   OH225886   0.079   0.628   7.868 -0.0600 -0.1028  0.3809
  564TIP3    H125887  -0.012   0.643   7.893 -0.0584 -0.6008  0.7068
  564TIP3    H225888   0.073   0.570   7.791 -0.0078 -0.9123  0.9704
  565TIP3   OH225889   4.384   1.131   1.776 -0.2361  0.0220 -0.2276
  565TIP3    H125890   4.318   1.071   1.812  1.1965 -1.0921  0.6984
  565TIP3    H225891   4.413   1.183   1.851  0.0799  0.3533 -0.5743
  566TIP3   OH225892   4.214   5.922   7.059 -0.1439 -0.1913  0.6120
  566TIP3    H125893   4.190   5.898   6.969  1.5522 -0.6203  0.2397
  566TIP3    H225894   4.131   5.944   7.100 -0.9072  0.5545 -1.2145
  567TIP3   OH225895   1.245   1.305   0.896  0.4015 -0.1364 -0.3245
  567TIP3    H125896   1.257   1.222   0.942  0.0022  0.2441  0.4927
  567TIP3    H225897   1.295   1.369   0.948 -1.5351  0.6509  0.6787
  568TIP3   OH225898   3.759   5.992   1.485  0.2316  0.1136 -0.3279
  568TIP3    H125899   3.740   6.077   1.524 -0.2169 -0.2569  0.2828
  568TIP3    H225900   3.716   5.994   1.399  0.9097  0.7975 -0.6643
  569TIP3   OH225901   3.931   5.342   7.441  0.2775 -0.1156 -0.7239
  569TIP3    H125902   3.843   5.311   7.461  0.4222  0.3262  0.7247
  569TIP3    H225903   3.986   5.264   7.445  0.1947 -0.1422  0.0106
  570TIP3   OH225904   2.905   3.073   7.507 -0.4950 -0.5517 -0.4546
  570TIP3    H125905   2.919   3.144   7.444  0.7792 -1.4272 -1.1961
  570TIP3    H225906   2.990   3.058   7.546 -0.8491 -1.3651  0.0315
  571TIP3   OH225907   3.240   2.317   9.588 -0.3477  0.0493 -0.3365
  571TIP3    H125908   3.316   2.304   9.531 -0.0429  1.5741 -0.3080
  571TIP3    H225909   3.166   2.325   9.527 -0.1075  1.0782 -0.5125
  572TIP3   OH225910   6.971   6.289   9.607 -0.1730  0.3784 -0.0227
  572TIP3    H125911   6.961   6.215   9.666  2.4411 -0.4702 -0.4964
  572TIP3    H225912   6.976   6.365   9.665  0.7616 -0.2644  0.7638
  573TIP3   OH225913   3.746   5.599   2.282 -0.0182 -0.0895 -0.1348
  573TIP3    H125914   3.797   5.666   2.237 -1.2892  2.3035  1.6983
  573TIP3    H225915   3.805   5.524   2.289  1.9275  1.2487 -1.2519
  574TIP3   OH225916   1.271   0.688   1.208 -0.1596  0.3762 -0.4396
  574TIP3    H125917   1.245   0.639   1.130 -0.1707 -0.8617  0.3171
  574TIP3    H225918   1.190   0.725   1.242 -0.0843  1.3678 -1.2873
  575TIP3   OH225919   5.207   7.670   1.472 -0.8284  0.0349 -0.4558
  575TIP3    H125920   5.294   7.657   1.436 -2.1650  0.9200 -4.5488
  575TIP3    H225921   5.205   7.763   1.495 -0.9771  0.2622 -1.3576
  576TIP3   OH225922   6.457   0.874   1.927 -0.0291 -0.4116  0.2839
  576TIP3    H125923   6.541   0.830   1.942 -0.1344 -0.2981  1.2438
  576TIP3    H225924   6.481   0.958   1.889  0.1672 -1.3408 -1.8286
  577TIP3   OH225925   2.270   2.281   2.323 -0.0668 -0.8385 -0.1374
  577TIP3    H125926   2.277   2.357   2.265  0.9210 -1.4551 -0.8370
  577TIP3    H225927   2.178   2.282   2.352 -0.3849 -0.0964 -1.1212
  578TIP3   OH225928   2.947   0.789   1.759 -0.0201 -0.0079  0.2378
  578TIP3    H125929   3.022   0.799   1.700  0.2441 -0.7812  0.4333
  578TIP3    H225930   2.961   0.704   1.801 -1.4479 -0.5575 -0.3447
  579TIP3   OH225931   7.059   3.743   0.910 -0.1029  0.0193 -0.0316
  579TIP3    H125932   7.055   3.819   0.968 -1.4396  2.1804 -2.7160
  579TIP3    H225933   7.007   3.768   0.834  0.4977 -3.1189 -1.6438
  580TIP3   OH225934   4.169   1.107   8.912  0.2031  0.1682  0.2552
  580TIP3    H125935   4.103   1.064   8.966  1.8809 -0.6447  1.7519
  580TIP3    H225936   4.138   1.198   8.906 -1.3530 -0.3134  0.3767
  581TIP3   OH225937   7.298   2.905   7.489  0.5689  0.5751 -0.2793
  581TIP3    H125938   7.386   2.894   7.453  0.3843 -2.1374 -0.1142
  581TIP3    H225939   7.287   2.830   7.547 -0.9007  2.2951  1.8269
  582TIP3   OH225940   1.489   4.554   0.715 -0.0148 -0.3660  0.2641
  582TIP3    H125941   1.394   4.562   0.708  0.0138  0.5555  0.7666
  582TIP3    H225942   1.505   4.544   0.809  0.3630 -1.0134  0.1401
  583TIP3   OH225943   5.431   6.479   7.869 -0.4758  0.4389 -0.2998
  583TIP3    H125944   5.430   6.389   7.902 -0.2398 -0.0788 -1.6430
  583TIP3    H225945   5.347   6.490   7.824  0.4707  0.0273 -2.2672
  584TIP3   OH225946   4.040   1.924   0.246 -0.4136 -0.0100  0.5031
  584TIP3    H125947   4.100   1.998   0.247  0.5210 -0.7578  1.3422
  584TIP3    H225948   4.014   1.915   0.154  0.8733  0.2295  0.1035
  585TIP3   OH225949   2.009   0.324   7.284 -0.5090  0.1702  0.4248
  585TIP3    H125950   2.057   0.326   7.201  0.4806 -0.8881  0.9332
  585TIP3    H225951   1.917   0.332   7.259 -0.1935  0.3799 -0.7340
  586TIP3   OH225952   2.498   6.337   7.787  0.4362  0.7048  0.6101
  586TIP3    H125953   2.462   6.390   7.859  1.0996  0.7632  0.9090
  586TIP3    H225954   2.491   6.247   7.818 -0.0869  0.6632  0.3771
  587TIP3   OH225955   3.413   0.733   9.648 -0.1253 -0.1553  0.1817
  587TIP3    H125956   3.443   0.756   9.560  0.1775  0.3641  0.4136
  587TIP3    H225957   3.318   0.722   9.640 -0.1661  0.3968 -0.1044
  588TIP3   OH225958   3.828   1.596   8.516 -0.3233 -0.0437 -0.8408
  588TIP3    H125959   3.753   1.639   8.558 -0.1700  0.3356 -0.9509
  588TIP3    H225960   3.795   1.566   8.432 -0.5549 -0.5478 -0.5677
  589TIP3   OH225961   4.977   7.052   9.016 -0.1384 -0.6456  0.0316
  589TIP3    H125962   5.044   7.118   9.032 -0.1467 -0.7106  0.3446
  589TIP3    H225963   5.025   6.970   9.009 -0.2717 -0.8729  1.4433
  590TIP3   OH225964   2.436   1.631   1.825 -0.5955 -0.2425  0.3422
  590TIP3    H125965   2.343   1.648   1.834 -0.3652  1.0559  0.4382
  590TIP3    H225966   2.467   1.699   1.764 -0.0489 -1.7920 -1.2048
  591TIP3   OH225967   2.507   4.299   1.612  0.0243  0.1525 -0.0495
  591TIP3    H125968   2.440   4.244   1.573  1.7185 -3.1577  1.2566
  591TIP3    H225969   2.467   4.334   1.691 -0.6812 -0.4408 -0.1394
  592TIP3   OH225970   3.242   6.125   9.258 -0.1667 -0.0320  0.1247
  592TIP3    H125971   3.295   6.068   9.202 -0.8928 -0.1663 -0.4370
  592TIP3    H225972   3.282   6.116   9.345  0.9463  0.1560 -0.3500
  593TIP3   OH225973   0.636   5.538   0.033  0.4881 -0.0613 -0.2650
  593TIP3    H125974   0.716   5.510   0.078  0.8876 -0.6424 -1.3022
  593TIP3    H225975   0.577   5.565   0.104  0.5948 -2.1988  0.7191
  594TIP3   OH225976   4.899   0.541   2.554 -0.6800 -0.2178 -0.6500
  594TIP3    H125977   4.932   0.583   2.475  3.4910  1.0693  1.4996
  594TIP3    H225978   4.954   0.464   2.565  0.2539  0.7294  1.9569
  595TIP3   OH225979   7.158   0.442   0.852  0.0882  0.4799 -0.0763
  595TIP3    H125980   7.237   0.495   0.844 -0.5280  1.7821  1.8031
  595TIP3    H225981   7.109   0.459   0.772  0.5343  1.7114 -0.1102
  596TIP3   OH225982   6.146   5.248   0.743  0.1589  0.2935  0.3905
  596TIP3    H125983   6.212   5.317   0.737 -1.1372  1.5460 -0.0164
  596TIP3    H225984   6.158   5.211   0.830  1.4502  0.4137  0.2890
  597TIP3   OH225985   2.957   0.413   0.965  0.4574 -0.4444 -0.0887
  597TIP3    H125986   2.947   0.352   1.039  3.4243 -0.6342  0.2769
  597TIP3    H225987   2.868   0.424   0.931 -0.7606 -1.7493  2.3851
  598TIP3   OH225988   6.157   1.142   8.204  0.5008  0.2510 -0.5196
  598TIP3    H125989   6.220   1.070   8.200 -0.1306 -0.4636  1.5843
  598TIP3    H225990   6.179   1.189   8.285 -1.2177  0.4017 -0.1066
  599TIP3   OH225991   5.508   2.936   2.336  0.5177 -0.5719 -0.0779
  599TIP3    H125992   5.451   2.963   2.263  0.6839 -1.4422 -0.5431
  599TIP3    H225993   5.448   2.896   2.400  0.6151 -1.8000 -0.7179
  600TIP3   OH225994   1.258   6.012   8.168  0.0036  0.2206 -0.3490
  600TIP3    H125995   1.236   6.105   8.160 -0.7626  0.1262  0.5082
  600TIP3    H225996   1.175   5.969   8.187  0.3149 -0.6792 -0.9561
  601TIP3   OH225997   1.922   0.334   8.469 -0.3897 -0.0744  0.0237
  601TIP3    H125998   1.830   0.357   8.458 -0.7594 -2.1113 -1.9027
  601TIP3    H225999   1.957   0.330   8.380  0.8528 -1.8625  0.5225
  602TIP3   OH226000   4.397   4.902   8.582  0.2497 -0.1013  0.2367
  602TIP3    H126001   4.418   4.985   8.540 -1.2298 -0.4455 -1.3471
  602TIP3    H226002   4.351   4.925   8.662 -0.9428  0.6635 -0.6279
  603TIP3   OH226003   3.002   7.512   1.037  0.1420  0.2416 -0.0019
  603TIP3    H126004   3.012   7.479   1.126  1.6943  2.3840  0.6803
  603TIP3    H226005   3.085   7.492   0.994  0.2305  1.1522 -0.2785
  604TIP3   OH226006   4.972   6.166   8.970 -0.6200 -0.2990 -0.1884
  604TIP3    H126007   5.002   6.140   8.882 -1.1274  0.3507 -0.5603
  604TIP3    H226008   4.916   6.242   8.955 -2.6521 -1.5962  0.4625
  605TIP3   OH226009   2.758   6.832   9.821 -0.0071 -0.2744 -0.1459
  605TIP3    H126010   2.767   6.740   9.848  0.2037 -1.1994 -2.9596
  605TIP3    H226011   2.835   6.847   9.765 -0.9897  0.9976 -1.2175
  606TIP3   OH226012   7.664   2.248   0.490  0.1754 -0.1197 -0.7413
  606TIP3    H126013   7.748   2.292   0.474  1.8435 -1.7976  2.4658
  606TIP3    H226014   7.664   2.174   0.429  1.4314 -0.5210 -0.2953
  607TIP3   OH226015   4.948   0.150   1.966 -0.5806  0.4971  0.1144
  607TIP3    H126016   4.878   0.093   1.935 -0.2042 -0.6088  1.2182
  607TIP3    H226017   4.977   0.110   2.048 -2.6130  4.0967  2.8722
  608TIP3   OH226018   2.244   3.739   2.293 -0.6843  0.1901  0.1763
  608TIP3    H126019   2.338   3.733   2.309 -0.7272 -0.4074  0.2065
  608TIP3    H226020   2.214   3.648   2.287 -1.0018  0.3660 -1.3627
  609TIP3   OH226021   1.632   0.729   0.343  0.2451 -0.1508 -0.3004
  609TIP3    H126022   1.651   0.819   0.370  3.1970 -0.5384 -0.8234
  609TIP3    H226023   1.550   0.708   0.388  0.5231  2.1045  1.4415
  610TIP3   OH226024   5.646   7.233   9.273 -0.2881  0.7288 -0.2104
  610TIP3    H126025   5.592   7.234   9.194  1.5161 -0.8905 -1.5642
  610TIP3    H226026   5.714   7.299   9.257 -0.1747  0.7195  0.2041
  611TIP3   OH226027   1.457   1.781   9.757  0.1669 -0.2898 -0.3901
  611TIP3    H126028   1.374   1.795   9.802  0.4043  0.0950 -0.0669
  611TIP3    H226029   1.500   1.712   9.807 -0.2813 -1.0184 -1.0004
  612TIP3   OH226030   3.007   4.670   7.013 -0.3495 -0.0049 -0.0907
  612TIP3    H126031   2.952   4.747   6.995 -1.0704 -0.6407 -0.7111
  612TIP3    H226032   2.956   4.619   7.076  0.5229  0.4376  0.9946
  613TIP3   OH226033   6.706   1.368   0.554 -0.6083  0.0306 -0.5251
  613TIP3    H126034   6.639   1.435   0.570 -0.7556 -0.1726 -0.2677
  613TIP3    H226035   6.657   1.286   0.553 -0.5674  0.0033 -1.8194
  614TIP3   OH226036   0.990   6.536   2.146  0.6836  0.6421  0.7156
  614TIP3    H126037   0.998   6.443   2.126 -0.9746  0.2997  1.4819
  614TIP3    H226038   1.030   6.581   2.072 -0.2260 -0.6475 -0.5853
  615TIP3   OH226039   2.312   5.734   7.784  0.9818 -0.1249  0.0367
  615TIP3    H126040   2.382   5.669   7.790  2.0088  0.4424 -3.5843
  615TIP3    H226041   2.270   5.717   7.700 -0.7376  1.9730  0.3816
  616TIP3   OH226042   0.714   2.282   8.584 -0.4391  0.2214  0.9735
  616TIP3    H126043   0.744   2.318   8.667  2.2874  0.8975 -0.2121
  616TIP3    H226044   0.776   2.213   8.562 -0.5875  0.6034 -0.8715
  617TIP3   OH226045   7.662   2.701   9.362 -0.7181  0.2467  0.3822
  617TIP3    H126046   7.637   2.745   9.443 -0.8877  3.7897 -1.4132
  617TIP3    H226047   7.714   2.766   9.315 -0.0422 -1.9287 -2.0838
  618TIP3   OH226048   4.328   5.896   0.810  0.3736  0.4561  0.3699
  618TIP3    H126049   4.324   5.837   0.885 -0.4349 -0.2430 -0.1954
  618TIP3    H226050   4.393   5.857   0.753  2.3255  1.9573  1.4652
  619TIP3   OH226051   6.689   7.014   1.340 -0.1332 -0.7361 -0.5253
  619TIP3    H126052   6.656   7.004   1.429  2.0445  2.5294  0.8662
  619TIP3    H226053   6.662   7.102   1.315  1.4738 -0.6207 -2.0472
  620TIP3   OH226054   5.916   6.200   9.891 -0.3104 -0.3119  0.7113
  620TIP3    H126055   5.826   6.195   9.859 -0.7838 -2.4959  2.1985
  620TIP3    H226056   5.968   6.157   9.823 -0.8960 -2.0999  1.3274
  621TIP3   OH226057   3.486   5.197   8.715 -0.0349 -0.2268  0.0776
  621TIP3    H126058   3.536   5.201   8.634 -1.1620 -0.7160 -0.6661
  621TIP3    H226059   3.396   5.219   8.690 -0.9026 -2.6434  0.7127
  622TIP3   OH226060   1.033   0.118   0.518 -0.3559  0.2617 -0.1028
  622TIP3    H126061   0.982   0.111   0.437 -0.2123 -0.8741 -0.1151
  622TIP3    H226062   1.043   0.212   0.532 -1.9174  0.4980 -0.4354
  623TIP3   OH226063   5.543   7.154   7.627  0.1203 -0.3000 -1.0623
  623TIP3    H126064   5.462   7.133   7.674 -0.1920  1.6092 -0.6630
  623TIP3    H226065   5.514   7.174   7.538  0.1479  0.3380 -0.9311
  624TIP3   OH226066   7.244   5.785   0.911 -0.1149  0.3123  0.4878
  624TIP3    H126067   7.252   5.696   0.947 -1.2486  0.6637  1.6923
  624TIP3    H226068   7.167   5.780   0.854  0.8901  0.0996 -0.9131
  625TIP3   OH226069   2.509   1.222   1.579 -0.4324  0.6642  0.0832
  625TIP3    H126070   2.547   1.162   1.643  0.5877  1.4578  0.2384
  625TIP3    H226071   2.466   1.289   1.632  1.3710  1.9430 -0.0079
  626TIP3   OH226072   5.325   5.815   0.149  0.0632 -0.4440  0.0491
  626TIP3    H126073   5.401   5.762   0.125  0.3746 -1.4430  2.9473
  626TIP3    H226074   5.362   5.902   0.168  0.6393 -1.0655  1.9757
  627TIP3   OH226075   2.583   7.352   8.941 -0.2908 -0.3826 -0.3216
  627TIP3    H126076   2.501   7.400   8.929 -0.1323  0.4881  1.6118
  627TIP3    H226077   2.569   7.299   9.019  0.5580 -1.2425 -0.7293
  628TIP3   OH226078   1.879   7.598   2.967 -0.0334  0.2637 -0.2521
  628TIP3    H126079   1.902   7.659   3.036 -0.5413  0.8091 -0.5567
  628TIP3    H226080   1.878   7.512   3.009 -0.0933  0.5627  0.3561
  629TIP3   OH226081   0.448   0.895   7.600 -0.6805 -0.2725  0.0569
  629TIP3    H126082   0.527   0.905   7.652 -0.7491  0.7034  0.0038
  629TIP3    H226083   0.386   0.850   7.658 -1.1412  1.7971  1.2789
  630TIP3   OH226084   2.383   3.357   9.215  0.5451 -0.0049 -0.1270
  630TIP3    H126085   2.394   3.372   9.309  0.5172 -0.5326 -0.0376
  630TIP3    H226086   2.462   3.312   9.188  0.3598 -0.2496 -0.2661
  631TIP3   OH226087   3.770   0.873   8.219 -0.4586  0.5979  0.1830
  631TIP3    H126088   3.746   0.915   8.302 -0.6141  0.0412  0.4268
  631TIP3    H226089   3.843   0.925   8.186 -0.2615  0.7047  0.7742
  632TIP3   OH226090   6.440   2.520   2.326 -0.0885 -0.2425 -0.2949
  632TIP3    H126091   6.399   2.479   2.402  0.3566 -0.1763 -0.0132
  632TIP3    H226092   6.524   2.475   2.316 -0.2188 -0.3652 -0.8513
  633TIP3   OH226093   0.572   0.851   1.685  0.5165  0.4136  0.2578
  633TIP3    H126094   0.552   0.930   1.634  0.5338  0.7680  0.7955
  633TIP3    H226095   0.509   0.786   1.653  1.4426  0.1911 -1.2252
  634TIP3   OH226096   6.367   2.813   8.998  0.0753  0.5325  0.4880
  634TIP3    H126097   6.382   2.907   9.011 -1.8318  1.0014 -0.4255
  634TIP3    H226098   6.382   2.775   9.085 -0.8234  1.9327  1.3073
  635TIP3   OH226099   3.597   2.633   7.755 -0.4112 -0.6248 -0.3705
  635TIP3    H126100   3.518   2.640   7.700 -1.5027 -1.1626  1.0658
  635TIP3    H226101   3.610   2.721   7.789  0.6599 -0.1299 -1.9462
  636TIP3   OH226102   6.038   6.133   8.282 -0.4051 -0.2014 -0.4114
  636TIP3    H126103   6.027   6.204   8.219  0.5895  0.3893  0.0573
  636TIP3    H226104   5.950   6.116   8.315 -0.7552  0.3381 -1.0517
  637TIP3   OH226105   4.804   6.631   7.909  0.4537  0.6374  0.0160
  637TIP3    H126106   4.892   6.623   7.946  0.0797  1.3423  1.0651
  637TIP3    H226107   4.807   6.711   7.857  0.3797  0.7386  0.1697
  638TIP3   OH226108   0.936   2.115   8.542  0.1949  0.4635  0.5565
  638TIP3    H126109   0.947   2.027   8.580  0.2146  1.3535  2.7573
  638TIP3    H226110   1.019   2.132   8.497  1.0066  0.1431  1.8681
  639TIP3   OH226111   1.411   1.857   8.536 -0.6173  0.2348 -0.1656
  639TIP3    H126112   1.438   1.797   8.606  0.2076  1.0820  0.2609
  639TIP3    H226113   1.392   1.799   8.462 -0.2915 -0.5955  0.3724
  640TIP3   OH226114   4.902   0.093   9.849 -0.3061 -0.4090 -0.3904
  640TIP3    H126115   4.843   0.024   9.819 -1.5998  0.1448  0.7945
  640TIP3    H226116   4.869   0.173   9.807 -0.1758 -0.1575 -0.0222
  641TIP3   OH226117   3.503   0.995   8.376  0.7341  0.3469 -0.1881
  641TIP3    H126118   3.436   1.057   8.348  0.0696 -0.8689 -1.4117
  641TIP3    H226119   3.455   0.930   8.429  1.2375  0.3216  0.2491
  642TIP3   OH226120   5.453   0.054   1.673  0.2306 -0.5323  0.0747
  642TIP3    H126121   5.472   0.113   1.600  1.0172 -0.7022  0.1319
  642TIP3    H226122   5.523  -0.011   1.669  2.2392  1.2201  2.8899
  643TIP3   OH226123   4.312   5.161   8.304 -0.3060  0.0516 -0.1689
  643TIP3    H126124   4.322   5.137   8.211 -2.4362  1.3036 -0.8004
  643TIP3    H226125   4.223   5.194   8.310 -0.3082 -0.2695  2.4351
  644TIP3   OH226126   4.652   6.140   8.558 -0.2718  0.1999  0.1444
  644TIP3    H126127   4.667   6.187   8.476  1.4047  1.5851  1.1618
  644TIP3    H226128   4.635   6.209   8.622 -0.2618 -0.7571  1.2004
  645TIP3   OH226129   6.331   1.273   0.450  0.3835  0.0899  0.0355
  645TIP3    H126130   6.353   1.200   0.392  2.2249 -0.1765  1.0056
  645TIP3    H226131   6.282   1.232   0.522  2.1738 -0.3840  1.0288
  646TIP3   OH226132   3.342   2.166   2.026  0.6766 -0.4099  0.0944
  646TIP3    H126133   3.272   2.100   2.028  1.1285 -0.8976  0.0167
  646TIP3    H226134   3.297   2.247   2.003  0.4451 -1.1307 -2.3355
  647TIP3   OH226135   5.687   0.005   8.998 -0.3585  0.1929  0.5146
  647TIP3    H126136   5.657   0.092   8.974  2.1968  1.1098  0.3957
  647TIP3    H226137   5.742   0.018   9.076  2.2378 -0.8383 -0.9979
  648TIP3   OH226138   3.061   3.438   9.389 -0.5091 -0.7050  0.8184
  648TIP3    H126139   2.992   3.504   9.380 -0.5631 -0.8532  0.1306
  648TIP3    H226140   3.107   3.439   9.306  0.2688 -0.6783  1.2413
  649TIP3   OH226141   3.708   2.538   2.875  0.4840  0.1609  0.2027
  649TIP3    H126142   3.748   2.576   2.797  1.6955 -0.7881  0.3237
  649TIP3    H226143   3.707   2.444   2.858  0.1561 -0.0008  1.0658
  650TIP3   OH226144   0.627   3.370   0.266 -0.1009  0.7497  0.0755
  650TIP3    H126145   0.609   3.356   0.173  0.7672  0.1289 -0.0150
  650TIP3    H226146   0.617   3.465   0.278  0.1425  0.8904 -0.7427
  651TIP3   OH226147   6.732   3.770   1.048 -0.2280  0.0035 -0.2217
  651TIP3    H126148   6.771   3.843   1.000  0.8752 -0.5741 -0.2451
  651TIP3    H226149   6.699   3.809   1.129 -0.7609  0.7332 -0.7871
  652TIP3   OH226150   2.434   1.787   1.276  0.8469 -0.0541 -0.4227
  652TIP3    H126151   2.473   1.874   1.277 -0.5621  0.6119 -0.9160
  652TIP3    H226152   2.433   1.762   1.184 -0.4005  0.2073 -0.5012
  653TIP3   OH226153   7.573   6.808   8.877  0.1569 -0.1679  0.1857
  653TIP3    H126154   7.489   6.763   8.877  0.2135 -0.2734  0.3091
  653TIP3    H226155   7.577   6.851   8.962 -0.1132  0.4738 -0.1195
  654TIP3   OH226156   3.244   2.835   6.756 -0.0392  0.5985  0.0454
  654TIP3    H126157   3.324   2.854   6.805  0.2418 -1.8087  0.6713
  654TIP3    H226158   3.268   2.760   6.701 -1.6013  0.4487 -0.4712
  655TIP3   OH226159   2.055   3.579   0.118  0.2339  0.1254 -0.2363
  655TIP3    H126160   2.116   3.506   0.128  0.6794  0.7112  1.8132
  655TIP3    H226161   2.110   3.654   0.097  0.1409  0.4489  0.6213
  656TIP3   OH226162   5.788   2.134   9.530 -0.6133  0.7386  0.3682
  656TIP3    H126163   5.870   2.120   9.578 -0.6101  1.1254  0.4836
  656TIP3    H226164   5.741   2.051   9.538 -0.4395  0.6686  0.7063
  657TIP3   OH226165   4.278   0.729   1.260  0.5532 -0.5413  0.1790
  657TIP3    H126166   4.331   0.804   1.286 -2.9312  1.8957  1.0561
  657TIP3    H226167   4.246   0.693   1.343 -1.0337 -0.3765 -0.3230
  658TIP3   OH226168   6.432   0.661   0.080  0.4381 -0.6862 -0.4368
  658TIP3    H126169   6.525   0.640   0.070  0.7166  0.2683  0.0290
  658TIP3    H226170   6.417   0.734   0.021 -0.1160 -1.0685 -0.7848
  659TIP3   OH226171   7.639   0.434   0.749  0.1953  0.2784 -0.2166
  659TIP3    H126172   7.645   0.409   0.841  0.4446  1.2729  0.0481
  659TIP3    H226173   7.551   0.470   0.739  1.1864  3.1372  0.4401
  660TIP3   OH226174   3.611   0.396   8.692  0.3702  0.3302 -0.2840
  660TIP3    H126175   3.595   0.337   8.766  2.0174  1.3235  0.9180
  660TIP3    H226176   3.706   0.393   8.678  0.0226 -0.8485 -3.2807
  661TIP3   OH226177   3.582   4.140   1.615 -0.2676  0.3001 -0.4279
  661TIP3    H126178   3.607   4.193   1.539 -1.1347  0.5968 -0.5162
  661TIP3    H226179   3.652   4.076   1.624  0.7420  1.3777 -0.3993
  662TIP3   OH226180   2.163   0.272   6.727  0.0207 -0.2229 -0.5258
  662TIP3    H126181   2.174   0.193   6.780 -0.5072 -1.3738 -2.0781
  662TIP3    H226182   2.194   0.343   6.784  0.2183 -1.4881  1.0182
  663TIP3   OH226183   7.318   0.213   2.475 -0.3695  0.1641 -0.0704
  663TIP3    H126184   7.237   0.222   2.525 -0.7620 -2.4246 -0.0686
  663TIP3    H226185   7.296   0.245   2.388 -1.1555  0.2306  0.1413
  664TIP3   OH226186   2.927   6.262   9.715 -0.0012  0.3377 -0.0575
  664TIP3    H126187   3.004   6.266   9.657  0.8895  0.4268  1.0960
  664TIP3    H226188   2.879   6.342   9.695  0.1539  0.2485 -0.8491
  665TIP3   OH226189   3.158   5.203   1.641  0.6405  0.3331 -0.3274
  665TIP3    H126190   3.250   5.195   1.618  1.3330  0.7950  1.9608
  665TIP3    H226191   3.139   5.124   1.692 -0.4572 -0.1058 -1.3764
  666TIP3   OH226192   4.191   1.856   1.962 -0.1278  0.1048  0.3985
  666TIP3    H126193   4.217   1.820   1.877  0.7042 -0.4164  0.8646
  666TIP3    H226194   4.231   1.798   2.027 -2.2266 -0.5540  1.1675
  667TIP3   OH226195   3.133   0.160   0.985  0.1006 -0.9055 -0.1639
  667TIP3    H126196   3.197   0.090   0.994  1.6308  0.0759 -2.4964
  667TIP3    H226197   3.169   0.232   1.036 -0.4228 -1.1399  0.5444
  668TIP3   OH226198   7.380   2.076   0.684 -0.0822  0.0660  0.1387
  668TIP3    H126199   7.412   2.110   0.768  0.9436 -0.7000  0.0762
  668TIP3    H226200   7.326   2.146   0.649 -0.4882  0.4184  1.4219
  669TIP3   OH226201   4.427   1.665   8.579  0.3755 -0.0669 -0.4930
  669TIP3    H126202   4.412   1.704   8.666  1.3941 -0.2458 -0.2183
  669TIP3    H226203   4.515   1.629   8.585  0.9716  1.0553 -2.0179
  670TIP3   OH226204   5.355   2.778   8.151 -0.1087 -0.0903 -0.0990
  670TIP3    H126205   5.378   2.789   8.059 -1.0708 -0.6117 -0.4118
  670TIP3    H226206   5.286   2.712   8.151  1.4919 -1.8917  1.2026
  671TIP3   OH226207   6.210   4.701   0.845 -0.3004 -0.7237  0.3989
  671TIP3    H126208   6.213   4.617   0.799  0.3510  0.4352 -1.8330
  671TIP3    H226209   6.300   4.714   0.877  0.5237  0.4978 -2.1007
  672TIP3   OH226210   5.817   3.572   7.680  0.6325 -0.4133  0.2836
  672TIP3    H126211   5.872   3.632   7.630  1.1172 -0.9840  0.1276
  672TIP3    H226212   5.767   3.523   7.613  0.2984 -0.2471  0.4068
  673TIP3   OH226213   4.435   0.494   1.178  0.1521  0.2283 -0.9797
  673TIP3    H126214   4.362   0.463   1.233  0.0497 -0.8832 -1.7206
  673TIP3    H226215   4.410   0.584   1.155  0.2609  0.7712  0.8766
  674TIP3   OH226216   1.895   3.203   7.782  0.0788  0.1306 -0.0576
  674TIP3    H126217   1.815   3.185   7.832 -0.8535  1.0926 -1.1629
  674TIP3    H226218   1.948   3.123   7.792 -0.8926 -0.4118  0.9154
  675TIP3   OH226219   4.445   6.949   0.400 -0.5238 -0.0683  0.4151
  675TIP3    H126220   4.534   6.914   0.393  0.1703  1.5584  0.7162
  675TIP3    H226221   4.401   6.918   0.321  1.2010  1.4762 -1.2596
  676TIP3   OH226222   0.082   5.582   8.010 -0.1606  0.4611 -0.0937
  676TIP3    H126223   0.062   5.558   8.101  0.3131  0.3417 -0.0196
  676TIP3    H226224   0.110   5.673   8.015 -1.2304  0.8209 -0.2783
  677TIP3   OH226225   1.933   1.969   2.908 -0.3220 -0.3734 -0.6925
  677TIP3    H126226   1.993   2.033   2.946  0.2863 -0.5395 -1.3381
  677TIP3    H226227   1.951   1.888   2.956 -0.7535 -0.1785 -0.1989
  678TIP3   OH226228   4.102   1.621   8.106  0.2253 -0.0560  0.1640
  678TIP3    H126229   4.141   1.534   8.115 -1.4602 -0.8836 -0.0136
  678TIP3    H226230   4.029   1.608   8.046  0.2234  1.6013 -0.2509
  679TIP3   OH226231   0.116   1.131   7.243 -0.0056  0.1992 -0.6202
  679TIP3    H126232   0.153   1.048   7.274 -0.8867  0.2138  0.5406
  679TIP3    H226233   0.187   1.194   7.255 -0.7539  0.5720  3.1708
  680TIP3   OH226234   0.872   3.580   1.319  0.0393  0.5554 -0.3645
  680TIP3    H126235   0.789   3.533   1.323  0.2240  0.2243 -0.4359
  680TIP3    H226236   0.858   3.656   1.376 -0.3071  0.4943 -0.3634
  681TIP3   OH226237   6.102   1.581   0.512  0.1164  0.1672  0.2764
  681TIP3    H126238   6.198   1.571   0.514  0.1230  0.2249  0.2338
  681TIP3    H226239   6.074   1.556   0.600  0.0353 -1.2255 -0.1321
  682TIP3   OH226240   3.168   6.624   1.890  0.2284  0.2610  0.0352
  682TIP3    H126241   3.177   6.669   1.806 -2.3334 -2.1788 -1.7270
  682TIP3    H226242   3.255   6.587   1.907  0.9407  1.2971 -1.2017
  683TIP3   OH226243   6.083   6.928   9.426 -0.2304  0.4765 -0.5882
  683TIP3    H126244   5.988   6.939   9.426 -0.2303  0.4960 -0.3326
  683TIP3    H226245   6.117   7.010   9.462 -0.2399 -0.3862  1.6035
  684TIP3   OH226246   2.584   3.849   1.627 -0.1823 -0.2892  0.0889
  684TIP3    H126247   2.645   3.878   1.558  0.7724 -0.3237  0.8860
  684TIP3    H226248   2.625   3.771   1.664  0.8380  1.3042  2.5827
  685TIP3   OH226249   1.770   7.405   2.774  0.0966  0.0708  0.3377
  685TIP3    H126250   1.833   7.423   2.844 -0.4473 -0.1514  0.8937
  685TIP3    H226251   1.686   7.434   2.810 -0.3773 -1.1117  0.2402
  686TIP3   OH226252   3.188   2.740   8.243 -0.1260  0.0156 -0.4659
  686TIP3    H126253   3.161   2.726   8.334  0.2726  3.6195  0.3865
  686TIP3    H226254   3.261   2.680   8.230  0.3065 -0.0706  1.8962
  687TIP3   OH226255   5.692   3.515   9.570 -0.1221 -0.3034  0.3499
  687TIP3    H126256   5.680   3.519   9.475 -1.0864  0.6737  0.4871
  687TIP3    H226257   5.655   3.597   9.602  1.9221  0.2679  1.4141
  688TIP3   OH226258   7.549   2.855   9.932 -0.7670  0.3974 -0.5385
  688TIP3    H126259   7.536   2.832   9.840 -1.2221  3.5485 -1.3819
  688TIP3    H226260   7.470   2.902   9.957  0.4040  1.9052  0.6115
  689TIP3   OH226261   1.618   6.745   1.723 -0.3483  0.2123 -0.1447
  689TIP3    H126262   1.561   6.822   1.732 -0.3984  0.4539 -2.1133
  689TIP3    H226263   1.690   6.776   1.667  1.3251 -0.3185  1.6056
  690TIP3   OH226264   0.887   0.625   2.028  0.1621 -0.0949 -0.0953
  690TIP3    H126265   0.901   0.553   2.090  0.6429 -0.0914 -0.1939
  690TIP3    H226266   0.924   0.593   1.946 -1.0566 -0.3541 -0.5612
  691TIP3   OH226267   3.398   0.233   6.603  0.0397 -0.2432 -0.1901
  691TIP3    H126268   3.358   0.319   6.598  0.5030  0.0058  0.3120
  691TIP3    H226269   3.486   0.245   6.568  0.3190 -0.3719  0.4518
  692TIP3   OH226270   2.441   0.054   1.532 -0.1550  0.2426  0.4444
  692TIP3    H126271   2.495   0.115   1.481  0.0260  0.4420  0.8716
  692TIP3    H226272   2.392   0.110   1.592 -0.1130 -0.0169  0.7229
  693TIP3   OH226273   5.525   0.341   7.162  0.0687  0.6066  0.2049
  693TIP3    H126274   5.480   0.263   7.129  1.9849 -0.2324 -0.5930
  693TIP3    H226275   5.468   0.413   7.138 -0.4922 -0.3425 -1.5057
  694TIP3   OH226276   0.237   6.585   8.493 -0.3366  0.0130 -0.2716
  694TIP3    H126277   0.172   6.556   8.557 -0.8131 -0.9986 -1.1906
  694TIP3    H226278   0.219   6.679   8.483 -1.0053 -0.0495  0.2150
  695TIP3   OH226279   0.792   5.287   0.503  0.1244  0.4075 -0.1907
  695TIP3    H126280   0.832   5.267   0.588 -0.7325 -1.1906 -0.1291
  695TIP3    H226281   0.840   5.363   0.471  1.6193 -0.0224  0.9404
  696TIP3   OH226282   1.762   4.696   8.488  0.2276  0.5405  0.2744
  696TIP3    H126283   1.667   4.691   8.493  0.1379  2.6515  2.1573
  696TIP3    H226284   1.791   4.689   8.579  2.1879 -3.1950 -0.3955
  697TIP3   OH226285   0.413   5.282   1.994  0.7191 -0.1600  0.0081
  697TIP3    H126286   0.453   5.261   2.079 -0.0332 -0.5532  0.2734
  697TIP3    H226287   0.432   5.375   1.982  0.9815 -0.1387  0.5314
  698TIP3   OH226288   6.696   2.405   1.875  0.2872  0.4253  0.4045
  698TIP3    H126289   6.748   2.350   1.934  1.1874  0.7306 -0.0887
  698TIP3    H226290   6.638   2.343   1.830  0.5460  0.0177  0.6253
  699TIP3   OH226291   6.118   6.038   0.909  0.0601  0.1222 -0.2350
  699TIP3    H126292   6.122   5.945   0.884 -0.6406 -0.3788  1.3823
  699TIP3    H226293   6.049   6.074   0.854 -1.5385 -0.9790  0.9446
  700TIP3   OH226294   2.648   5.744   1.026  0.1823  0.5446 -0.3432
  700TIP3    H126295   2.601   5.673   1.070 -0.1529 -1.2406 -3.3044
  700TIP3    H226296   2.593   5.821   1.038  0.4015  0.3530  2.7240
  701TIP3   OH226297   4.167   6.027   8.648  0.4725  0.6272 -0.1304
  701TIP3    H126298   4.215   5.945   8.634  2.0415  1.6652 -1.1536
  701TIP3    H226299   4.123   6.043   8.565 -1.7520 -0.3014  0.7938
  702TIP3   OH226300   5.778   5.838   8.829  0.4031 -0.3678  0.9756
  702TIP3    H126301   5.750   5.757   8.871 -0.7556 -0.2477  0.4604
  702TIP3    H226302   5.841   5.877   8.891  0.5697 -1.3858  1.4596
  703TIP3   OH226303   6.260   1.235   8.437 -0.4282  0.3539 -0.4384
  703TIP3    H126304   6.257   1.330   8.423 -0.9410  0.2852 -0.7891
  703TIP3    H226305   6.350   1.211   8.414  0.0471  0.9202  0.7337
  704TIP3   OH226306   3.514   2.566   9.829 -0.5184 -0.2594  0.1257
  704TIP3    H126307   3.523   2.475   9.856  0.0193  0.0814  1.1521
  704TIP3    H226308   3.420   2.580   9.820 -0.5875 -1.0020 -0.3751
  705TIP3   OH226309   6.975   4.541   7.613  0.2032 -0.0629  0.1515
  705TIP3    H126310   6.898   4.585   7.577 -0.4227 -1.2154  0.0408
  705TIP3    H226311   7.042   4.610   7.617 -0.8237  0.9636  0.2686
  706TIP3   OH226312   3.272   0.733   8.984 -0.0338  0.2603  1.1384
  706TIP3    H126313   3.357   0.699   9.012 -0.2648 -0.1048  1.4131
  706TIP3    H226314   3.223   0.743   9.065 -0.3901  0.0776  0.9476
  707TIP3   OH226315   6.422   0.197   9.247  0.4075 -0.4841 -1.2121
  707TIP3    H126316   6.502   0.184   9.298  0.3791 -0.2871 -1.1164
  707TIP3    H226317   6.445   0.265   9.184  0.1670 -0.0799 -0.8649
  708TIP3   OH226318   0.466   6.426   9.023 -0.5830  1.3894 -0.2546
  708TIP3    H126319   0.408   6.421   9.099 -1.8747  0.2361 -1.2706
  708TIP3    H226320   0.408   6.439   8.949  0.2656 -1.3531 -1.5200
  709TIP3   OH226321   5.072   1.509   1.793  0.4115  0.1523  0.0643
  709TIP3    H126322   5.130   1.464   1.855  1.7624  0.8100 -0.6855
  709TIP3    H226323   5.050   1.592   1.837  0.9585  0.3933 -0.1037
  710TIP3   OH226324   0.384   0.319   0.787 -0.0735 -0.3987  0.4673
  710TIP3    H126325   0.454   0.258   0.813  1.0451  1.1004  1.1210
  710TIP3    H226326   0.376   0.307   0.693 -0.4703 -2.1309  0.6771
  711TIP3   OH226327   7.065   0.735   8.974  0.3989 -0.4360 -0.1172
  711TIP3    H126328   7.040   0.813   9.023 -0.9187 -0.9745  0.1278
  711TIP3    H226329   7.030   0.750   8.886  0.8780 -0.3918 -0.3003
  712TIP3   OH226330   3.013   4.136   8.822  0.1512  0.5102  0.8765
  712TIP3    H126331   2.944   4.147   8.757 -0.3538  1.2699  1.5171
  712TIP3    H226332   2.980   4.068   8.880 -1.3204  2.6496  2.7132
  713TIP3   OH226333   2.913   6.513   9.232  0.3348  0.2302 -0.6258
  713TIP3    H126334   2.996   6.476   9.201  0.7849  1.5287 -1.0127
  713TIP3    H226335   2.932   6.604   9.251 -1.0800  0.6306 -0.9959
  714TIP3   OH226336   1.500   1.849   1.031  0.3382  0.8369  0.6539
  714TIP3    H126337   1.560   1.836   1.104  2.7618  0.1376 -1.3119
  714TIP3    H226338   1.414   1.823   1.065  1.6891 -1.3481  2.6696
  715TIP3   OH226339   6.790   0.812   8.790  0.7301 -0.3278  0.1942
  715TIP3    H126340   6.859   0.821   8.724  0.1080  0.3086 -0.3795
  715TIP3    H226341   6.808   0.882   8.852 -0.0686  0.6012 -0.5874
  716TIP3   OH226342   2.712   4.235   7.032  0.6745  0.6982  0.0166
  716TIP3    H126343   2.724   4.140   7.034  2.2278  0.8836  0.4729
  716TIP3    H226344   2.663   4.254   7.112  0.7279  0.3372  0.1387
  717TIP3   OH226345   2.406   0.016   0.292 -0.2066 -0.2978  1.0845
  717TIP3    H126346   2.319   0.038   0.325 -1.4944 -1.1686 -1.5004
  717TIP3    H226347   2.434  -0.058   0.346 -1.7309 -0.9657  1.0146
  718TIP3   OH226348   1.541   3.784   2.575 -0.1521 -0.2358  0.0655
  718TIP3    H126349   1.624   3.821   2.546 -1.4155  1.4777 -1.5776
  718TIP3    H226350   1.523   3.827   2.658 -0.1690  0.6008 -0.3676
  719TIP3   OH226351   1.972   4.005   7.634 -0.1186  0.5659 -0.5231
  719TIP3    H126352   1.956   3.973   7.723  0.0591  0.7099 -0.4392
  719TIP3    H226353   1.898   4.062   7.616 -0.6341 -0.1779 -0.8137
  720TIP3   OH226354   6.964   2.713   0.182 -0.3574 -0.0758 -0.1098
  720TIP3    H126355   7.031   2.731   0.248 -0.7923  1.8188 -0.1135
  720TIP3    H226356   6.990   2.631   0.142  1.2177 -0.0521  0.8097
  721TIP3   OH226357   2.808   5.176   7.650  0.4423 -0.1923  0.7802
  721TIP3    H126358   2.865   5.174   7.573 -0.3151  2.1057  0.0859
  721TIP3    H226359   2.729   5.130   7.622  0.4278  0.0620  0.3837
  722TIP3   OH226360   0.779   2.234   2.457 -0.5506  0.2561 -0.3078
  722TIP3    H126361   0.838   2.300   2.494 -2.7643  1.4021  1.4037
  722TIP3    H226362   0.790   2.243   2.363  3.0020 -0.5916 -0.1442
  723TIP3   OH226363   4.808   5.845   0.817 -0.2274 -0.2465 -0.5482
  723TIP3    H126364   4.780   5.928   0.857 -0.7442 -0.5708 -0.2261
  723TIP3    H226365   4.903   5.854   0.809 -0.2149  0.1680 -0.0258
  724TIP3   OH226366   6.607   3.606   1.772  0.3201 -0.1793 -0.8637
  724TIP3    H126367   6.598   3.651   1.688  0.1266  0.0454 -0.7234
  724TIP3    H226368   6.518   3.606   1.808  0.5791  0.5858 -0.2162
  725TIP3   OH226369   3.250   7.226   1.441 -0.2433  0.4320 -0.3360
  725TIP3    H126370   3.270   7.180   1.359  3.1869 -1.0559  1.1586
  725TIP3    H226371   3.242   7.157   1.506 -0.5285  1.7053  1.0409
  726TIP3   OH226372   3.486   2.037   7.824 -0.3282  0.4095 -0.2543
  726TIP3    H126373   3.466   2.086   7.744 -1.2858  0.6207  0.0999
  726TIP3    H226374   3.469   2.100   7.895 -0.2663 -0.0218  0.1460
  727TIP3   OH226375   2.924   4.206   8.372  0.2700  0.2371 -0.5037
  727TIP3    H126376   2.860   4.277   8.372 -0.2128 -0.1942  0.1024
  727TIP3    H226377   2.895   4.146   8.440  0.6950 -0.5381 -0.9820
  728TIP3   OH226378   6.178   6.216   9.963  0.3194  0.1837  0.4973
  728TIP3    H126379   6.083   6.225   9.967  0.2671 -0.0868 -0.1503
  728TIP3    H226380   6.207   6.233  10.053 -0.0531  3.4175  0.1029
  729TIP3   OH226381   7.091   2.325   9.465 -0.1742  0.0703  0.0300
  729TIP3    H126382   7.170   2.292   9.508  0.1202  0.4977 -0.1742
  729TIP3    H226383   7.047   2.246   9.433 -0.0794 -0.2074  0.5608
  730TIP3   OH226384   0.098   4.754   0.982  0.0198 -0.1771 -0.2344
  730TIP3    H126385   0.141   4.816   0.923  0.2692  0.2218  0.3546
  730TIP3    H226386   0.016   4.797   1.006  0.0594 -0.2022 -0.0528
  731TIP3   OH226387   2.522   6.075   8.183  0.6658  0.2622 -0.3824
  731TIP3    H126388   2.494   6.015   8.114  0.6974  1.0005 -1.0569
  731TIP3    H226389   2.441   6.118   8.211  0.6877  0.1372 -0.1254
  732TIP3   OH226390   2.889   2.498   8.956 -0.0121  0.4617  0.4343
  732TIP3    H126391   2.894   2.544   9.040  0.1014  0.6905  0.3017
  732TIP3    H226392   2.979   2.469   8.939  0.3791  2.1005 -0.5489
  733TIP3   OH226393   2.954   0.638   7.251 -0.1798  0.2327  0.3529
  733TIP3    H126394   2.891   0.643   7.322  0.1060 -0.3774  0.6560
  733TIP3    H226395   2.989   0.727   7.242  0.9962 -0.0121  2.0917
  734TIP3   OH226396   2.947   2.856   1.048  0.4775 -0.9148 -0.3858
  734TIP3    H126397   2.881   2.923   1.029 -0.5749 -1.6743  0.4651
  734TIP3    H226398   3.031   2.897   1.026 -0.3475 -0.3955 -2.8558
  735TIP3   OH226399   7.465   5.665   9.805  0.0047 -0.1502  0.3022
  735TIP3    H126400   7.463   5.698   9.716  1.3826  0.6507  0.5367
  735TIP3    H226401   7.502   5.577   9.797 -0.5288 -0.3550  0.0253
  736TIP3   OH226402   6.248   6.362   8.679 -0.7068 -0.0143  0.0432
  736TIP3    H126403   6.238   6.298   8.750  1.3188  0.9143  1.2610
  736TIP3    H226404   6.185   6.431   8.701 -2.0923 -1.0011 -0.6577
  737TIP3   OH226405   3.575   6.658   7.713  0.2268  0.3628  0.3047
  737TIP3    H126406   3.553   6.711   7.790 -2.3159  1.8103 -1.2774
  737TIP3    H226407   3.496   6.605   7.698  0.3289  0.7456 -1.7897
  738TIP3   OH226408   2.790   5.329   6.870 -0.2737  0.7544  0.0205
  738TIP3    H126409   2.721   5.285   6.821 -1.4929 -1.1945  3.2348
  738TIP3    H226410   2.857   5.262   6.884 -0.0671  1.1744  1.1816
  739TIP3   OH226411   4.383   2.318   9.137  0.2491  0.3873 -0.2850
  739TIP3    H126412   4.337   2.383   9.190  0.5910  0.2602  0.1771
  739TIP3    H226413   4.318   2.251   9.119  0.2783  0.1440  0.4717
  740TIP3   OH226414   6.949   5.571   9.774 -0.3326  0.7300  0.3616
  740TIP3    H126415   6.933   5.511   9.702 -0.3358  0.9952  0.1391
  740TIP3    H226416   7.013   5.526   9.830 -0.2928  0.5465  0.1662
  741TIP3   OH226417   6.579   3.815   7.718 -0.3683 -0.3071 -0.1236
  741TIP3    H126418   6.497   3.811   7.667 -0.9317  3.3533  0.1807
  741TIP3    H226419   6.619   3.898   7.691  0.9919  0.1576  2.9516
  742TIP3   OH226420   1.376   3.099   8.583  0.0786  0.2869 -0.6341
  742TIP3    H126421   1.472   3.103   8.576  0.0192  1.2534 -1.0987
  742TIP3    H226422   1.345   3.172   8.528 -0.8608  1.0008  0.7854
  743TIP3   OH226423   6.641   0.922   8.093 -0.2074 -0.9273  0.3793
  743TIP3    H126424   6.719   0.940   8.146 -1.0828  1.0969  1.1049
  743TIP3    H226425   6.637   0.996   8.032 -0.8733 -1.6711 -0.5019
  744TIP3   OH226426   2.072   3.415   8.806  0.1698 -0.2213  0.1904
  744TIP3    H126427   2.124   3.392   8.883  0.2644 -1.2105 -0.1595
  744TIP3    H226428   1.989   3.369   8.819  0.4931 -1.0667 -0.6985
  745TIP3   OH226429   3.080   6.141   7.413  0.5763  0.6251  0.1231
  745TIP3    H126430   3.139   6.141   7.338  2.8627 -0.4967  1.7802
  745TIP3    H226431   3.028   6.061   7.402  0.6089  0.6812 -0.4649
  746TIP3   OH226432   5.818   5.854   7.748 -0.2461 -0.2936  0.3895
  746TIP3    H126433   5.800   5.775   7.697  0.0160  0.1026 -0.3246
  746TIP3    H226434   5.752   5.853   7.817 -0.2009 -1.1762  0.4358
  747TIP3   OH226435   0.174   2.536   0.571  0.2258  0.2070 -0.1737
  747TIP3    H126436   0.199   2.525   0.663  1.5722  0.1729 -0.5219
  747TIP3    H226437   0.220   2.466   0.525  0.2402  0.7356 -0.9920
  748TIP3   OH226438   4.313   7.002   8.556 -0.1558 -0.3537  0.2442
  748TIP3    H126439   4.222   6.973   8.551  0.0533 -1.3592  1.6610
  748TIP3    H226440   4.333   7.003   8.650  1.2807 -0.1154 -0.0420
  749TIP3   OH226441   1.211   1.410   0.661  0.4004  0.5609 -0.4424
  749TIP3    H126442   1.244   1.374   0.744 -0.1483  1.0496 -0.0084
  749TIP3    H226443   1.171   1.335   0.617 -0.3170  0.5234  0.2486
  750TIP3   OH226444   1.422   5.572   8.233 -0.5359  0.4441 -0.1945
  750TIP3    H126445   1.327   5.576   8.228 -0.5233  0.5395 -0.3715
  750TIP3    H226446   1.444   5.625   8.310 -0.6340  0.2964 -0.0632
  751TIP3   OH226447   5.160   5.581   1.278 -0.3066 -0.3781  0.3023
  751TIP3    H126448   5.182   5.640   1.350 -0.4349  0.2097 -0.1419
  751TIP3    H226449   5.224   5.601   1.210 -0.0196 -1.1146  0.3403
  752TIP3   OH226450   3.548   0.308   1.404  0.0542  0.5984  0.2121
  752TIP3    H126451   3.589   0.281   1.486  0.9732 -1.7796 -0.9361
  752TIP3    H226452   3.621   0.345   1.353  0.4005 -1.5570 -0.9696
  753TIP3   OH226453   2.544   2.532   7.262 -0.2577 -0.7914  0.3469
  753TIP3    H126454   2.507   2.447   7.238  2.2479 -1.7603 -0.3605
  753TIP3    H226455   2.523   2.589   7.187 -3.3516 -0.2178  1.5082
  754TIP3   OH226456   2.603   4.342   7.274  0.4493 -0.1530  0.3654
  754TIP3    H126457   2.549   4.416   7.299 -1.7225 -1.3314 -0.5328
  754TIP3    H226458   2.644   4.312   7.355 -0.5640  0.5561  1.1505
  755TIP3   OH226459   5.535   7.110   0.059 -0.4031  0.4031  0.3205
  755TIP3    H126460   5.503   7.161  -0.015  2.3153  0.5912 -0.8329
  755TIP3    H226461   5.529   7.019   0.030  2.7716  0.5400 -1.2439
  756TIP3   OH226462   0.043   2.965   9.211 -0.0512  0.0607 -0.5988
  756TIP3    H126463   0.117   2.999   9.161  0.2004 -0.7910 -0.8181
  756TIP3    H226464  -0.032   2.976   9.153  0.5371 -2.7433 -2.0288
  757TIP3   OH226465   5.551   7.501   2.209 -0.1296  0.4809 -0.3529
  757TIP3    H126466   5.512   7.507   2.122  2.2668 -0.0119 -1.5519
  757TIP3    H226467   5.540   7.409   2.235 -1.0282  0.6732  0.0043
  758TIP3   OH226468   2.639   1.668   0.915  0.2717 -0.0883 -0.2894
  758TIP3    H126469   2.654   1.678   0.821  2.2058  1.1623  0.0990
  758TIP3    H226470   2.553   1.707   0.930 -0.0490 -0.2735 -1.5179
  759TIP3   OH226471   5.794   4.529   9.557  0.0177  0.0164  0.3942
  759TIP3    H126472   5.773   4.574   9.476 -2.0037  0.5729  1.1773
  759TIP3    H226473   5.803   4.599   9.622 -1.1612 -0.5503  1.2075
  760TIP3   OH226474   3.604   4.134   7.849  0.2014  0.5466  0.0961
  760TIP3    H126475   3.635   4.113   7.937 -0.0422 -0.7143 -0.0845
  760TIP3    H226476   3.634   4.060   7.795  0.2903  1.2649 -0.8605
  761TIP3   OH226477   4.719   0.210   0.126  0.0475 -0.5891  0.4546
  761TIP3    H126478   4.759   0.291   0.096 -1.6178  1.0214  2.3288
  761TIP3    H226479   4.758   0.195   0.212 -0.7492 -0.9568  0.7553
  762TIP3   OH226480   2.313   2.037   9.154 -0.0574 -0.1948 -0.3845
  762TIP3    H126481   2.253   1.964   9.137 -0.7755  0.1993  0.4026
  762TIP3    H226482   2.336   2.029   9.246 -0.9980  1.1764  0.0007
  763TIP3   OH226483   1.671   7.118   1.439  0.2108  0.2933 -0.0374
  763TIP3    H126484   1.657   7.131   1.345  1.7968  1.7290 -0.1412
  763TIP3    H226485   1.586   7.091   1.473 -0.5477  0.3407 -1.7904
  764TIP3   OH226486   0.286   4.163   2.449  0.2012  0.3551 -0.1695
  764TIP3    H126487   0.192   4.167   2.468  0.2610 -1.6950  0.8193
  764TIP3    H226488   0.296   4.088   2.390  1.4314 -1.0191  1.6754
  765TIP3   OH226489   6.728   6.961   8.684  0.7755 -0.5545  0.3284
  765TIP3    H126490   6.806   6.961   8.628  0.6956 -3.1098  0.0649
  765TIP3    H226491   6.668   6.900   8.640 -0.4089 -0.4550  1.7518
  766TIP3   OH226492   2.404   3.940   0.466 -0.7011  0.1059  0.0303
  766TIP3    H126493   2.357   3.916   0.546  1.0124 -2.0192  0.4901
  766TIP3    H226494   2.481   3.883   0.465 -0.1971  0.6858 -2.6952
  767TIP3   OH226495   4.866   2.228   1.460 -0.6446 -0.3925  0.0711
  767TIP3    H126496   4.911   2.215   1.376 -1.2582 -1.9299 -0.0561
  767TIP3    H226497   4.800   2.295   1.441  1.8869  2.3914  0.4254
  768TIP3   OH226498   2.433   0.021   8.655 -0.0939 -0.0586 -0.0442
  768TIP3    H126499   2.477   0.098   8.620  0.2688  0.4388  1.4211
  768TIP3    H226500   2.502  -0.046   8.659 -0.2647 -0.2856 -0.7522
  769TIP3   OH226501   2.420   6.188   7.314 -0.0253 -0.0376  0.5171
  769TIP3    H126502   2.469   6.244   7.254 -2.3777  0.6168 -0.9044
  769TIP3    H226503   2.394   6.246   7.385 -2.1186  0.6514 -0.7552
  770TIP3   OH226504   1.062   2.176   7.827  0.2497 -0.4179 -0.0240
  770TIP3    H126505   0.992   2.238   7.847 -0.9432 -0.1972 -4.0483
  770TIP3    H226506   1.142   2.220   7.854 -0.6502  2.4661 -1.6427
  771TIP3   OH226507   2.920   4.116   2.005  0.0852 -0.1256  0.2401
  771TIP3    H126508   2.837   4.162   1.991 -0.0229 -0.6925 -1.1663
  771TIP3    H226509   2.981   4.185   2.029 -0.8701  0.2417  1.8169
  772TIP3   OH226510   2.690   5.533   7.620 -0.5082  0.1670  0.3536
  772TIP3    H126511   2.645   5.586   7.554 -3.2753  0.0657  2.0158
  772TIP3    H226512   2.639   5.452   7.625 -0.5461  0.2749  2.7714
  773TIP3   OH226513   5.787   4.423   8.504 -0.0296  0.1547 -0.3758
  773TIP3    H126514   5.717   4.370   8.467 -0.8173 -0.5687  1.9338
  773TIP3    H226515   5.836   4.455   8.429 -2.1838 -0.2154 -2.0223
  774TIP3   OH226516   7.040   3.078   9.397  0.0776  0.4278  0.1308
  774TIP3    H126517   7.036   3.174   9.398 -0.0479  0.4292 -0.3370
  774TIP3    H226518   6.949   3.050   9.392  0.0381  0.2601  1.5306
  775TIP3   OH226519   5.084   7.355   1.937  0.3153  1.0798 -0.2181
  775TIP3    H126520   4.989   7.358   1.933  0.2688 -0.3100 -0.7525
  775TIP3    H226521   5.109   7.435   1.983 -1.1196  1.2840  0.2475
  776TIP3   OH226522   2.258   3.045   8.811 -0.3920 -0.6529  0.3003
  776TIP3    H126523   2.314   2.979   8.853  3.9725  1.3050 -1.7287
  776TIP3    H226524   2.266   3.122   8.868  0.1235  0.0378 -0.6744
  777TIP3   OH226525   7.049   2.432   1.403  0.4120 -0.2204  0.0832
  777TIP3    H126526   7.111   2.379   1.453  0.7916  1.0504  1.0263
  777TIP3    H226527   6.986   2.369   1.368  1.9359 -1.4914 -0.4910
  778TIP3   OH226528   2.826   4.504   1.988 -0.2751 -0.3365  0.5727
  778TIP3    H126529   2.815   4.449   1.911  0.5582 -2.1318  1.6515
  778TIP3    H226530   2.742   4.500   2.033 -0.2132 -0.8131  0.6599
  779TIP3   OH226531   1.267   1.683   1.113  0.4223  0.0898 -0.3260
  779TIP3    H126532   1.175   1.683   1.084  0.3906 -0.8733 -0.2837
  779TIP3    H226533   1.272   1.609   1.174  0.9501  0.8840  0.6082
  780TIP3   OH226534   7.646   1.470   2.332 -0.0573  0.5523  0.2365
  780TIP3    H126535   7.625   1.443   2.422 -0.5934  0.1931  0.0110
  780TIP3    H226536   7.688   1.555   2.341 -0.8998  0.9209  0.7689
  781TIP3   OH226537   5.487   7.218   9.042 -0.0041  0.3483 -0.6596
  781TIP3    H126538   5.489   7.128   9.009  0.8427  0.1888 -0.2025
  781TIP3    H226539   5.451   7.270   8.970 -0.6852 -0.3821 -0.8610
  782TIP3   OH226540   3.184   2.033   0.638  0.0286 -0.2586  0.0170
  782TIP3    H126541   3.257   1.984   0.600 -0.1928 -0.0818 -0.6409
  782TIP3    H226542   3.225   2.104   0.687  0.3022 -0.3132 -0.1321
  783TIP3   OH226543   5.865   1.438   0.414 -0.4739  0.0619  0.2997
  783TIP3    H126544   5.880   1.434   0.508 -1.8306  1.0340  0.5878
  783TIP3    H226545   5.952   1.452   0.376  0.0456 -0.0403  1.4202
  784TIP3   OH226546   7.425   2.773   1.160 -0.5664 -0.5886 -0.1349
  784TIP3    H126547   7.398   2.684   1.183 -2.8106  0.5755  2.2858
  784TIP3    H226548   7.477   2.802   1.235 -1.5086  0.7524  0.0369
  785TIP3   OH226549   6.071   2.312   7.725 -0.5236 -0.4018  0.6998
  785TIP3    H126550   5.989   2.338   7.767  0.1247  0.9100  1.2173
  785TIP3    H226551   6.095   2.387   7.670 -0.7692 -1.6334 -1.1604
  786TIP3   OH226552   0.595   0.897   9.317 -0.1732 -0.0492 -0.0530
  786TIP3    H126553   0.611   0.929   9.405  0.1483  0.6567 -0.3539
  786TIP3    H226554   0.560   0.973   9.270 -0.5011 -0.4608 -0.4908
  787TIP3   OH226555   0.781   2.368   0.386  0.5536  0.0454 -0.0459
  787TIP3    H126556   0.835   2.370   0.465  0.5593 -1.3541  0.0031
  787TIP3    H226557   0.804   2.449   0.340  1.5422  0.2261  0.7170
  788TIP3   OH226558   3.613   3.180   7.693 -0.5924 -0.2710 -0.1334
  788TIP3    H126559   3.663   3.221   7.623 -1.2516 -0.8596 -0.9711
  788TIP3    H226560   3.599   3.250   7.757  0.3919  0.1581 -0.3677
  789TIP3   OH226561   3.480   3.160   0.912 -0.0967  0.0420  0.0631
  789TIP3    H126562   3.439   3.200   0.836 -1.9632 -1.8268  0.0024
  789TIP3    H226563   3.574   3.157   0.891 -0.5277 -0.0886 -2.0049
  790TIP3   OH226564   2.398   2.238   1.702 -0.0272  0.0327  0.1809
  790TIP3    H126565   2.480   2.286   1.691  0.2282 -0.5648 -0.5900
  790TIP3    H226566   2.425   2.147   1.713 -0.5542 -0.0703  0.6099
  791TIP3   OH226567   0.692   1.849   2.294  0.5315 -0.0406  0.1363
  791TIP3    H126568   0.655   1.914   2.353 -0.2839  1.3473 -1.7814
  791TIP3    H226569   0.621   1.787   2.277 -0.3629  1.4239 -1.8735
  792TIP3   OH226570   4.097   2.454   8.874 -0.3344  0.0475 -0.2497
  792TIP3    H126571   4.184   2.438   8.837  0.1368 -1.6037  1.4203
  792TIP3    H226572   4.093   2.549   8.883  0.8233  0.2418 -1.4113
  793TIP3   OH226573   5.658   2.267   0.911 -0.3434  0.2261  0.3471
  793TIP3    H126574   5.694   2.342   0.865  1.4617 -0.3840  0.6906
  793TIP3    H226575   5.651   2.199   0.844  0.8872 -0.2038  0.6275
  794TIP3   OH226576   5.928   1.119   8.377 -0.2388  0.0908 -0.1633
  794TIP3    H126577   6.006   1.089   8.329  0.1670 -1.1101  1.1800
  794TIP3    H226578   5.937   1.215   8.379  0.8941  0.0077 -0.5388
  795TIP3   OH226579   4.245   1.567   0.381 -0.4828  0.3706  0.3597
  795TIP3    H126580   4.258   1.521   0.464 -0.6778 -0.3423  0.0026
  795TIP3    H226581   4.281   1.655   0.396  0.3573 -0.0533  0.8960
  796TIP3   OH226582   3.626   1.255   8.141  1.0756 -0.5957 -0.5133
  796TIP3    H126583   3.548   1.302   8.112  1.9364  0.0930 -1.8378
  796TIP3    H226584   3.606   1.163   8.124 -0.0687 -0.6060  0.7470
  797TIP3   OH226585   3.360   6.869   8.861 -0.2107 -0.2166  0.3264
  797TIP3    H126586   3.342   6.948   8.911  0.4676  1.2235 -1.5761
  797TIP3    H226587   3.275   6.825   8.854 -1.1580  1.6431 -0.6506
  798TIP3   OH226588   7.391   0.581   9.556 -0.0344 -0.5653 -0.2255
  798TIP3    H126589   7.319   0.567   9.495 -0.3530 -2.8611  0.5713
  798TIP3    H226590   7.350   0.625   9.631 -0.3905 -0.9626 -0.1848
  799TIP3   OH226591   2.120   1.766   2.278  0.5433  0.1632  0.1524
  799TIP3    H126592   2.127   1.748   2.184 -0.0979  0.1389  0.1034
  799TIP3    H226593   2.194   1.823   2.297 -0.6180  2.1291 -0.8511
  800TIP3   OH226594   6.222   3.184   8.289  0.1459 -0.2564  0.5886
  800TIP3    H126595   6.287   3.117   8.268 -0.5969 -0.3973 -1.4554
  800TIP3    H226596   6.263   3.266   8.265  0.2903 -0.1473  1.1812
  801TIP3   OH226597   0.346   3.950   2.275 -0.1480 -0.1241 -0.5418
  801TIP3    H126598   0.404   3.908   2.211 -0.7059  0.8974 -1.7536
  801TIP3    H226599   0.296   3.877   2.312  0.2304 -0.7503 -1.2191
  802TIP3   OH226600   0.656   2.289   7.493 -0.4823 -0.4531 -0.6989
  802TIP3    H126601   0.597   2.213   7.489 -2.2171  0.8010 -0.2681
  802TIP3    H226602   0.668   2.314   7.401  0.0931 -1.2362 -0.8423
  803TIP3   OH226603   2.554   0.549   9.698  0.2212  0.6411  0.3135
  803TIP3    H126604   2.618   0.555   9.627  0.7502  0.1882  0.7388
  803TIP3    H226605   2.469   0.556   9.655  0.5522  2.7833 -0.0999
  804TIP3   OH226606   1.706   4.199   6.920 -0.1108  0.0563 -0.2707
  804TIP3    H126607   1.794   4.229   6.895  0.3438 -0.7512  0.3022
  804TIP3    H226608   1.664   4.177   6.837 -0.0264  1.0932 -0.6050
  805TIP3   OH226609   3.129   6.341   9.545 -0.1925 -0.6698  0.0924
  805TIP3    H126610   3.208   6.287   9.533  1.1524  1.2196  0.1083
  805TIP3    H226611   3.158   6.415   9.597 -1.5065  1.1025 -1.5795
  806TIP3   OH226612   4.033   2.145   7.366 -0.8865  0.7150 -0.0270
  806TIP3    H126613   4.111   2.146   7.422 -0.3755 -0.8519 -0.6636
  806TIP3    H226614   3.974   2.083   7.408 -0.7086 -0.0824 -0.9273
  807TIP3   OH226615   0.131   6.204   0.285  0.3163  0.2456 -0.2569
  807TIP3    H126616   0.069   6.238   0.350  1.8686  1.2747  0.7508
  807TIP3    H226617   0.215   6.204   0.330  1.5380  1.3925 -2.3916
  808TIP3   OH226618   0.755   7.408   1.698 -0.6163 -0.8785 -0.4264
  808TIP3    H126619   0.776   7.406   1.604  0.0868 -1.3087 -0.2681
  808TIP3    H226620   0.705   7.488   1.709  0.1273 -0.3081 -1.0076
  809TIP3   OH226621   6.360   2.661   9.707  0.2679 -0.0551 -0.3704
  809TIP3    H126622   6.385   2.579   9.663 -0.0483 -0.5424  0.3346
  809TIP3    H226623   6.332   2.633   9.794  3.6149  1.1276  1.2699
  810TIP3   OH226624   4.783   4.127   0.124 -0.3700  0.0469 -0.1641
  810TIP3    H126625   4.843   4.070   0.171 -0.8375 -0.8817 -0.6743
  810TIP3    H226626   4.839   4.196   0.089  0.3226 -0.5185 -0.1937
  811TIP3   OH226627   1.181   6.934   0.992  0.0569 -0.6853  1.0649
  811TIP3    H126628   1.154   6.851   0.953 -1.6184  0.8124 -1.2510
  811TIP3    H226629   1.141   6.934   1.079  1.7798 -3.0830  1.9604
  812TIP3   OH226630   3.396   6.495   1.943 -0.0650 -0.2774 -0.2132
  812TIP3    H126631   3.380   6.402   1.956 -0.1944 -0.4874 -1.7344
  812TIP3    H226632   3.485   6.500   1.909 -0.3803  0.0603 -1.0130
  813TIP3   OH226633   3.981   3.487   9.195  0.5375  0.0392 -0.4303
  813TIP3    H126634   4.064   3.439   9.201  0.7422  0.4880  0.6171
  813TIP3    H226635   3.931   3.441   9.127  1.0937 -1.0900 -0.1010
  814TIP3   OH226636   1.599   0.217   7.026  0.1631  0.7935  0.0308
  814TIP3    H126637   1.511   0.240   6.997  0.3618  1.1622 -0.2883
  814TIP3    H226638   1.626   0.147   6.966  0.3450  1.1486 -0.3096
  815TIP3   OH226639   0.622   2.491   1.830  0.6304  0.1074 -0.2761
  815TIP3    H126640   0.701   2.446   1.859  0.1631 -0.8114 -0.3840
  815TIP3    H226641   0.567   2.497   1.908  1.1531  1.5152 -0.0055
  816TIP3   OH226642   0.062   4.490   0.893  0.4639  0.2162  0.5272
  816TIP3    H126643   0.112   4.570   0.908  0.2904  0.8937 -1.9563
  816TIP3    H226644   0.116   4.439   0.832 -1.6479  0.8829 -2.0892
  817TIP3   OH226645   2.191   3.442   1.411  0.1699  0.4370 -0.3498
  817TIP3    H126646   2.190   3.374   1.479  1.6379 -0.9572 -1.6466
  817TIP3    H226647   2.108   3.429   1.365  0.4066 -0.4637 -0.5463
  818TIP3   OH226648   2.212   3.295   0.113  0.2122 -0.0838 -0.2516
  818TIP3    H126649   2.213   3.263   0.023  0.3696  0.7518 -0.5485
  818TIP3    H226650   2.303   3.293   0.140  0.2679  0.4692 -0.3971
  819TIP3   OH226651   2.707   4.620   9.539 -0.1530  0.2261 -0.1918
  819TIP3    H126652   2.754   4.559   9.596 -0.0938 -0.6537 -1.1527
  819TIP3    H226653   2.776   4.662   9.488 -0.3060 -0.0485 -0.6265
  820TIP3   OH226654   0.804   2.664   0.890  0.6126  0.0439  0.8755
  820TIP3    H126655   0.730   2.719   0.863 -0.0270 -0.5016  1.4790
  820TIP3    H226656   0.764   2.595   0.942  1.3794 -1.1363 -0.0638
  821TIP3   OH226657   7.091   7.421   7.519  0.0820 -0.2051 -0.5543
  821TIP3    H126658   7.020   7.357   7.531 -1.2682  1.3005 -0.2174
  821TIP3    H226659   7.155   7.375   7.465 -0.6759 -1.9622 -0.0498
  822TIP3   OH226660   5.761   0.422   9.065 -0.3373  0.0470 -0.6447
  822TIP3    H126661   5.837   0.469   9.101 -0.7834 -0.4139  0.9720
  822TIP3    H226662   5.736   0.473   8.988 -0.6066  2.3357  0.8544
  823TIP3   OH226663   6.501   5.213   1.629  0.4189 -0.1197  0.4133
  823TIP3    H126664   6.553   5.140   1.664 -1.6135 -0.1359  3.9028
  823TIP3    H226665   6.416   5.203   1.671 -1.3603  1.8430 -2.4123
  824TIP3   OH226666   5.702   5.998   0.331  0.0109  0.0468 -0.2116
  824TIP3    H126667   5.762   5.924   0.342  0.3377  0.6022  2.7056
  824TIP3    H226668   5.741   6.050   0.261  0.3657 -1.9365 -1.5527
  825TIP3   OH226669   4.323   4.537   7.778 -0.3135 -0.2378 -0.1954
  825TIP3    H126670   4.315   4.444   7.800  0.8180 -0.7298 -1.7041
  825TIP3    H226671   4.233   4.564   7.756 -0.9991 -0.4085  2.1475
  826TIP3   OH226672   0.489   6.578   2.301 -0.5643  0.2355 -0.3313
  826TIP3    H126673   0.417   6.612   2.249 -1.8805 -0.3025  1.0784
  826TIP3    H226674   0.488   6.484   2.286 -0.5959  0.1429  0.2124
  827TIP3   OH226675   4.039   2.083   1.375  0.4844 -0.1064 -0.7165
  827TIP3    H126676   4.031   2.120   1.463  0.0124 -1.3639 -0.2093
  827TIP3    H226677   4.023   2.158   1.317 -2.3679  0.1818  0.2501
  828TIP3   OH226678   6.707   3.733   0.075  0.2707  0.0899 -0.6386
  828TIP3    H126679   6.717   3.737  -0.020 -1.0583 -2.0472 -0.9321
  828TIP3    H226680   6.697   3.640   0.094  0.0895  0.5132  1.5624
  829TIP3   OH226681   1.099   6.995   0.634 -0.4162 -0.0383 -0.1301
  829TIP3    H126682   1.017   6.967   0.674 -0.2786 -0.4673 -0.1399
  829TIP3    H226683   1.132   7.064   0.692 -0.1353 -0.7656  0.5953
  830TIP3   OH226684   3.760   5.881   1.161  0.7361  0.3607 -0.2328
  830TIP3    H126685   3.690   5.870   1.226  1.0969  0.1089  0.1200
  830TIP3    H226686   3.749   5.971   1.130  1.2621  0.8920  1.0328
  831TIP3   OH226687   3.767   6.542   7.555 -0.5076  0.9538  0.3410
  831TIP3    H126688   3.705   6.554   7.484  0.8460  0.2246 -1.0254
  831TIP3    H226689   3.713   6.545   7.635 -2.2139  0.7713 -0.7491
  832TIP3   OH226690   0.044   1.164   1.440 -0.5834 -0.0861  0.2522
  832TIP3    H126691   0.083   1.089   1.484 -2.1084 -0.7164  0.6088
  832TIP3    H226692   0.108   1.190   1.374  1.0596 -0.1243  1.7625
  833TIP3   OH226693   1.971   1.112   0.583  0.1718  0.0522 -0.1210
  833TIP3    H126694   1.951   1.088   0.673 -0.7840 -0.4006 -0.4396
  833TIP3    H226695   2.066   1.121   0.581  0.2307 -0.2507  0.8561
  834TIP3   OH226696   3.075   3.956   0.633 -0.3587 -0.5034 -0.0443
  834TIP3    H126697   3.087   4.016   0.560 -0.7596 -1.0328 -0.5534
  834TIP3    H226698   3.007   3.996   0.686 -1.5326 -1.1028 -1.0478
  835TIP3   OH226699   6.785   0.262   9.805  0.3713 -0.0303 -0.1068
  835TIP3    H126700   6.695   0.293   9.813  1.5803  3.5729  2.2404
  835TIP3    H226701   6.794   0.194   9.871  0.1860  2.2038  2.3661
  836TIP3   OH226702   1.121   4.496   1.382  0.4745  0.1359 -0.7112
  836TIP3    H126703   1.131   4.535   1.469  2.7186 -1.7127 -0.0217
  836TIP3    H226704   1.050   4.545   1.341 -1.5746  0.2395  2.6124
  837TIP3   OH226705   2.696   6.608   9.576  0.1498  0.1426 -0.2865
  837TIP3    H126706   2.763   6.676   9.571 -1.1316  1.5769  0.8413
  837TIP3    H226707   2.721   6.544   9.509  3.4160 -0.1584  1.0297
  838TIP3   OH226708   2.123   0.543   2.616 -0.2976  0.0543 -0.0243
  838TIP3    H126709   2.051   0.485   2.641 -0.0770 -0.1095  0.2263
  838TIP3    H226710   2.090   0.590   2.539 -0.4141 -0.5140 -0.3225
  839TIP3   OH226711   3.284   4.117   8.753 -0.0601 -0.5093  0.1267
  839TIP3    H126712   3.273   4.025   8.779 -0.7040 -0.7939 -1.0931
  839TIP3    H226713   3.201   4.159   8.778  0.4967 -0.0754  1.3343
  840TIP3   OH226714   7.499   0.201   1.431 -0.1515  0.3746 -0.2562
  840TIP3    H126715   7.496   0.173   1.339  1.3924  1.3103 -0.6235
  840TIP3    H226716   7.510   0.119   1.480 -1.2373 -0.1576 -0.8689
  841TIP3   OH226717   3.654   0.863   1.552 -0.1372  0.0043 -0.1974
  841TIP3    H126718   3.584   0.873   1.487  0.2518 -2.7497 -1.1424
  841TIP3    H226719   3.633   0.783   1.599  1.6002 -0.0818  0.5213
  842TIP3   OH226720   0.416   4.247   8.607 -0.0712 -0.2746 -0.3365
  842TIP3    H126721   0.430   4.326   8.659  1.1925 -0.9837  0.4615
  842TIP3    H226722   0.438   4.175   8.667 -1.6685 -1.2640 -0.8916
  843TIP3   OH226723   2.126   1.057   7.995 -0.1099 -0.2850 -0.1788
  843TIP3    H126724   2.097   1.059   8.086 -1.2049 -0.9757 -0.4935
  843TIP3    H226725   2.046   1.062   7.943  0.3872 -1.3211 -1.0985
  844TIP3   OH226726   0.483   4.427   1.683 -0.1782 -0.5935 -0.2884
  844TIP3    H126727   0.550   4.479   1.728 -1.0200 -0.2735  0.6173
  844TIP3    H226728   0.454   4.482   1.611 -0.1237 -0.3526 -0.1266
  845TIP3   OH226729   6.141   6.359   0.658  0.2518  0.3867 -0.3509
  845TIP3    H126730   6.138   6.451   0.686 -2.0036  0.1797  0.2355
  845TIP3    H226731   6.162   6.364   0.564  2.3260  1.3498  0.0970
  846TIP3   OH226732   4.374   7.511   0.484 -0.2124  0.5129  0.4785
  846TIP3    H126733   4.431   7.550   0.417 -0.1005 -0.5671 -0.0800
  846TIP3    H226734   4.395   7.559   0.564 -0.1626  1.6583 -0.1967
  847TIP3   OH226735   3.666   5.998   0.409  0.3143 -0.7070  0.0271
  847TIP3    H126736   3.756   5.974   0.432  0.0562 -2.2105 -0.4275
  847TIP3    H226737   3.638   5.929   0.349 -0.8663  0.2031 -0.4938
  848TIP3   OH226738   2.470   3.086   7.264  0.7210  0.0715 -0.3740
  848TIP3    H126739   2.407   3.138   7.216  0.6492  1.1964  0.8604
  848TIP3    H226740   2.548   3.141   7.269  0.7999 -0.0958  0.5752
  849TIP3   OH226741   3.177   1.199   2.119 -0.0948 -0.2256  0.1077
  849TIP3    H126742   3.266   1.187   2.152  0.5364  0.1657 -1.3776
  849TIP3    H226743   3.154   1.116   2.077  0.1410  0.1538 -0.7856
  850TIP3   OH226744   6.122   2.217   2.047 -0.0428  0.0480 -0.3808
  850TIP3    H126745   6.089   2.306   2.035  0.7291  0.5958  1.2604
  850TIP3    H226746   6.046   2.167   2.078  0.1977  0.9537  1.9140
  851TIP3   OH226747   6.200   0.604   9.290  0.2173 -0.3632  0.2532
  851TIP3    H126748   6.223   0.535   9.228 -0.9109  0.2164 -0.8709
  851TIP3    H226749   6.277   0.614   9.346  0.9310 -1.5265 -0.4939
  852TIP3   OH226750   6.339   1.499   8.417 -0.2307  0.0563  0.0701
  852TIP3    H126751   6.292   1.577   8.389  1.0098  0.4398 -1.0800
  852TIP3    H226752   6.392   1.528   8.491 -0.5834  0.0293  0.3336
  853TIP3   OH226753   1.947   1.837   7.522  0.3537 -0.9724 -0.9371
  853TIP3    H126754   1.998   1.899   7.469  0.3142  0.1349  0.2739
  853TIP3    H226755   1.857   1.847   7.492  0.0122  1.0703  0.5797
  854TIP3   OH226756   0.824   6.619   2.359 -0.1651 -0.2961 -0.2053
  854TIP3    H126757   0.883   6.604   2.285  0.6603  4.0323 -0.7187
  854TIP3    H226758   0.872   6.588   2.435  0.3903 -1.7496 -1.1005
  855TIP3   OH226759   0.159   2.308   8.021  0.6606 -0.0889 -0.1447
  855TIP3    H126760   0.184   2.228   7.976  0.5317 -0.0877 -0.2204
  855TIP3    H226761   0.074   2.332   7.983  1.5914  1.1752 -1.5637
  856TIP3   OH226762   7.040   3.873   7.700 -0.5646 -0.3184 -0.0307
  856TIP3    H126763   7.129   3.899   7.675  0.1985 -2.7039 -0.0711
  856TIP3    H226764   6.983   3.913   7.634  0.1480  3.0426  1.1671
  857TIP3   OH226765   7.577   4.011   9.349  0.7588 -0.1057  0.1582
  857TIP3    H126766   7.594   4.086   9.406 -1.4630  1.0424 -0.5762
  857TIP3    H226767   7.660   3.997   9.302  1.1128  2.1461  0.0349
  858TIP3   OH226768   1.952   4.129   7.286  0.3113  0.5148 -0.2026
  858TIP3    H126769   1.981   4.188   7.216 -1.0778 -0.3100 -1.5337
  858TIP3    H226770   1.858   4.117   7.269 -0.1048  0.4369  1.9310
  859TIP3   OH226771   1.755   1.903   8.494  0.1989 -0.0096 -0.0819
  859TIP3    H126772   1.735   1.848   8.570  0.1485 -1.0185 -0.8092
  859TIP3    H226773   1.722   1.990   8.518  1.3357  0.0151  1.5765
  860TIP3   OH226774   6.853   5.239   1.636  0.0879 -0.4992  0.1897
  860TIP3    H126775   6.769   5.198   1.614  0.3628 -0.0404 -1.9081
  860TIP3    H226776   6.832   5.332   1.646 -0.0058 -0.6763  1.9247
  861TIP3   OH226777   0.635   1.720   0.861 -0.4209 -0.3716  0.1837
  861TIP3    H126778   0.720   1.715   0.817  0.4908 -0.0755  1.8035
  861TIP3    H226779   0.647   1.788   0.928 -2.1670  0.1707 -0.0144
  862TIP3   OH226780   4.986   1.336   0.503 -0.4479 -0.1491 -0.2309
  862TIP3    H126781   5.023   1.304   0.585 -0.4380 -1.6941 -0.8067
  862TIP3    H226782   4.983   1.259   0.446  2.8712  1.4061 -2.9435
  863TIP3   OH226783   1.580   0.770   8.708 -0.6594 -0.1590 -0.1391
  863TIP3    H126784   1.675   0.781   8.700 -0.9389  2.1610 -1.1524
  863TIP3    H226785   1.556   0.821   8.785 -1.1820 -0.0776 -0.3518
  864TIP3   OH226786   4.625   0.640   1.548 -0.4614  0.0458  0.2647
  864TIP3    H126787   4.535   0.608   1.537 -0.1655 -0.9484  0.6222
  864TIP3    H226788   4.679   0.562   1.537  0.3920  0.7211 -0.4197
  865TIP3   OH226789   2.572   6.349   7.129 -0.5016 -0.0414 -0.6928
  865TIP3    H126790   2.640   6.407   7.165 -0.1894 -0.9753  0.2630
  865TIP3    H226791   2.601   6.332   7.039  0.4634 -0.3172 -0.3432
  866TIP3   OH226792   6.126   7.306   0.038 -0.7611 -0.3443 -0.1630
  866TIP3    H126793   6.112   7.257  -0.043 -0.5236 -0.4249 -0.1569
  866TIP3    H226794   6.211   7.274   0.070 -0.0615  0.8688 -0.7340
  867TIP3   OH226795   6.501   0.579   9.218 -0.1109 -0.1456 -0.1198
  867TIP3    H126796   6.581   0.579   9.166 -0.5954  0.1694 -0.8897
  867TIP3    H226797   6.465   0.667   9.206  0.2319  0.2463  1.5063
  868TIP3   OH226798   1.801   0.159   8.773 -0.1842  0.4556  0.1458
  868TIP3    H126799   1.840   0.081   8.732 -0.3541  1.6823 -2.5953
  868TIP3    H226800   1.863   0.182   8.842  0.7367 -1.1459 -0.0712
  869TIP3   OH226801   5.190   1.150   1.740 -0.5799 -0.0325 -0.1278
  869TIP3    H126802   5.190   1.118   1.649 -0.6321 -0.3345 -0.0241
  869TIP3    H226803   5.280   1.139   1.769 -0.4917  0.3695 -0.2464
  870TIP3   OH226804   5.507   1.079   1.089  0.6912 -0.2054  1.0138
  870TIP3    H126805   5.496   1.025   1.167  0.8403 -0.4849  0.8438
  870TIP3    H226806   5.471   1.164   1.113 -0.8206 -0.7759  0.8369
  871TIP3   OH226807   1.260   0.945   8.500  0.3669 -0.3147 -0.7449
  871TIP3    H126808   1.279   0.988   8.584 -0.8939 -0.6875 -0.2430
  871TIP3    H226809   1.336   0.888   8.484  2.0592  2.0028 -1.4089
  872TIP3   OH226810   2.429   4.805   9.981  0.9410 -0.2588  0.0692
  872TIP3    H126811   2.404   4.714   9.967  1.7271 -0.4335 -0.2002
  872TIP3    H226812   2.421   4.818  10.076 -2.7002  0.4323 -0.1933
  873TIP3   OH226813   0.454   3.688   9.581 -0.1362  0.0177  0.0928
  873TIP3    H126814   0.483   3.763   9.633 -0.4165 -0.0110  0.2947
  873TIP3    H226815   0.372   3.717   9.541  0.1985  0.1202 -0.5223
  874TIP3   OH226816   3.447   4.163   1.313  0.2082 -0.2107  0.6830
  874TIP3    H126817   3.457   4.088   1.255 -0.9228  0.8356 -0.9479
  874TIP3    H226818   3.534   4.203   1.317  0.1030  0.3048 -1.2069
  875TIP3   OH226819   6.548   5.489   1.584 -0.7561  0.5672  0.1388
  875TIP3    H126820   6.583   5.521   1.667 -0.4150  1.6073 -0.3910
  875TIP3    H226821   6.517   5.400   1.603 -0.0153  0.5249  1.1975
  876TIP3   OH226822   7.249   3.003   8.979 -0.0157 -0.1229  0.7778
  876TIP3    H126823   7.157   3.019   9.002  0.4939  1.6221  1.7617
  876TIP3    H226824   7.244   2.949   8.900 -1.8731 -0.4887  1.0751
  877TIP3   OH226825   2.586   1.970   7.386 -0.4230  0.2449  0.4748
  877TIP3    H126826   2.554   2.059   7.395  1.7648  1.0828  0.5288
  877TIP3    H226827   2.598   1.958   7.292 -3.1599 -0.9840  0.1861
  878TIP3   OH226828   5.131   7.409   8.898 -0.6635 -0.0291  0.1705
  878TIP3    H126829   5.174   7.391   8.982 -0.1320  0.9528  0.1131
  878TIP3    H226830   5.180   7.481   8.860 -0.7234 -0.6521 -1.1348
  879TIP3   OH226831   6.311   0.151   8.735  0.4277  0.0814  0.3574
  879TIP3    H126832   6.352   0.102   8.664 -0.7005 -0.1649 -0.1476
  879TIP3    H226833   6.272   0.228   8.693 -0.1302  0.0022  0.7130
  880TIP3   OH226834   5.977   5.193   1.661  0.4903  0.1829  0.2579
  880TIP3    H126835   5.950   5.235   1.580  0.4222 -0.0180  0.1752
  880TIP3    H226836   5.908   5.216   1.724  1.5275  2.0148  0.8222
  881TIP3   OH226837   3.233   1.453   1.644  0.1116  0.5709  0.1533
  881TIP3    H126838   3.158   1.396   1.661  0.2982 -0.0165 -0.9500
  881TIP3    H226839   3.304   1.394   1.621  1.4913  0.9592  2.9676
  882TIP3   OH226840   1.266   1.719   0.392  0.5952  1.0641 -0.2877
  882TIP3    H126841   1.315   1.644   0.426  2.2712  2.0681 -0.3935
  882TIP3    H226842   1.329   1.792   0.393 -0.5755  2.1491 -1.4757
  883TIP3   OH226843   4.824   0.940   9.099  0.3363 -0.3094 -0.0019
  883TIP3    H126844   4.884   0.914   9.030  1.2990 -0.0313  0.7137
  883TIP3    H226845   4.778   1.016   9.063  0.9620 -0.0518 -0.2647
  884TIP3   OH226846   1.611   1.462   2.692 -0.1244  0.0435 -0.1809
  884TIP3    H126847   1.540   1.399   2.680 -0.4574  0.4318 -0.2571
  884TIP3    H226848   1.656   1.433   2.772 -0.7899  0.1927  0.2574
  885TIP3   OH226849   6.774   4.903   1.068  0.6318 -0.8586  0.8632
  885TIP3    H126850   6.693   4.905   1.018  0.4559 -3.2309  0.9201
  885TIP3    H226851   6.841   4.937   1.008  0.0102 -1.2831 -0.0948
  886TIP3   OH226852   3.710   7.401   9.641  0.0273 -0.2821 -0.3814
  886TIP3    H126853   3.799   7.364   9.642  0.8167  1.5040  1.2525
  886TIP3    H226854   3.713   7.468   9.573 -0.1463 -0.3913 -0.4957
  887TIP3   OH226855   3.494   1.452   8.821 -0.2540 -0.0762 -0.0364
  887TIP3    H126856   3.582   1.430   8.790  0.8016  1.3929  1.6676
  887TIP3    H226857   3.445   1.370   8.818  1.1747 -0.9312 -0.9931
  888TIP3   OH226858   1.194   2.278   9.531  0.1986  0.6894 -0.3367
  888TIP3    H126859   1.181   2.344   9.463  1.9451  0.1178 -1.2936
  888TIP3    H226860   1.228   2.327   9.606  1.5761  0.9165 -1.0742
  889TIP3   OH226861   1.693   2.553   9.123  0.3989 -0.7471  0.4843
  889TIP3    H126862   1.624   2.553   9.056 -0.9244 -1.8793  1.7647
  889TIP3    H226863   1.663   2.618   9.187  1.1650 -0.3745  0.4769
  890TIP3   OH226864   3.861   2.811   6.603 -0.5197 -0.7313 -0.1900
  890TIP3    H126865   3.783   2.755   6.598 -0.8447 -0.1989 -1.7362
  890TIP3    H226866   3.834   2.893   6.562  0.8403 -0.5230 -0.7286
  891TIP3   OH226867   6.800   0.096   8.370  0.3946 -0.4928 -0.2822
  891TIP3    H126868   6.875   0.100   8.310 -0.6029 -2.7770 -1.8067
  891TIP3    H226869   6.734   0.045   8.323 -1.8735  0.7946  1.3237
  892TIP3   OH226870   4.139   3.749   9.220 -0.1021 -0.1376  0.2038
  892TIP3    H126871   4.085   3.670   9.230 -1.3928  0.6370 -0.4387
  892TIP3    H226872   4.158   3.753   9.127  0.6529 -0.1179  0.3544
  893TIP3   OH226873   1.897   6.367   8.221  0.3548 -0.1597 -0.4854
  893TIP3    H126874   1.870   6.361   8.129  0.5052 -1.0600 -0.4753
  893TIP3    H226875   1.880   6.458   8.245  0.4684  0.1220 -1.4525
  894TIP3   OH226876   4.213   1.654   7.742  0.1632  0.2275  0.0362
  894TIP3    H126877   4.273   1.715   7.785  0.2157  1.0945 -1.2356
  894TIP3    H226878   4.212   1.681   7.651  0.1213 -1.6432 -0.5514
  895TIP3   OH226879   6.074   7.059   1.866 -0.2490 -0.0875  0.5658
  895TIP3    H126880   5.980   7.051   1.850 -0.4136  1.0128  0.8970
  895TIP3    H226881   6.081   7.129   1.931  0.8061 -0.1503  0.5338
  896TIP3   OH226882   5.048   4.962   9.647 -0.0107 -0.4843  0.3034
  896TIP3    H126883   5.106   4.892   9.678  0.2738  0.0740  1.0694
  896TIP3    H226884   5.046   5.024   9.719  0.6704  0.8835 -0.8206
  897TIP3   OH226885   1.802   0.363   1.587  0.1669  0.1235  0.1115
  897TIP3    H126886   1.764   0.366   1.675  1.2984 -0.3737  0.6414
  897TIP3    H226887   1.843   0.449   1.576  0.4342  0.0164  0.2642
  898TIP3   OH226888   3.844   5.157   7.680  0.2500 -0.4879  0.2168
  898TIP3    H126889   3.906   5.215   7.724  0.6550 -0.4323 -0.4207
  898TIP3    H226890   3.758   5.191   7.705  0.4811  0.2429  0.0417
  899TIP3   OH226891   6.414   5.920   0.523 -0.4041  0.1568 -0.7171
  899TIP3    H126892   6.439   6.000   0.570  1.1110 -1.2807  1.0811
  899TIP3    H226893   6.488   5.900   0.468  0.3631 -1.3509  0.7846
  900TIP3   OH226894   6.757   1.268   8.469 -0.1607 -0.0852 -0.0080
  900TIP3    H126895   6.849   1.244   8.475  0.5403  2.5538  2.4812
  900TIP3    H226896   6.723   1.254   8.557 -1.7705  0.3065 -0.5356
  901TIP3   OH226897   4.243   0.256   0.528  0.1942  0.0339  0.3701
  901TIP3    H126898   4.238   0.233   0.621  1.5798 -1.6296  0.0840
  901TIP3    H226899   4.242   0.352   0.527 -0.8985  0.0712  2.0065
  902TIP3   OH226900   1.637   3.065   2.159  0.2961 -0.2181  0.1237
  902TIP3    H126901   1.690   3.015   2.221 -2.9806 -0.8663  2.7387
  902TIP3    H226902   1.625   3.150   2.201  1.6619  1.0222 -1.8776
  903TIP3   OH226903   2.684   5.837   9.987 -0.2449  0.0631  0.2852
  903TIP3    H126904   2.612   5.823   9.925  1.8062 -3.2007 -1.6659
  903TIP3    H226905   2.736   5.907   9.947  0.5663 -1.3919 -1.3397
  904TIP3   OH226906   2.918   4.832   8.335  0.0481  0.8383 -0.0910
  904TIP3    H126907   2.981   4.834   8.263 -2.1665 -0.8546 -2.2658
  904TIP3    H226908   2.924   4.743   8.370  0.1139  1.2202  0.8941
  905TIP3   OH226909   4.751   5.196   9.301 -0.5284 -0.5388  0.1111
  905TIP3    H126910   4.691   5.135   9.344 -1.0424 -0.0983  0.0225
  905TIP3    H226911   4.836   5.178   9.342 -0.3685 -2.2977 -0.8943
  906TIP3   OH226912   6.988   6.479   8.812  0.3491 -0.3607  0.3209
  906TIP3    H126913   6.968   6.525   8.730 -1.8667 -0.9520  0.4702
  906TIP3    H226914   7.020   6.548   8.870  3.2513 -0.1262 -1.3568
  907TIP3   OH226915   5.694   5.639   7.608  0.2163 -0.1280 -0.4402
  907TIP3    H126916   5.604   5.610   7.599  0.5426 -1.2282 -0.2188
  907TIP3    H226917   5.742   5.592   7.539  1.2208 -2.1639  1.5399
  908TIP3   OH226918   5.845   6.636   8.096 -0.2373 -0.7003  0.4057
  908TIP3    H126919   5.754   6.621   8.073 -0.2339 -0.9615  0.5609
  908TIP3    H226920   5.856   6.731   8.092 -0.1191 -0.7517 -1.1421
  909TIP3   OH226921   5.483   3.991   1.769  0.3303 -0.8118 -0.2106
  909TIP3    H126922   5.425   3.934   1.719 -0.6932 -0.4573  0.5281
  909TIP3    H226923   5.513   3.936   1.841  0.6417 -0.8963 -0.4055
  910TIP3   OH226924   6.767   1.198   1.567  0.0362 -0.1693 -0.0029
  910TIP3    H126925   6.815   1.226   1.646 -0.3772 -0.8230  0.4934
  910TIP3    H226926   6.835   1.161   1.510  0.6178  1.8950 -0.7335
  911TIP3   OH226927   6.262   3.935   1.760 -0.1625  0.2516  0.6843
  911TIP3    H126928   6.345   3.976   1.784  1.5907 -2.7258  0.1616
  911TIP3    H226929   6.209   3.938   1.840  1.3308  0.1648  1.7039
  912TIP3   OH226930   6.571   3.246   0.811  0.2804  0.7219 -0.2981
  912TIP3    H126931   6.637   3.180   0.832  1.4838  2.2581  1.0284
  912TIP3    H226932   6.608   3.293   0.737  1.7248  2.8241  1.6206
  913TIP3   OH226933   2.103   0.298   1.059  0.3479 -0.0197  0.0320
  913TIP3    H126934   2.191   0.336   1.052  0.6800 -0.5983  0.9691
  913TIP3    H226935   2.102   0.230   0.992  0.7400 -0.2452  0.2499
  914TIP3   OH226936   5.483   3.628   8.168  0.0129 -0.1147 -0.2766
  914TIP3    H126937   5.482   3.629   8.073  1.0272 -1.3792 -0.3366
  914TIP3    H226938   5.496   3.536   8.191 -1.3563 -0.0057  1.1142
  915TIP3   OH226939   5.674   0.351   9.757 -0.2858  0.4026  0.1757
  915TIP3    H126940   5.643   0.367   9.667  0.2011 -1.9256 -0.4690
  915TIP3    H226941   5.766   0.377   9.755 -0.1686 -0.0153 -0.1322
  916TIP3   OH226942   7.322   6.266   8.622 -0.6024 -0.0688 -0.2877
  916TIP3    H126943   7.252   6.247   8.559 -1.5471 -0.6627  0.8948
  916TIP3    H226944   7.372   6.185   8.628  0.3971  0.4471 -1.3517
  917TIP3   OH226945   6.376   3.662   8.877 -0.0275  0.7227  0.0172
  917TIP3    H126946   6.302   3.629   8.927  0.4215  0.0219  0.2347
  917TIP3    H226947   6.353   3.644   8.786  0.3248 -0.4770  0.1420
  918TIP3   OH226948   1.886   3.502   1.864 -0.1071 -0.2045  0.7012
  918TIP3    H126949   1.857   3.514   1.774 -0.8430 -1.9588  0.6750
  918TIP3    H226950   1.951   3.431   1.860  0.6084  0.3760  1.4303
  919TIP3   OH226951   6.900   0.511   9.741 -0.0230 -0.3549 -0.0837
  919TIP3    H126952   6.871   0.428   9.778  0.4215 -0.8707 -0.8735
  919TIP3    H226953   6.932   0.561   9.817  2.4945 -2.0533  0.1129
  920TIP3   OH226954   1.886   4.295   8.013  0.1190  0.1908 -0.3475
  920TIP3    H126955   1.890   4.381   7.971 -0.5514  0.9924  1.1632
  920TIP3    H226956   1.964   4.291   8.068  0.6186 -0.5671 -1.0693
  921TIP3   OH226957   4.722   4.898   1.483 -0.0614  0.1085  0.4195
  921TIP3    H126958   4.728   4.994   1.476  0.0835  0.2142  1.6478
  921TIP3    H226959   4.803   4.873   1.528 -0.9620 -0.3514  1.8747
  922TIP3   OH226960   4.478   4.118   9.653  0.3273  0.0897 -0.6088
  922TIP3    H126961   4.532   4.161   9.721 -0.8362 -0.7899  0.9419
  922TIP3    H226962   4.410   4.182   9.633 -0.4511 -0.3420  0.5126
  923TIP3   OH226963   1.206   4.521   0.632 -0.8594 -1.0396 -0.3442
  923TIP3    H126964   1.118   4.524   0.594 -0.5814 -0.7379 -0.9734
  923TIP3    H226965   1.249   4.449   0.586 -0.2354 -0.1190 -1.2491
  924TIP3   OH226966   5.688   6.922   2.704  0.2092  0.5265 -0.0639
  924TIP3    H126967   5.746   6.846   2.696 -0.5349  0.1137 -3.0356
  924TIP3    H226968   5.718   6.968   2.782  1.4021 -2.2051  1.2150
  925TIP3   OH226969   3.636   4.205   0.797  0.1432  0.0443 -0.3365
  925TIP3    H126970   3.698   4.143   0.836 -0.7113 -0.2615  0.5716
  925TIP3    H226971   3.553   4.187   0.842 -0.1454  1.7889 -0.1103
  926TIP3   OH226972   4.045   1.883   8.005 -0.0688 -0.0493 -0.1079
  926TIP3    H126973   4.048   1.972   8.039 -0.5326  0.3192 -1.0007
  926TIP3    H226974   4.099   1.832   8.066 -0.2620  0.7259  0.7301
  927TIP3   OH226975   1.596   0.026   2.323 -0.4802  0.7885  0.3318
  927TIP3    H126976   1.568   0.117   2.315 -2.4052  0.3424  1.2543
  927TIP3    H226977   1.529  -0.015   2.378 -0.2516 -1.4275 -0.8893
  928TIP3   OH226978   1.808   6.923   2.320 -0.0883  0.3162  0.1583
  928TIP3    H126979   1.833   7.014   2.335 -0.1422  0.3864 -0.1697
  928TIP3    H226980   1.784   6.890   2.407 -1.7878  1.1289  0.0500
  929TIP3   OH226981   5.899   5.420   8.638  0.8460  0.2857 -0.4040
  929TIP3    H126982   5.982   5.389   8.603  1.6387 -0.1212  1.6963
  929TIP3    H226983   5.905   5.515   8.633  0.8961  0.2334 -1.4255
  930TIP3   OH226984   7.412   6.138   1.434 -0.1932 -0.3671  0.1982
  930TIP3    H126985   7.354   6.195   1.385 -1.1220 -1.1397  0.3643
  930TIP3    H226986   7.403   6.052   1.392  1.1361 -0.4255 -0.0217
  931TIP3   OH226987   2.784   6.675   1.697  0.7525  0.2503 -0.1708
  931TIP3    H126988   2.750   6.732   1.766  1.4562  1.1101 -0.5080
  931TIP3    H226989   2.711   6.617   1.675  0.0398  0.9781  0.2323
  932TIP3   OH226990   2.249   2.303   9.199  0.1855 -0.3794  0.0738
  932TIP3    H126991   2.271   2.212   9.178  0.7848 -0.3905  0.7268
  932TIP3    H226992   2.311   2.355   9.147  0.9579 -0.3878  0.9542
  933TIP3   OH226993   3.735   2.303   1.229  0.0116 -0.2114 -0.3603
  933TIP3    H126994   3.660   2.250   1.256  0.6898 -0.1482  1.8349
  933TIP3    H226995   3.696   2.381   1.189 -1.0012 -1.9962 -3.1365
  934TIP3   OH226996   2.048   5.656   1.772 -0.1166 -0.1044  0.0488
  934TIP3    H126997   2.094   5.573   1.782  1.1236  0.6762  1.1199
  934TIP3    H226998   1.999   5.667   1.853  1.7479  1.3589  1.0581
  935TIP3   OH226999   5.927   3.519   1.196  0.2249 -0.4680 -0.2482
  935TIP3    H127000   5.869   3.595   1.184  0.1305 -0.1446  1.9236
  935TIP3    H227001   5.882   3.448   1.151  0.5502  0.7980 -2.7655
  936TIP3   OH227002   1.143   2.215   9.264 -0.4020 -0.0527  0.3340
  936TIP3    H127003   1.130   2.310   9.265 -1.5496 -0.1958  0.0634
  936TIP3    H227004   1.145   2.191   9.357 -2.4707 -0.0445  0.4173
  937TIP3   OH227005   2.763   5.588   0.071  0.1645  0.6069  0.0911
  937TIP3    H127006   2.745   5.681   0.058  0.9531  0.7043 -0.3640
  937TIP3    H227007   2.687   5.555   0.120  0.4881  1.7611  1.4301
  938TIP3   OH227008   6.766   2.626   8.873 -0.8887  0.1409  0.6805
  938TIP3    H127009   6.817   2.566   8.819  0.5233  2.8817 -1.2410
  938TIP3    H227010   6.796   2.609   8.962 -0.0476 -1.4818  0.1299
  939TIP3   OH227011   0.899   1.820   7.057  0.4689 -0.0548 -0.0945
  939TIP3    H127012   0.947   1.737   7.058  0.7249  0.0773  1.6542
  939TIP3    H227013   0.828   1.808   7.120 -1.5046 -0.0366 -2.1981
  940TIP3   OH227014   0.084   1.632   1.303  0.1949  0.4998 -0.3121
  940TIP3    H127015   0.045   1.579   1.233 -0.8386 -0.2041  0.7516
  940TIP3    H227016   0.085   1.721   1.267  1.5942 -0.1450 -1.9746
  941TIP3   OH227017   2.766   3.007   0.592  0.0916 -0.1810 -0.0084
  941TIP3    H127018   2.738   3.088   0.550 -0.6120 -1.4303 -2.1027
  941TIP3    H227019   2.822   3.036   0.664  0.0522  2.1425 -0.8126
  942TIP3   OH227020   3.165   3.796   7.901  0.4349 -0.4292  0.3615
  942TIP3    H127021   3.083   3.792   7.951  0.7344 -0.3473  0.8559
  942TIP3    H227022   3.232   3.815   7.966  0.7946 -0.0916 -0.1070
  943TIP3   OH227023   0.991   7.279   9.835 -0.3503 -0.4546  0.1489
  943TIP3    H127024   1.060   7.306   9.895  0.7693 -0.5539 -1.0584
  943TIP3    H227025   0.935   7.221   9.888 -0.3989  0.8120  1.5650
  944TIP3   OH227026   7.284   1.647   1.713  0.1535 -0.4345 -0.1951
  944TIP3    H127027   7.227   1.621   1.785  1.3017 -1.1650  0.4731
  944TIP3    H227028   7.235   1.715   1.667 -0.0716  0.9678  2.0060
  945TIP3   OH227029   5.451   3.640   2.261  0.0743 -0.3910 -0.5342
  945TIP3    H127030   5.511   3.645   2.336 -2.3815  2.5739  1.4856
  945TIP3    H227031   5.481   3.711   2.203 -0.2201 -0.2744 -0.5424
  946TIP3   OH227032   7.434   0.197   0.950  0.0742 -0.2943 -0.4022
  946TIP3    H127033   7.341   0.208   0.970  0.2869 -1.2600  1.3109
  946TIP3    H227034   7.439   0.203   0.855 -1.1684  3.7389 -0.4214
  947TIP3   OH227035   2.278   4.574   7.641 -0.4527  0.1278 -0.0387
  947TIP3    H127036   2.320   4.496   7.605  0.7938  1.2861 -1.1826
  947TIP3    H227037   2.309   4.579   7.731  1.9240  0.9046 -0.8200
  948TIP3   OH227038   7.515   2.570   9.714  0.4237  0.1629 -0.0302
  948TIP3    H127039   7.507   2.506   9.644 -0.2204 -0.7173  0.8178
  948TIP3    H227040   7.453   2.540   9.781  1.2376  0.7934  1.0480
  949TIP3   OH227041   3.811   2.618   8.626 -0.4082  0.4331 -0.1984
  949TIP3    H127042   3.779   2.530   8.647  1.0574 -1.2210 -3.9695
  949TIP3    H227043   3.846   2.651   8.709 -2.1226 -2.0002  1.6319
  950TIP3   OH227044   4.571   5.431   8.511 -0.2034 -0.5311 -0.2458
  950TIP3    H127045   4.621   5.483   8.575 -0.4092 -1.1602  0.4340
  950TIP3    H227046   4.638   5.387   8.458 -0.0338 -0.5072 -0.0514
  951TIP3   OH227047   0.973   5.262   1.277 -0.3870 -0.6607 -0.2358
  951TIP3    H127048   0.899   5.272   1.218 -0.6366 -0.9058  0.0356
  951TIP3    H227049   0.949   5.190   1.335 -0.6223  0.2894  0.8875
  952TIP3   OH227050   1.009   6.687   1.432 -0.4197  0.3026 -0.5579
  952TIP3    H127051   1.035   6.665   1.521  0.6632  0.3940 -0.8373
  952TIP3    H227052   0.913   6.690   1.434 -0.3966  0.3921  0.6128
  953TIP3   OH227053   2.386   1.870   7.186  0.2382  0.3373 -0.4369
  953TIP3    H127054   2.311   1.812   7.200  0.1873  0.3042 -0.8363
  953TIP3    H227055   2.356   1.956   7.212  0.4439  0.1211  0.5663
  954TIP3   OH227056   2.472   1.192   9.773  0.1597 -0.4053 -0.3869
  954TIP3    H127057   2.453   1.107   9.734  1.6759 -1.7440  1.6293
  954TIP3    H227058   2.554   1.179   9.821 -0.7193  1.5586  1.8354
  955TIP3   OH227059   3.264   3.822   8.898 -0.4739 -0.0655  0.5073
  955TIP3    H127060   3.355   3.819   8.928 -0.3946 -0.8968  0.2072
  955TIP3    H227061   3.256   3.747   8.839 -1.5980 -0.5524  1.2481
  956TIP3   OH227062   4.162   6.216   1.720 -0.2746  0.4232 -0.3525
  956TIP3    H127063   4.155   6.209   1.625  0.7589  0.3005 -0.4380
  956TIP3    H227064   4.211   6.297   1.734 -1.0984  0.8497  0.1154
  957TIP3   OH227065   6.633   6.019   9.952 -0.2348  0.0272  0.1303
  957TIP3    H127066   6.547   6.006   9.911 -0.7467 -0.6217  1.3495
  957TIP3    H227067   6.619   6.088  10.016  0.4841  0.8254 -0.5559
  958TIP3   OH227068   0.497   0.880   7.949  0.0067 -0.1582 -0.3485
  958TIP3    H127069   0.574   0.908   7.899  0.6977  0.4513  1.0088
  958TIP3    H227070   0.457   0.812   7.895 -1.5379  3.0279 -3.6807
  959TIP3   OH227071   5.728   6.173   1.759 -0.0471 -0.2440  0.2623
  959TIP3    H127072   5.758   6.229   1.688  0.4890 -1.9643 -0.9290
  959TIP3    H227073   5.674   6.106   1.717  0.3043 -1.3322  1.4498
  960TIP3   OH227074   4.188   3.402   2.374 -0.5235 -0.1646  0.1251
  960TIP3    H127075   4.207   3.326   2.430 -0.2165  0.1411  0.4426
  960TIP3    H227076   4.104   3.381   2.332 -0.4364 -0.6820  0.2026
  961TIP3   OH227077   6.642   2.782   1.322 -0.0118 -0.5679  0.1860
  961TIP3    H127078   6.569   2.731   1.355  0.0405 -0.9595 -0.2905
  961TIP3    H227079   6.668   2.738   1.241 -0.7964  0.9240 -0.9407
  962TIP3   OH227080   2.552   2.073   1.878  0.3304 -0.7817  0.1330
  962TIP3    H127081   2.618   2.078   1.947  0.0961  2.5026  0.2773
  962TIP3    H227082   2.602   2.081   1.797  0.2697  1.1044  0.2233
  963TIP3   OH227083   3.631   2.797   8.512  0.4809  0.2998  0.2209
  963TIP3    H127084   3.605   2.827   8.598  2.6338  0.4258  0.9017
  963TIP3    H227085   3.704   2.737   8.528 -1.5069 -2.7763 -1.3022
  964TIP3   OH227086   4.632   2.218   1.126 -0.2022 -0.1874  0.4852
  964TIP3    H127087   4.683   2.239   1.204 -1.5885 -1.8664  1.8835
  964TIP3    H227088   4.696   2.225   1.054  1.6839 -0.9474  2.0115
  965TIP3   OH227089   2.685   1.717   7.796  0.6662 -0.1751 -0.7516
  965TIP3    H127090   2.728   1.732   7.880  0.9864  0.0210 -0.9469
  965TIP3    H227091   2.691   1.801   7.750  0.3239 -0.2235 -0.8962
  966TIP3   OH227092   7.335   4.795   2.104 -0.5302 -0.3659 -0.0037
  966TIP3    H127093   7.252   4.777   2.060  0.0742 -0.4097 -1.1566
  966TIP3    H227094   7.375   4.865   2.054 -0.4062  0.5186  1.2769
  967TIP3   OH227095   6.434   4.629   8.404 -0.0703 -0.4008  0.1989
  967TIP3    H127096   6.422   4.651   8.312  0.1353 -0.1894  0.2234
  967TIP3    H227097   6.526   4.604   8.412  0.4404  1.4864  0.7289
  968TIP3   OH227098   7.335   2.107   1.173  0.2988  0.5590  0.2094
  968TIP3    H127099   7.342   2.172   1.243 -0.9506  1.2960 -0.3139
  968TIP3    H227100   7.387   2.145   1.101  1.1886  0.0257  0.5492
  969TIP3   OH227101   6.212   4.028   9.599  0.3903 -0.0937  0.1362
  969TIP3    H127102   6.153   3.954   9.583  1.5367 -0.6958 -1.6107
  969TIP3    H227103   6.294   3.987   9.628  0.4397  0.6432  1.0894
  970TIP3   OH227104   1.660   2.581   8.333  0.4416  0.1561 -0.4109
  970TIP3    H127105   1.710   2.542   8.261  1.1958 -0.5506  0.4619
  970TIP3    H227106   1.709   2.556   8.412 -0.9260  0.0430  0.4220
  971TIP3   OH227107   1.871   1.555   1.928 -0.7224  0.2488 -0.3829
  971TIP3    H127108   1.870   1.525   2.019 -0.4873  1.2356 -0.0408
  971TIP3    H227109   1.853   1.649   1.933  1.7290  0.8497 -1.1208
  972TIP3   OH227110   7.088   7.253   0.797  0.2852  0.5542 -0.2029
  972TIP3    H127111   7.047   7.321   0.743 -1.2080 -0.6050 -0.6011
  972TIP3    H227112   7.035   7.251   0.877 -0.9429 -1.4432 -1.0111
  973TIP3   OH227113   4.199   3.966   7.773 -0.6579  0.2037  0.0741
  973TIP3    H127114   4.221   3.875   7.750  0.2777  0.2860  0.6150
  973TIP3    H227115   4.144   3.958   7.850 -0.6517  0.0959  0.0687
  974TIP3   OH227116   1.144   2.931   1.257  0.0566  0.7157 -0.3468
  974TIP3    H127117   1.197   2.855   1.233 -0.6151 -1.2486  3.6122
  974TIP3    H227118   1.200   2.981   1.316 -1.6573 -0.4373  2.4538
  975TIP3   OH227119   3.129   3.400   0.242 -0.0856  0.2844 -0.4760
  975TIP3    H127120   3.200   3.341   0.218 -0.0038  0.1695  0.0229
  975TIP3    H227121   3.051   3.345   0.240 -0.1528  0.4008 -0.9854
  976TIP3   OH227122   6.536   3.035   9.312 -0.1739  0.2627 -0.8269
  976TIP3    H127123   6.474   2.975   9.353  0.4854 -0.9833 -1.5928
  976TIP3    H227124   6.519   3.027   9.218  0.6599  0.4311 -1.0020
  977TIP3   OH227125   1.373   6.271   6.679  0.5064 -0.1535 -0.0199
  977TIP3    H127126   1.363   6.364   6.662 -1.8262  0.4487  3.5721
  977TIP3    H227127   1.463   6.262   6.711  0.7285  0.8627 -0.3228
  978TIP3   OH227128   2.102   1.118   0.998 -0.5972  0.5194  0.1983
  978TIP3    H127129   2.011   1.119   0.969  0.4215  0.2178 -3.5393
  978TIP3    H227130   2.147   1.062   0.935  2.6810  2.9859  0.0700
  979TIP3   OH227131   5.685   3.070   0.343 -0.1686  0.7771 -0.1883
  979TIP3    H127132   5.665   2.995   0.399 -0.6966  0.4056 -0.8563
  979TIP3    H227133   5.779   3.065   0.327 -0.2759  0.0018 -0.5881
  980TIP3   OH227134   4.757   1.024   0.269 -0.0422  0.4145 -0.3212
  980TIP3    H127135   4.691   1.091   0.286 -0.4370 -0.3218  1.2010
  980TIP3    H227136   4.792   1.001   0.355  0.8884 -0.5418 -0.9165
  981TIP3   OH227137   0.785   4.197   9.420  1.0753 -0.1072 -0.7862
  981TIP3    H127138   0.744   4.111   9.423  2.3668 -0.7399 -0.7247
  981TIP3    H227139   0.863   4.185   9.366  1.0887  1.1064 -1.0665
  982TIP3   OH227140   5.919   5.044   0.971  0.1903 -0.2609 -0.4308
  982TIP3    H127141   5.828   5.059   0.997  0.2296 -0.9218  0.1071
  982TIP3    H227142   5.915   4.968   0.913  0.1856  0.7995 -1.8730
  983TIP3   OH227143   4.614   2.963   0.453  0.2025 -0.6628 -0.1528
  983TIP3    H127144   4.585   2.930   0.368 -0.1256 -1.0824  0.1151
  983TIP3    H227145   4.656   2.888   0.495 -1.3134 -1.0340  0.8099
  984TIP3   OH227146   0.960   4.286   2.793  0.3612  0.2014  0.3005
  984TIP3    H127147   0.964   4.375   2.758 -1.6599 -0.4607 -1.8611
  984TIP3    H227148   0.866   4.265   2.796  0.6597 -1.1600  2.7504
  985TIP3   OH227149   1.343   5.968   8.731 -0.3874  0.0384 -0.4577
  985TIP3    H127150   1.438   5.978   8.719 -0.5569  1.8379 -0.5362
  985TIP3    H227151   1.332   5.959   8.826 -0.1809  0.6081 -0.3738
  986TIP3   OH227152   1.177   4.440   0.189  0.3979  0.1594  0.6037
  986TIP3    H127153   1.182   4.522   0.237 -1.2321  1.1698 -0.8532
  986TIP3    H227154   1.096   4.399   0.219  0.4731 -0.2426  0.2719
  987TIP3   OH227155   0.824   2.688   1.371  0.0598 -0.2816  0.5242
  987TIP3    H127156   0.849   2.714   1.459  0.5459 -2.6353  1.1517
  987TIP3    H227157   0.819   2.592   1.374  0.5948 -0.4972 -2.1118
  988TIP3   OH227158   3.479   2.386   2.190  0.1405  0.2097  0.2269
  988TIP3    H127159   3.485   2.412   2.098  1.3730 -0.0165  0.2181
  988TIP3    H227160   3.570   2.384   2.219 -0.1908 -0.4688  1.2454
  989TIP3   OH227161   5.288   4.471   9.979 -0.1114 -0.7465  0.3893
  989TIP3    H127162   5.367   4.485  10.031  1.1587 -1.8856 -1.1280
  989TIP3    H227163   5.311   4.503   9.891  0.7962 -5.8699 -1.6222
  990TIP3   OH227164   3.147   1.356   7.852 -0.2449 -0.2045 -0.1280
  990TIP3    H127165   3.129   1.271   7.813 -1.1437 -0.0322 -0.1106
  990TIP3    H227166   3.068   1.407   7.837 -0.4905 -0.0146  1.5861
  991TIP3   OH227167   2.690   2.899   1.362  0.1444  0.6113  0.5758
  991TIP3    H127168   2.604   2.906   1.320  1.0623  0.1786 -1.4888
  991TIP3    H227169   2.716   2.990   1.377  0.3480  0.8485 -1.0562
  992TIP3   OH227170   2.881   5.535   7.843  0.1799  0.6115  0.0392
  992TIP3    H127171   2.861   5.532   7.937  0.3238  0.0492  0.0600
  992TIP3    H227172   2.797   5.525   7.800 -0.0590  2.1573  0.0851
  993TIP3   OH227173   6.280   0.747   1.753  0.4664  0.3773  0.0152
  993TIP3    H127174   6.324   0.769   1.835  1.5400  0.2044 -0.4961
  993TIP3    H227175   6.341   0.775   1.685 -0.1786  0.0311 -0.7163
  994TIP3   OH227176   7.517   1.650   9.009  0.2269  0.7321  0.0263
  994TIP3    H127177   7.601   1.662   8.965  0.7031  0.4332  0.8286
  994TIP3    H227178   7.539   1.606   9.091 -1.0283 -2.0339 -1.0150
  995TIP3   OH227179   3.492   6.760   1.718  0.7058 -0.0885  0.0303
  995TIP3    H127180   3.434   6.712   1.658  0.6528 -0.1310  0.1147
  995TIP3    H227181   3.578   6.722   1.705  0.3779 -1.3618  1.2874
  996TIP3   OH227182   1.614   7.284   0.845 -0.1653  1.0131 -0.0859
  996TIP3    H127183   1.530   7.247   0.872  1.2939 -2.7830 -0.1091
  996TIP3    H227184   1.626   7.254   0.755  1.7481  0.2525  0.3652
  997TIP3   OH227185   2.105   6.859   0.351  0.6511  0.1139 -0.1258
  997TIP3    H127186   2.139   6.851   0.262  0.7902 -1.1335  0.0241
  997TIP3    H227187   2.046   6.935   0.348  0.0222 -0.4024 -1.4677
  998TIP3   OH227188   4.818   3.349   8.545 -0.2250 -0.0548  0.3841
  998TIP3    H127189   4.863   3.307   8.619 -0.6083 -0.9681  0.1155
  998TIP3    H227190   4.737   3.382   8.583 -0.3460 -0.3777  0.4158
  999TIP3   OH227191   5.866   7.282   7.956  0.0254  0.1786  0.2539
  999TIP3    H127192   5.948   7.269   7.909 -0.5793  3.3633 -2.0243
  999TIP3    H227193   5.891   7.327   8.037  0.7852 -2.6548  1.7230
 1000TIP3   OH227194   2.467   1.080   0.654  0.3057 -0.0980  0.4380
 1000TIP3    H127195   2.541   1.115   0.703  1.5690 -0.7772 -0.9050
 1000TIP3    H227196   2.504   1.011   0.599 -1.1531  0.1155 -0.9093
 1001TIP3   OH227197   2.813   4.838   0.514 -0.0435 -0.1400 -0.1623
 1001TIP3    H127198   2.878   4.771   0.536  0.6132 -0.0800 -1.7387
 1001TIP3    H227199   2.853   4.920   0.543 -0.7415 -0.3758  1.5498
 1002TIP3   OH227200   5.096   3.652   9.352  0.2752  0.4608  0.2996
 1002TIP3    H127201   5.028   3.716   9.374 -2.1660 -1.9561  0.2627
 1002TIP3    H227202   5.083   3.633   9.259  2.8697  1.9376 -0.4539
 1003TIP3   OH227203   7.236   3.911   1.705  0.7228 -0.0018  0.2025
 1003TIP3    H127204   7.246   3.944   1.794  1.8146  1.0221 -0.2610
 1003TIP3    H227205   7.190   3.981   1.659 -1.4884 -1.2828  0.3538
 1004TIP3   OH227206   3.949   4.546   8.084  0.6403  0.3569  0.4942
 1004TIP3    H127207   4.044   4.536   8.080  0.6285  0.0928  0.9222
 1004TIP3    H227208   3.916   4.485   8.018  0.7894  0.8619 -0.0642
 1005TIP3   OH227209   5.879   2.633   9.105 -0.1370 -0.1873 -0.0351
 1005TIP3    H127210   5.903   2.542   9.123  2.4004  0.3340 -0.4651
 1005TIP3    H227211   5.865   2.635   9.010  1.4810  0.1738 -0.2932
 1006TIP3   OH227212   1.368   4.591   2.255  0.4373 -0.0955  0.2656
 1006TIP3    H127213   1.311   4.514   2.257  2.4090 -1.6863 -0.4996
 1006TIP3    H227214   1.360   4.629   2.342  0.7618 -2.2860  1.3330
 1007TIP3   OH227215   4.426   6.455   7.187  0.1143 -0.3326  0.4949
 1007TIP3    H127216   4.360   6.426   7.250  0.0432 -1.8151 -0.2177
 1007TIP3    H227217   4.427   6.550   7.195  0.6700 -0.5004  3.2782
 1008TIP3   OH227218   1.778   4.594   1.160  0.0079 -0.3106  0.1361
 1008TIP3    H127219   1.851   4.617   1.103 -0.4784  0.3167 -0.2550
 1008TIP3    H227220   1.739   4.679   1.183 -0.9981 -0.6663 -0.2055
 1009TIP3   OH227221   6.511   0.300   8.906  0.4546 -0.0594 -0.0491
 1009TIP3    H127222   6.539   0.370   8.847 -0.2724  0.1495 -0.1609
 1009TIP3    H227223   6.545   0.219   8.866 -1.1951 -0.0789 -1.5443
 1010TIP3   OH227224   7.602   5.088   0.339  0.0719  0.0919 -0.0633
 1010TIP3    H127225   7.671   5.055   0.397  0.6200 -0.4232 -0.9830
 1010TIP3    H227226   7.625   5.054   0.252 -0.7629  0.7959 -0.5802
 1011TIP3   OH227227   3.564   1.297   0.877 -0.3038 -0.5717  0.1021
 1011TIP3    H127228   3.520   1.300   0.792 -1.0688 -1.9015  0.4342
 1011TIP3    H227229   3.535   1.376   0.922 -2.2871 -1.3327  0.2599
 1012TIP3   OH227230   1.764   0.719   3.129  0.0744 -0.1293 -0.4393
 1012TIP3    H127231   1.813   0.755   3.204 -1.1771 -0.3302  0.5090
 1012TIP3    H227232   1.726   0.638   3.162 -0.7222 -0.0856 -1.2124
 1013TIP3   OH227233   0.365   2.123   8.979  0.5665  0.5490  0.1163
 1013TIP3    H127234   0.360   2.218   8.988  1.7054  0.9120 -2.1718
 1013TIP3    H227235   0.457   2.102   8.997  0.8696  0.2456 -1.5752
 1014TIP3   OH227236   3.841   2.305   8.256 -0.0108  0.1550  0.5593
 1014TIP3    H127237   3.806   2.383   8.212 -0.5267  0.0927  0.8453
 1014TIP3    H227238   3.763   2.258   8.285  0.3145 -0.0121  1.1753
 1015TIP3   OH227239   5.683   7.356   7.779  0.2673  0.0467  0.1187
 1015TIP3    H127240   5.645   7.275   7.744 -1.9541  0.1614  1.9668
 1015TIP3    H227241   5.749   7.327   7.841  0.9399 -0.2744 -0.7400
 1016TIP3   OH227242   4.035   6.439   0.432  0.2310 -0.5715  0.0197
 1016TIP3    H127243   4.080   6.362   0.468 -1.9131 -1.3792  1.1461
 1016TIP3    H227244   4.022   6.497   0.507  0.0212 -0.0245 -0.4303
 1017TIP3   OH227245   7.455   6.665   9.684 -0.3814  0.3907  0.3797
 1017TIP3    H127246   7.523   6.723   9.649 -1.3069  1.0100 -0.4668
 1017TIP3    H227247   7.472   6.580   9.642 -0.4917  0.7040 -0.3202
 1018TIP3   OH227248   1.468   6.001   1.936 -0.3305  0.5324 -0.4249
 1018TIP3    H127249   1.500   6.000   1.846 -2.8742 -0.4033 -1.4150
 1018TIP3    H227250   1.426   6.086   1.945 -0.1683  0.5838 -0.1494
 1019TIP3   OH227251   5.866   1.400   0.690  0.1270 -0.1861  0.0415
 1019TIP3    H127252   5.921   1.322   0.687  1.0730  0.4658 -2.5088
 1019TIP3    H227253   5.918   1.464   0.739  0.9963 -0.0657 -0.9976
 1020TIP3   OH227254   1.914   1.052   2.039 -0.8789 -0.6147  0.2276
 1020TIP3    H127255   1.976   1.104   2.090  0.0958 -0.7411 -0.7797
 1020TIP3    H227256   1.896   1.106   1.962 -0.9455 -1.1745 -0.1533
 1021TIP3   OH227257   2.995   4.339   2.455  1.1009 -0.2399  0.2974
 1021TIP3    H127258   3.013   4.254   2.415  1.5709  0.2540 -0.5615
 1021TIP3    H227259   3.054   4.343   2.530 -0.6241 -1.6854  1.8611
 1022TIP3   OH227260   3.323   0.373   0.037  0.2663  0.3402 -0.1249
 1022TIP3    H127261   3.345   0.280   0.046 -0.0259  0.3523  0.8069
 1022TIP3    H227262   3.227   0.374   0.033  0.2184  0.6689  0.8660
 1023TIP3   OH227263   3.580   4.333   8.253 -0.0871  0.0455  0.2741
 1023TIP3    H127264   3.560   4.387   8.176 -0.9256 -0.1197  0.3605
 1023TIP3    H227265   3.666   4.363   8.282 -0.6670  1.5728  0.5027
 1024TIP3   OH227266   6.061   6.099   9.038  0.2906  0.8937  0.1459
 1024TIP3    H127267   6.117   6.115   8.962 -1.8648 -0.7618 -1.9565
 1024TIP3    H227268   5.981   6.147   9.020  0.3101  1.8126  2.2430
 1025TIP3   OH227269   0.602   7.551   7.280 -0.0786 -0.0101  0.0878
 1025TIP3    H127270   0.564   7.544   7.193 -0.1120  0.8645  0.0231
 1025TIP3    H227271   0.551   7.490   7.333 -0.5959  0.0522 -0.3271
 1026TIP3   OH227272   3.831   5.170   1.986  0.5391  0.3952  0.0274
 1026TIP3    H127273   3.852   5.259   1.958  1.3643  0.1407 -0.1870
 1026TIP3    H227274   3.766   5.182   2.056 -1.5162  1.0526 -1.8766
 1027TIP3   OH227275   2.317   3.030   1.522  0.4648 -0.4604 -0.0348
 1027TIP3    H127276   2.393   2.978   1.548  1.5003  1.4108  0.8743
 1027TIP3    H227277   2.345   3.074   1.441  0.6479  0.7662  0.6686
 1028TIP3   OH227278   7.283   6.580   8.438 -0.2542 -0.1148  0.1329
 1028TIP3    H127279   7.266   6.674   8.445  0.9884  0.0844  0.5849
 1028TIP3    H227280   7.203   6.544   8.398 -0.7110  1.1335 -0.1023
 1029TIP3   OH227281   1.357   1.501   2.897 -0.2261  0.2022 -0.1757
 1029TIP3    H127282   1.329   1.443   2.968  0.5430  1.0156  0.8343
 1029TIP3    H227283   1.430   1.551   2.934  2.4830 -1.6302 -2.5652
 1030TIP3   OH227284   4.013   2.967   2.052  0.2562 -0.7358 -0.4831
 1030TIP3    H127285   4.107   2.951   2.059  0.4257  0.4667  0.3361
 1030TIP3    H227286   3.984   2.973   2.143 -0.2141  0.9839 -0.7165
 1031TIP3   OH227287   0.291   6.113   0.736  0.3637 -0.1329  0.0714
 1031TIP3    H127288   0.368   6.159   0.702  0.7463  0.4522  1.6371
 1031TIP3    H227289   0.299   6.024   0.701  2.4864 -0.4601  1.2218
 1032TIP3   OH227290   4.560   1.238   0.429  0.1181  0.1967 -0.0726
 1032TIP3    H127291   4.585   1.322   0.389  2.4075 -0.4639 -0.1728
 1032TIP3    H227292   4.467   1.230   0.411  0.2510  1.7942 -1.8167
 1033TIP3   OH227293   2.275   4.411   8.810 -0.2047 -0.0134  0.0328
 1033TIP3    H127294   2.236   4.365   8.735 -0.9530 -1.5588  1.3203
 1033TIP3    H227295   2.363   4.375   8.817  0.1851  0.7851 -0.6267
 1034TIP3   OH227296   0.445   0.500   9.247 -0.0977 -0.5389 -0.2746
 1034TIP3    H127297   0.361   0.509   9.293  0.7237  0.4195  1.1205
 1034TIP3    H227298   0.493   0.435   9.299  0.7296  0.3167  0.0419
 1035TIP3   OH227299   2.366   3.861   0.884  0.4688  0.0350 -0.1784
 1035TIP3    H127300   2.325   3.921   0.947  0.6897  0.6539 -0.6189
 1035TIP3    H227301   2.457   3.890   0.878  0.9613 -1.2381  0.6720
 1036TIP3   OH227302   3.806   1.717   9.716  0.0755 -0.1700  0.3653
 1036TIP3    H127303   3.849   1.632   9.730  0.7374  0.1703  0.4678
 1036TIP3    H227304   3.814   1.734   9.622 -0.1591 -0.2740  0.3262
 1037TIP3   OH227305   5.478   7.180   0.479  0.0028  0.8513 -0.1395
 1037TIP3    H127306   5.426   7.157   0.556  0.1956  0.2256 -0.1884
 1037TIP3    H227307   5.415   7.186   0.407  0.0074 -0.0597 -0.2293
 1038TIP3   OH227308   7.552   6.048   9.692  0.3493 -0.1468 -0.1753
 1038TIP3    H127309   7.608   6.014   9.762  1.5217  0.8866 -0.5700
 1038TIP3    H227310   7.464   6.049   9.729  0.9047  0.0856  1.1839
 1039TIP3   OH227311   6.674   6.596   1.897 -0.1734  0.1710  0.4175
 1039TIP3    H127312   6.721   6.570   1.977  2.0610 -1.2232 -1.2189
 1039TIP3    H227313   6.688   6.523   1.837 -0.9906  1.5707 -1.5759
 1040TIP3   OH227314   0.126   3.339   9.822 -0.7624 -0.1696  0.0856
 1040TIP3    H127315   0.161   3.393   9.892  1.9470 -0.2893 -1.0488
 1040TIP3    H227316   0.053   3.390   9.786 -0.7304  0.9187  1.5008
 1041TIP3   OH227317   0.772   3.398   0.724 -0.1822  0.2510  0.1579
 1041TIP3    H127318   0.688   3.442   0.741 -0.5433  0.0020 -0.8732
 1041TIP3    H227319   0.759   3.355   0.639  1.3192  1.0650 -0.5263
 1042TIP3   OH227320   2.342   4.403   2.857  0.8952 -0.5703 -0.5507
 1042TIP3    H127321   2.346   4.493   2.891 -0.6093 -0.1516 -1.3613
 1042TIP3    H227322   2.425   4.392   2.809  0.7783  0.6865 -1.0916
 1043TIP3   OH227323   0.039   7.441   2.661  0.1544 -0.1964  0.2642
 1043TIP3    H127324  -0.013   7.361   2.651 -2.5879  1.7335 -4.9610
 1043TIP3    H227325   0.112   7.430   2.601 -0.4121  1.2599 -0.7275
 1044TIP3   OH227326   0.354   4.670   7.469 -0.2085  0.1178 -0.0842
 1044TIP3    H127327   0.437   4.623   7.482 -0.4387  0.1136  1.6645
 1044TIP3    H227328   0.379   4.762   7.459  0.0105  0.1859  0.9412
 1045TIP3   OH227329   1.499   2.990   0.678 -0.2301 -0.0493 -0.4858
 1045TIP3    H127330   1.485   2.895   0.672 -0.0791 -0.2931  1.9198
 1045TIP3    H227331   1.414   3.029   0.660 -0.6144 -0.7210 -0.1403
 1046TIP3   OH227332   3.017   4.408   0.386  0.0490  0.2657  0.6292
 1046TIP3    H127333   2.955   4.403   0.314  0.0559 -0.1065  0.6446
 1046TIP3    H227334   3.077   4.478   0.362 -0.4423  0.7005  0.6657
 1047TIP3   OH227335   4.847   0.811   1.468 -0.1324  0.2233 -0.6795
 1047TIP3    H127336   4.771   0.756   1.487 -0.6811  1.4992  1.0368
 1047TIP3    H227337   4.912   0.786   1.532  1.0417 -1.0133 -2.2793
 1048TIP3   OH227338   6.949   6.009   1.418 -0.1279 -1.0701 -0.3220
 1048TIP3    H127339   6.908   5.957   1.487 -0.4810  0.9378  1.0613
 1048TIP3    H227340   7.027   6.048   1.459 -1.1821  1.4096 -0.4747
 1049TIP3   OH227341   0.751   6.093   0.718  0.3010  0.3149 -0.1216
 1049TIP3    H127342   0.773   6.030   0.649  1.6353 -1.2806  1.6562
 1049TIP3    H227343   0.820   6.160   0.712  0.9995 -0.3500  0.2561
 1050TIP3   OH227344   2.584   6.289   9.595 -0.1334 -0.3204  0.0327
 1050TIP3    H127345   2.606   6.348   9.523 -0.7760 -0.7272 -0.5091
 1050TIP3    H227346   2.647   6.310   9.664 -0.9462  1.7167  0.2391
 1051TIP3   OH227347   3.627   4.847   9.863  0.2732  0.3083  0.1015
 1051TIP3    H127348   3.630   4.941   9.879  0.6508  0.2576  0.3295
 1051TIP3    H227349   3.540   4.820   9.892  0.1618  0.5875  0.0268
 1052TIP3   OH227350   5.145   4.002   1.021 -0.1789  0.7669 -0.7645
 1052TIP3    H127351   5.235   4.010   1.053 -0.9147  1.3155  1.2947
 1052TIP3    H227352   5.152   3.943   0.945  1.4196 -2.3427  1.5825
 1053TIP3   OH227353   3.310   6.861   8.078  0.2976  0.0501  0.4873
 1053TIP3    H127354   3.299   6.895   8.166  0.5256  0.7835  0.2431
 1053TIP3    H227355   3.247   6.909   8.025  0.8549  0.3317  0.0746
 1054TIP3   OH227356   6.921   3.161   0.873  0.3263 -0.4932  0.2342
 1054TIP3    H127357   6.961   3.196   0.952 -1.2181 -0.5605  1.0926
 1054TIP3    H227358   6.992   3.118   0.826  0.9255 -2.3359  2.6198
 1055TIP3   OH227359   2.918   1.338   8.561 -0.1630 -0.4752  0.4720
 1055TIP3    H127360   2.924   1.431   8.540 -0.1841 -0.5511  0.1258
 1055TIP3    H227361   2.824   1.321   8.568 -0.2519 -0.8553 -1.2419
 1056TIP3   OH227362   5.619   6.122   0.588  0.6179 -0.7998 -0.1568
 1056TIP3    H127363   5.537   6.074   0.578  0.1326 -0.4092  1.6184
 1056TIP3    H227364   5.677   6.085   0.521 -0.6690 -1.7949 -0.7546
 1057TIP3   OH227365   1.218   1.077   1.664  0.4019 -0.0668 -0.2694
 1057TIP3    H127366   1.229   1.115   1.577  0.1995  1.2016  0.2508
 1057TIP3    H227367   1.307   1.057   1.693  0.6019  1.0938 -0.0693
 1058TIP3   OH227368   6.154   1.653   9.203 -0.8802 -0.8635 -0.2132
 1058TIP3    H127369   6.077   1.707   9.189 -0.4976  0.2077  1.4659
 1058TIP3    H227370   6.223   1.696   9.154 -1.3051 -1.7985 -1.6819
 1059TIP3   OH227371   1.822   2.652   0.070  0.1268 -0.4959  0.3070
 1059TIP3    H127372   1.865   2.699   0.141  0.1252  0.0612 -0.0531
 1059TIP3    H227373   1.821   2.561   0.098 -0.0188 -0.2601  1.0921
 1060TIP3   OH227374   2.476   5.172   1.066  0.5048  0.1436 -0.1223
 1060TIP3    H127375   2.454   5.081   1.043  0.6313 -0.2749  1.2609
 1060TIP3    H227376   2.437   5.225   0.998  0.2932 -0.9517 -0.8761
 1061TIP3   OH227377   3.773   5.528   9.555 -0.1321  0.4229 -0.3670
 1061TIP3    H127378   3.863   5.496   9.551 -0.4553 -0.4349 -1.1199
 1061TIP3    H227379   3.721   5.459   9.515 -1.1936  0.6932  0.4869
 1062TIP3   OH227380   1.649   5.376   8.762  0.9303 -0.1755  0.3425
 1062TIP3    H127381   1.671   5.457   8.808  0.0010  0.3233 -0.0650
 1062TIP3    H227382   1.681   5.390   8.673  0.1811  0.0216  0.0967
 1063TIP3   OH227383   6.669   2.638   9.568  0.0179  0.2305 -0.3839
 1063TIP3    H127384   6.662   2.639   9.663 -0.4897 -1.3476 -0.3632
 1063TIP3    H227385   6.726   2.564   9.549  1.1194  1.2818 -1.2815
 1064TIP3   OH227386   0.053   1.649   1.897 -0.4544  0.4109 -0.4228
 1064TIP3    H127387  -0.041   1.662   1.910 -0.5577 -1.7427  1.6148
 1064TIP3    H227388   0.094   1.712   1.957 -0.5873  0.7876 -0.7193
 1065TIP3   OH227389   4.414   3.110   9.095  0.1054  1.2909  0.0324
 1065TIP3    H127390   4.329   3.142   9.067  0.2039  1.1356 -0.4693
 1065TIP3    H227391   4.398   3.065   9.178 -0.2528  1.4955  0.0737
 1066TIP3   OH227392   1.041   2.604   1.667  0.3096 -0.2171 -0.4885
 1066TIP3    H127393   0.980   2.665   1.626 -1.0667 -0.9016  0.4300
 1066TIP3    H227394   1.084   2.655   1.735 -1.2816 -0.3562  0.6865
 1067TIP3   OH227395   2.732   6.109   9.442  0.0392 -0.4805  0.5616
 1067TIP3    H127396   2.820   6.102   9.405  0.7983  0.6447  2.0216
 1067TIP3    H227397   2.727   6.199   9.474 -1.8675 -0.3475  0.0360
 1068TIP3   OH227398   7.097   2.806   9.167  0.1035 -0.3096  0.0610
 1068TIP3    H127399   7.028   2.773   9.225  0.1709  0.7863  0.7765
 1068TIP3    H227400   7.057   2.805   9.080  0.1858 -2.5061 -0.0241
 1069TIP3   OH227401   2.870   2.454   0.570  0.0123  0.1149 -0.1778
 1069TIP3    H127402   2.917   2.372   0.553 -0.6127 -0.0840 -1.0514
 1069TIP3    H227403   2.843   2.448   0.661 -1.5252 -1.4797 -0.6700
 1070TIP3   OH227404   4.255   0.247   7.341  0.7249  0.1943 -0.0855
 1070TIP3    H127405   4.231   0.184   7.272  0.3263  0.2766 -0.0267
 1070TIP3    H227406   4.268   0.329   7.294  1.1740  0.0867 -0.1528
 1071TIP3   OH227407   7.385   0.678   1.757 -0.5067  0.1362  0.1241
 1071TIP3    H127408   7.408   0.696   1.849 -0.1822 -0.6348  0.1955
 1071TIP3    H227409   7.459   0.629   1.723 -1.3738 -1.0752 -0.0703
 1072TIP3   OH227410   4.486   1.777   0.707 -0.0298 -0.2132 -0.6621
 1072TIP3    H127411   4.490   1.681   0.707  0.6582 -0.2059  0.1485
 1072TIP3    H227412   4.532   1.803   0.627 -0.2164 -0.5637 -0.8852
 1073TIP3   OH227413   4.997   3.830   7.553 -0.1220  0.0307 -0.2040
 1073TIP3    H127414   5.072   3.795   7.506  0.6821  1.2523  0.1051
 1073TIP3    H227415   5.001   3.925   7.537 -0.3126  0.3729  1.6187
 1074TIP3   OH227416   5.001   4.919   0.277 -0.2339  0.1788  0.0752
 1074TIP3    H127417   5.028   4.877   0.195 -0.9290  0.5673 -0.3619
 1074TIP3    H227418   4.963   4.849   0.329  2.0459 -0.5083  0.9352
 1075TIP3   OH227419   7.281   6.129   0.047  0.3119 -0.4670  0.1466
 1075TIP3    H127420   7.237   6.086   0.121  0.8488 -0.0713  0.6940
 1075TIP3    H227421   7.274   6.065  -0.024 -3.5715  0.5509 -0.6738
 1076TIP3   OH227422   3.830   4.229   9.339 -0.2170 -0.3182 -0.0753
 1076TIP3    H127423   3.858   4.146   9.299 -0.8322  0.5886 -2.5841
 1076TIP3    H227424   3.744   4.210   9.376  0.3034 -1.1496  0.7642
 1077TIP3   OH227425   2.361   3.975   7.420  0.0650 -0.1214 -0.0354
 1077TIP3    H127426   2.274   3.948   7.447  0.4120 -1.3867 -0.1203
 1077TIP3    H227427   2.347   4.031   7.344 -0.7628  1.2488  1.0762
 1078TIP3   OH227428   7.558   5.428   0.646 -0.0865  0.5315  0.1268
 1078TIP3    H127429   7.472   5.468   0.641 -1.0574 -1.2961  1.1010
 1078TIP3    H227430   7.589   5.447   0.734 -0.4255 -0.5044  0.4931
 1079TIP3   OH227431   5.888   0.795   2.091  0.3196  0.6394  0.2601
 1079TIP3    H127432   5.840   0.737   2.031  1.4068 -1.3470  1.2098
 1079TIP3    H227433   5.852   0.776   2.177  0.5920  1.5263  0.5812
 1080TIP3   OH227434   7.608   4.290   9.448 -0.3721 -0.3352  0.6056
 1080TIP3    H127435   7.636   4.372   9.406  1.8832 -0.8457  0.9739
 1080TIP3    H227436   7.516   4.281   9.423 -0.1397  1.2656 -1.1223
 1081TIP3   OH227437   0.499   3.044   1.843 -0.0168  0.2691 -0.4815
 1081TIP3    H127438   0.466   2.964   1.801  0.0736  0.5778 -1.1579
 1081TIP3    H227439   0.480   3.113   1.780 -0.0439  0.7727  0.0778
 1082TIP3   OH227440   1.036   0.228   9.758  0.5157 -0.0213 -0.5174
 1082TIP3    H127441   1.027   0.281   9.679 -0.7448 -0.1855 -0.5025
 1082TIP3    H227442   1.041   0.138   9.726  1.2797 -0.0093 -0.4641
 1083TIP3   OH227443   6.556   2.274   1.690 -0.0302 -0.3287 -0.0271
 1083TIP3    H127444   6.620   2.254   1.621 -0.1725 -0.7696 -0.0336
 1083TIP3    H227445   6.481   2.218   1.671  0.3330 -1.2347  1.0800
 1084TIP3   OH227446   1.365   7.237   0.512  0.1764 -0.1784  0.5933
 1084TIP3    H127447   1.447   7.188   0.508  1.0820  1.3309 -0.1824
 1084TIP3    H227448   1.310   7.199   0.444  0.4114 -0.8494  0.7721
 1085TIP3   OH227449   5.701   3.631   0.221 -0.2118  0.0125  0.2681
 1085TIP3    H127450   5.773   3.660   0.165  0.1171 -1.2072  0.0159
 1085TIP3    H227451   5.622   3.643   0.168  0.1191 -1.3375 -0.5782
 1086TIP3   OH227452   1.447   5.998   7.344  0.4612 -0.2803  0.0198
 1086TIP3    H127453   1.510   6.037   7.282 -0.3492 -0.2956 -0.8291
 1086TIP3    H227454   1.502   5.964   7.415  1.3855  0.0635 -0.5100
 1087TIP3   OH227455   7.248   6.368   9.855 -0.2048 -0.2711 -0.2167
 1087TIP3    H127456   7.237   6.307   9.929  0.0066 -0.6045 -0.4596
 1087TIP3    H227457   7.163   6.411   9.848  0.0171  0.3769  0.7560
 1088TIP3   OH227458   0.728   1.490   0.219  0.0159 -0.3938 -0.4223
 1088TIP3    H127459   0.696   1.428   0.153 -0.1967  1.2739 -1.9880
 1088TIP3    H227460   0.806   1.450   0.255 -0.2235 -1.6513 -1.2553
 1089TIP3   OH227461   2.147   4.201   2.799  0.9029 -0.0132 -0.3354
 1089TIP3    H127462   2.172   4.273   2.857  0.0181  0.3706 -0.4156
 1089TIP3    H227463   2.070   4.234   2.752 -0.4884 -1.5365  0.7497
 1090TIP3   OH227464   0.180   1.776   7.953 -0.0391  0.5125  0.3558
 1090TIP3    H127465   0.144   1.718   7.885  1.9758  0.2654 -0.5554
 1090TIP3    H227466   0.105   1.793   8.011 -1.4972 -0.3394 -1.1697
 1091TIP3   OH227467   7.433   4.229   8.081 -0.2504  0.9182  0.1148
 1091TIP3    H127468   7.511   4.203   8.131 -1.5243 -0.5013  1.4722
 1091TIP3    H227469   7.458   4.215   7.990  0.5654 -1.1927  0.5868
 1092TIP3   OH227470   5.348   4.159   2.120  0.6441  0.0114  0.4578
 1092TIP3    H127471   5.333   4.140   2.213 -0.8643 -0.0863  0.2116
 1092TIP3    H227472   5.393   4.244   2.121 -1.6517  1.2921  1.2297
 1093TIP3   OH227473   5.779   4.376   1.649 -0.2386  0.1829  0.2425
 1093TIP3    H127474   5.702   4.322   1.631 -0.3808  0.3958  0.2054
 1093TIP3    H227475   5.841   4.317   1.693 -0.2706 -0.0881 -0.0773
 1094TIP3   OH227476   5.233   4.158   1.300  0.3762  0.0571  0.4119
 1094TIP3    H127477   5.314   4.201   1.327  0.0165  1.1807 -0.2567
 1094TIP3    H227478   5.222   4.183   1.209 -0.3221 -0.7303  0.2759
 1095TIP3   OH227479   7.536   7.343   0.699 -0.2290 -0.4899 -0.2553
 1095TIP3    H127480   7.521   7.408   0.767  0.7159 -0.1368 -0.3630
 1095TIP3    H227481   7.611   7.377   0.649  0.4756 -1.7871 -0.1382
 1096TIP3   OH227482   3.655   5.836   6.332  0.0363 -0.4024  0.0783
 1096TIP3    H127483   3.604   5.851   6.412  1.0673  1.0710  0.4963
 1096TIP3    H227484   3.595   5.789   6.274 -1.2624 -0.0984  1.1322
 1097TIP3   OH227485   6.529   4.972   2.085  0.3494  0.0666  0.8346
 1097TIP3    H127486   6.455   5.026   2.113  1.4172 -0.1048  4.5724
 1097TIP3    H227487   6.605   5.030   2.091  0.8054 -0.1948 -1.4097
 1098TIP3   OH227488   0.437   6.295   0.364 -0.3353  0.3175 -0.2216
 1098TIP3    H127489   0.442   6.273   0.271 -0.0243  0.3611 -0.2186
 1098TIP3    H227490   0.509   6.357   0.377 -0.9882  1.0755 -0.1573
 1099TIP3   OH227491   4.476   6.373   2.175  0.3964 -0.1874  0.4919
 1099TIP3    H127492   4.439   6.288   2.201  1.5310 -1.3641 -1.4327
 1099TIP3    H227493   4.494   6.417   2.257  0.6095 -2.2160  1.6165
 1100TIP3   OH227494   3.798   7.325   0.584  0.1471  0.1158 -0.1422
 1100TIP3    H127495   3.715   7.367   0.562 -0.0385 -0.7556 -1.2164
 1100TIP3    H227496   3.773   7.238   0.616  0.6188  0.0851  0.1556
 1101TIP3   OH227497   3.567   6.140   6.583  0.0356  0.0251  0.3108
 1101TIP3    H127498   3.648   6.191   6.573 -0.3795  0.4410 -1.2780
 1101TIP3    H227499   3.497   6.204   6.576 -0.5176 -0.7256 -2.4191
 1102TIP3   OH227500   0.616   5.690   1.631  0.2216  0.2587  0.2057
 1102TIP3    H127501   0.557   5.729   1.566 -1.2013 -0.4192  1.0309
 1102TIP3    H227502   0.701   5.731   1.614 -0.7171  2.0789 -0.3449
 1103TIP3   OH227503   4.553   6.730   8.778 -0.2193  0.6256 -0.1994
 1103TIP3    H127504   4.466   6.764   8.758 -1.4477 -1.8463  0.5647
 1103TIP3    H227505   4.556   6.726   8.874 -0.4164 -1.8445 -0.2261
 1104TIP3   OH227506   6.897   3.075   9.805 -0.2155  0.1722 -0.0283
 1104TIP3    H127507   6.843   3.008   9.762 -0.7098  1.1934 -1.0588
 1104TIP3    H227508   6.954   3.026   9.864 -2.0752 -0.9874  0.8936
 1105TIP3   OH227509   2.958   5.590   0.775 -0.0169 -0.6146  0.0007
 1105TIP3    H127510   3.047   5.574   0.808 -0.0973 -1.5189 -0.1889
 1105TIP3    H227511   2.914   5.635   0.847 -0.0216 -2.0696  0.9542
 1106TIP3   OH227512   5.385   6.915   0.310 -0.5911 -0.0836  0.1554
 1106TIP3    H127513   5.323   6.877   0.248  0.4683  0.4216 -1.2876
 1106TIP3    H227514   5.373   7.010   0.302  0.7078  0.0480 -0.5716
 1107TIP3   OH227515   3.242   6.566   9.674 -0.2905  0.2262  0.4562
 1107TIP3    H127516   3.317   6.620   9.701  0.1140 -1.6870  3.7296
 1107TIP3    H227517   3.170   6.597   9.728 -0.4872 -1.2512  1.0970
 1108TIP3   OH227518   5.670   4.380   0.632  0.0933  0.0686  0.7293
 1108TIP3    H127519   5.761   4.397   0.657  1.3852 -1.2470 -2.5472
 1108TIP3    H227520   5.660   4.422   0.547 -2.6274  0.7162  1.2843
 1109TIP3   OH227521   3.206   6.414   8.858 -0.5057  0.6870  0.3628
 1109TIP3    H127522   3.168   6.399   8.772 -0.7299 -0.5963  0.6551
 1109TIP3    H227523   3.292   6.452   8.840  0.0549 -0.8855 -0.5202
 1110TIP3   OH227524   2.542   3.456   7.947  0.0971 -0.4274  0.5501
 1110TIP3    H127525   2.559   3.495   7.861 -1.1144 -2.0358 -0.4915
 1110TIP3    H227526   2.629   3.442   7.985  0.6603  0.1385 -0.4840
 1111TIP3   OH227527   5.703   7.130   1.382 -0.4202 -0.1753  0.1311
 1111TIP3    H127528   5.620   7.162   1.347  0.3082  0.4208 -1.1296
 1111TIP3    H227529   5.747   7.209   1.415  0.5619 -0.1252 -1.2261
 1112TIP3   OH227530   1.127   0.820   3.195  0.4199 -0.4616 -0.0736
 1112TIP3    H127531   1.143   0.851   3.106  1.5468  0.2939  0.3744
 1112TIP3    H227532   1.031   0.819   3.202  0.1867  3.5919  0.0412
 1113TIP3   OH227533   1.533   3.627   2.095  0.1303 -0.0930 -0.0548
 1113TIP3    H127534   1.477   3.550   2.096  1.6517 -1.2622 -0.1543
 1113TIP3    H227535   1.515   3.672   2.177 -1.1022 -0.2896 -0.2015
 1114TIP3   OH227536   1.247   1.377   8.703  0.5102 -0.0868  0.0722
 1114TIP3    H127537   1.217   1.452   8.653  3.3435  3.2764  2.8504
 1114TIP3    H227538   1.179   1.364   8.769 -0.1110 -0.1678 -0.5686
 1115TIP3   OH227539   4.106   5.915   9.313 -0.1176 -0.0137 -0.5019
 1115TIP3    H127540   4.169   5.968   9.362  0.8432 -1.0376 -0.6004
 1115TIP3    H227541   4.024   5.924   9.361 -0.0082  1.5941 -0.5416
 1116TIP3   OH227542   2.528   6.795   8.668 -0.0510 -0.6372  0.5351
 1116TIP3    H127543   2.446   6.772   8.712 -0.2416  0.6577  0.8953
 1116TIP3    H227544   2.505   6.801   8.575 -0.6353  0.7280  0.7380
 1117TIP3   OH227545   6.208   0.176   9.408 -0.7683 -0.1356  0.8791
 1117TIP3    H127546   6.128   0.167   9.357 -0.5869 -0.3322  0.6275
 1117TIP3    H227547   6.278   0.182   9.343 -0.5966  0.2173  1.0946
 1118TIP3   OH227548   5.805   7.071   7.669 -0.0185 -0.3557  0.4470
 1118TIP3    H127549   5.859   7.148   7.649 -0.5552 -0.3787 -1.2082
 1118TIP3    H227550   5.718   7.092   7.636  0.2824 -2.4080 -1.9909
 1119TIP3   OH227551   5.675   0.253   7.371  0.0274 -1.0031 -0.2088
 1119TIP3    H127552   5.645   0.250   7.280  1.6958  0.2646 -0.8689
 1119TIP3    H227553   5.642   0.336   7.404  4.0742  1.4658 -1.5895
 1120TIP3   OH227554   4.113   4.385   9.186 -0.1152  0.4938 -0.1022
 1120TIP3    H127555   4.123   4.481   9.190 -0.1567  0.6353 -2.2921
 1120TIP3    H227556   4.026   4.372   9.148  0.3375 -0.3916 -0.8669
 1121TIP3   OH227557   6.409   6.291   8.228  0.1717  0.4239  0.0465
 1121TIP3    H127558   6.467   6.215   8.238  0.0966  0.2997 -0.4798
 1121TIP3    H227559   6.389   6.317   8.318  1.9693  1.1743  0.2806
 1122TIP3   OH227560   4.874   4.365   8.256  0.1133  0.4102 -0.1417
 1122TIP3    H127561   4.960   4.332   8.228 -0.4406 -0.2462 -1.1593
 1122TIP3    H227562   4.823   4.286   8.273 -0.0708  0.7978  1.2138
 1123TIP3   OH227563   3.011   5.197   8.361  0.0190  0.2237 -0.0933
 1123TIP3    H127564   2.956   5.214   8.284  0.0537  0.6868 -0.0164
 1123TIP3    H227565   3.094   5.240   8.341  0.8332 -1.5772 -0.7783
 1124TIP3   OH227566   1.226   4.686   0.285 -0.0241  0.0962  0.2683
 1124TIP3    H127567   1.237   4.732   0.202  0.6341 -0.3960  0.0710
 1124TIP3    H227568   1.185   4.750   0.343  1.9454  1.3817  0.3705
 1125TIP3   OH227569   3.500   0.533   1.104 -0.4293 -0.1106  0.6433
 1125TIP3    H127570   3.546   0.614   1.126 -2.4863  1.8646 -1.7815
 1125TIP3    H227571   3.534   0.509   1.018 -1.4144 -0.5616  0.3682
 1126TIP3   OH227572   4.130   0.243   7.614  0.0814  0.2681 -0.2322
 1126TIP3    H127573   4.148   0.256   7.521  2.1565 -0.5061 -0.0020
 1126TIP3    H227574   4.138   0.331   7.652 -2.4824  0.8924 -0.9635
 1127TIP3   OH227575   5.590   1.378   0.577 -0.1899 -0.4143 -0.0901
 1127TIP3    H127576   5.670   1.400   0.529  1.0588 -0.6053  1.8016
 1127TIP3    H227577   5.549   1.463   0.595 -1.4131 -0.3877 -2.5501
 1128TIP3   OH227578   6.776   4.257   9.384 -0.2792  0.0610 -0.0338
 1128TIP3    H127579   6.815   4.173   9.361 -0.4955  0.0493 -0.3692
 1128TIP3    H227580   6.687   4.253   9.349  0.0352  0.8201 -0.9712
 1129TIP3   OH227581   5.698   0.851   0.064  0.0807  0.0244  0.4956
 1129TIP3    H127582   5.777   0.904   0.049 -0.5750  0.6311 -1.0564
 1129TIP3    H227583   5.641   0.907   0.117  0.1966  0.0677  0.5757
 1130TIP3   OH227584   0.969   0.568   9.971 -0.2319 -0.0453 -0.3070
 1130TIP3    H127585   1.052   0.527   9.944 -0.2761 -0.5344  0.3024
 1130TIP3    H227586   0.950   0.531  10.057 -0.6757  0.6741 -0.0878
 1131TIP3   OH227587   7.258   0.962   8.570 -0.3344 -0.3081 -0.4342
 1131TIP3    H127588   7.299   1.009   8.497 -1.3055 -0.7569 -1.2900
 1131TIP3    H227589   7.267   1.022   8.644 -0.1092  0.5369 -1.1191
 1132TIP3   OH227590   4.272   2.276   8.382 -0.2931 -0.1849  0.3987
 1132TIP3    H127591   4.192   2.322   8.407 -0.5633 -0.2664 -0.2982
 1132TIP3    H227592   4.301   2.320   8.302  2.7506  2.7425  2.8263
 1133TIP3   OH227593   2.778   0.363   7.338 -0.0362  0.0784 -0.5389
 1133TIP3    H127594   2.718   0.315   7.281 -1.1422 -0.3507  0.9192
 1133TIP3    H227595   2.739   0.450   7.345  0.5511  0.3901 -1.0967
 1134TIP3   OH227596   3.407   2.689   8.616  0.6629  0.3169 -0.2120
 1134TIP3    H127597   3.426   2.767   8.564 -1.3859  0.9829 -0.0538
 1134TIP3    H227598   3.417   2.718   8.707  0.1984  0.3086 -0.1584
 1135TIP3   OH227599   4.030   5.993   0.713 -0.2250 -0.1989 -0.9855
 1135TIP3    H127600   4.122   5.992   0.740  0.1031  0.6204 -1.9869
 1135TIP3    H227601   3.989   5.922   0.763  1.2033 -1.3573 -1.3832
 1136TIP3   OH227602   4.961   1.455   8.634  0.5263 -0.4195  0.2555
 1136TIP3    H127603   5.006   1.500   8.563 -0.7598 -0.8496 -0.8612
 1136TIP3    H227604   5.031   1.433   8.696  1.9134 -1.3297 -1.5347
 1137TIP3   OH227605   2.441   5.159   2.199 -0.0090  0.0015 -0.4034
 1137TIP3    H127606   2.360   5.209   2.209  0.4972  0.4331  2.1019
 1137TIP3    H227607   2.435   5.121   2.111 -2.6978  0.3799 -0.4579
 1138TIP3   OH227608   0.776   4.474   9.775  0.2024 -0.3815  0.2666
 1138TIP3    H127609   0.722   4.490   9.852 -0.6127  1.4810 -0.6273
 1138TIP3    H227610   0.825   4.555   9.763 -1.1384  0.1473 -2.2522
 1139TIP3   OH227611   5.261   7.194   1.798 -0.0349 -0.5438 -0.2189
 1139TIP3    H127612   5.210   7.255   1.851  2.0566 -0.6837  2.1603
 1139TIP3    H227613   5.289   7.246   1.722  0.3290  1.0189  0.9214
 1140TIP3   OH227614   5.340   1.492   1.652 -0.1352  0.6277 -0.2275
 1140TIP3    H127615   5.316   1.499   1.744  1.4511  1.6494  0.1401
 1140TIP3    H227616   5.256   1.487   1.605 -0.9755 -1.4333  1.3363
 1141TIP3   OH227617   6.864   3.855   0.401  0.0012 -0.0914 -0.3508
 1141TIP3    H127618   6.829   3.786   0.344 -1.3550 -0.5338  0.9486
 1141TIP3    H227619   6.787   3.888   0.447  0.9800  0.6687  0.7809
 1142TIP3   OH227620   1.593   1.092   2.104  0.3551 -0.4384  0.1205
 1142TIP3    H127621   1.505   1.058   2.124 -0.0087  1.0982  1.3680
 1142TIP3    H227622   1.643   1.077   2.184  0.6228  0.5257  0.1428
 1143TIP3   OH227623   4.563   7.357   9.467 -0.2428 -1.1531 -0.3954
 1143TIP3    H127624   4.586   7.408   9.390  2.0257  0.7596  1.4069
 1143TIP3    H227625   4.517   7.418   9.525  0.3975 -1.7939  0.8392
 1144TIP3   OH227626   0.305   2.380   1.238  0.8389  0.4104 -0.3850
 1144TIP3    H127627   0.234   2.443   1.234  0.8614  0.4796  0.2552
 1144TIP3    H227628   0.333   2.369   1.147 -2.2673 -2.2592 -1.2166
 1145TIP3   OH227629   5.038   0.874   0.655 -0.0517 -0.2051  0.2949
 1145TIP3    H127630   5.097   0.811   0.613  1.8961  0.4285  1.9712
 1145TIP3    H227631   5.079   0.894   0.738 -2.3457  0.7785  1.2749
 1146TIP3   OH227632   4.929   5.317   7.678 -0.4072 -0.1051 -1.1178
 1146TIP3    H127633   4.889   5.400   7.703 -0.3866  0.2158 -2.1153
 1146TIP3    H227634   4.924   5.316   7.582 -0.6516 -1.3782 -1.0995
 1147TIP3   OH227635   4.581   0.194   8.620  0.1393  0.0419  0.0569
 1147TIP3    H127636   4.530   0.213   8.542 -0.0033 -0.8735 -0.0882
 1147TIP3    H227637   4.535   0.121   8.662  0.8122 -0.1914  0.4096
 1148TIP3   OH227638   2.049   4.975   0.763 -0.0938 -0.1988 -0.5447
 1148TIP3    H127639   2.098   4.901   0.727 -1.2605 -0.6842 -1.1891
 1148TIP3    H227640   1.964   4.971   0.719 -0.7184  0.6186  0.5390
 1149TIP3   OH227641   1.621   3.221   9.839  0.3462 -0.3079 -0.2602
 1149TIP3    H127642   1.554   3.180   9.784  0.6921 -0.5883 -0.4726
 1149TIP3    H227643   1.668   3.148   9.879  0.4799 -0.1115 -0.0564
 1150TIP3   OH227644   4.335   6.953   8.048  0.3130 -0.0122 -0.5496
 1150TIP3    H127645   4.399   7.015   8.082  0.4997  0.2102 -1.2898
 1150TIP3    H227646   4.270   7.007   8.004  0.1468 -0.3045 -0.6688
 1151TIP3   OH227647   7.132   4.095   0.406 -0.2905 -0.4667  0.0957
 1151TIP3    H127648   7.093   4.122   0.489 -0.4723 -1.1194  0.2253
 1151TIP3    H227649   7.134   4.000   0.409 -0.5851 -0.5151 -0.7791
 1152TIP3   OH227650   1.873   7.173   2.355 -0.3687 -0.7218  0.1196
 1152TIP3    H127651   1.823   7.243   2.311 -1.1379 -1.9026 -0.9489
 1152TIP3    H227652   1.948   7.219   2.393 -0.3763  0.5726 -1.3005
 1153TIP3   OH227653   0.703   4.334   0.166 -0.5965  0.1710 -0.1602
 1153TIP3    H127654   0.644   4.320   0.240  0.4845  0.5966  0.8221
 1153TIP3    H227655   0.791   4.330   0.205  0.0703 -1.0761 -1.6669
 1154TIP3   OH227656   4.210   2.856   0.199 -0.2717 -0.0323 -0.2573
 1154TIP3    H127657   4.208   2.858   0.295 -1.2144 -0.2943 -0.2524
 1154TIP3    H227658   4.293   2.897   0.175 -0.4720  0.9451  0.6489
 1155TIP3   OH227659   2.615   2.656   2.503  0.2760  0.2052 -0.0368
 1155TIP3    H127660   2.531   2.678   2.464  0.1528  0.6008  0.4430
 1155TIP3    H227661   2.674   2.727   2.478  0.1959  0.4606  0.4920
 1156TIP3   OH227662   2.631   1.837   9.627 -0.3697 -0.1091  0.7594
 1156TIP3    H127663   2.674   1.752   9.616 -0.2989 -0.1110  1.0407
 1156TIP3    H227664   2.546   1.816   9.668 -0.4376 -0.0639  0.6412
 1157TIP3   OH227665   2.887   1.586   2.900 -0.1415 -0.2860 -0.0096
 1157TIP3    H127666   2.792   1.578   2.893 -0.1218  0.3380 -1.0886
 1157TIP3    H227667   2.921   1.525   2.835  0.2068 -0.4737  0.3415
 1158TIP3   OH227668   6.579   0.188   7.608 -0.0784 -0.5335 -0.3792
 1158TIP3    H127669   6.660   0.222   7.646  0.1094 -2.3502  0.9748
 1158TIP3    H227670   6.608   0.126   7.541 -0.3815 -0.1320 -0.8901
 1159TIP3   OH227671   1.600   4.306   9.797  0.1788  0.4592 -0.6880
 1159TIP3    H127672   1.564   4.301   9.886 -0.0730 -0.6647 -0.8411
 1159TIP3    H227673   1.599   4.216   9.766  2.1554  0.5291 -1.0990
 1160TIP3   OH227674   4.795   6.704   9.267 -0.7499 -0.3295 -0.6193
 1160TIP3    H127675   4.767   6.790   9.235 -1.5071  0.5964  2.2320
 1160TIP3    H227676   4.890   6.712   9.278 -0.9331  0.5306  0.5433
 1161TIP3   OH227677   7.588   3.174   9.945  0.7079  0.6876 -0.0207
 1161TIP3    H127678   7.503   3.159   9.903  0.6667 -1.1865  0.6143
 1161TIP3    H227679   7.638   3.225   9.882  0.5564 -1.7340 -2.3007
 1162TIP3   OH227680   4.338   3.651   2.304  0.1483  0.1722  0.3847
 1162TIP3    H127681   4.378   3.590   2.241  0.4299 -0.8406  1.4952
 1162TIP3    H227682   4.300   3.594   2.371  0.3886  1.2267  1.4466
 1163TIP3   OH227683   4.198   5.331   7.598 -0.3020 -0.2607 -0.0508
 1163TIP3    H127684   4.170   5.359   7.510 -0.7161 -0.3489  0.0509
 1163TIP3    H227685   4.282   5.289   7.584 -1.2114 -1.9566 -0.6744
 1164TIP3   OH227686   5.961   1.861   0.559  0.5992 -0.0421  0.0345
 1164TIP3    H127687   5.963   1.784   0.501  1.0621 -1.0246  1.2989
 1164TIP3    H227688   5.876   1.902   0.542  1.3393  0.6231 -2.4455
 1165TIP3   OH227689   1.856   2.380   2.965 -0.0165  0.3081 -0.4919
 1165TIP3    H127690   1.837   2.463   3.009 -0.1935  0.2520 -0.4607
 1165TIP3    H227691   1.875   2.405   2.875 -0.3631  0.3525 -0.5512
 1166TIP3   OH227692   1.889   1.888   0.486  0.4038  0.1656  0.2218
 1166TIP3    H127693   1.916   1.873   0.577  1.3144  1.9962  0.2895
 1166TIP3    H227694   1.795   1.869   0.486  0.4332 -0.0586  1.5098
 1167TIP3   OH227695   4.418   7.008   0.924 -0.0583 -0.0555 -0.2450
 1167TIP3    H127696   4.396   6.917   0.903  0.8518 -0.2990 -0.2003
 1167TIP3    H227697   4.480   7.033   0.855 -0.5100  0.6237 -0.4102
 1168TIP3   OH227698   2.006   7.381   8.039 -0.6798 -0.4918 -0.0477
 1168TIP3    H127699   2.066   7.323   8.086 -0.9206 -0.4706  0.2817
 1168TIP3    H227700   1.985   7.450   8.101 -1.0440 -0.4951 -0.1648
 1169TIP3   OH227701   7.146   1.729   8.885  0.2198  0.1723 -0.6386
 1169TIP3    H127702   7.167   1.655   8.829  0.1682  0.8505 -1.5865
 1169TIP3    H227703   7.109   1.795   8.825  0.4336  1.0266  0.1370
 1170TIP3   OH227704   3.593   3.856   7.720 -0.0141 -0.6178  0.2070
 1170TIP3    H127705   3.630   3.845   7.808 -1.2864 -3.3404  0.5018
 1170TIP3    H227706   3.618   3.777   7.673 -0.0888  0.4007 -1.6479
 1171TIP3   OH227707   4.100   6.503   0.149  0.4348  0.2246 -0.2188
 1171TIP3    H127708   4.176   6.452   0.121  0.3775  0.7145 -1.3333
 1171TIP3    H227709   4.088   6.480   0.241  1.1882 -0.7827 -0.3507
 1172TIP3   OH227710   5.203   3.516   2.301  0.6312 -0.2574  0.3958
 1172TIP3    H127711   5.231   3.428   2.274  0.0153 -1.0758  2.2858
 1172TIP3    H227712   5.285   3.566   2.308  0.9491 -0.5251 -1.1254
 1173TIP3   OH227713   1.666   2.157   8.472  0.0361  0.1468 -0.1093
 1173TIP3    H127714   1.709   2.175   8.389 -0.5589 -1.0069 -0.7006
 1173TIP3    H227715   1.723   2.196   8.538  1.2666 -0.1570 -0.9606
 1174TIP3   OH227716   1.321   3.013   1.456 -0.2432  0.5848  0.4130
 1174TIP3    H127717   1.310   3.059   1.540 -1.7694 -0.5856  0.8998
 1174TIP3    H227718   1.395   3.057   1.414  0.0278  1.7381  2.0086
 1175TIP3   OH227719   3.198   5.389   7.574 -0.0423  0.0857  0.2552
 1175TIP3    H127720   3.279   5.349   7.607  0.0320  0.3177  0.3515
 1175TIP3    H227721   3.226   5.450   7.506 -0.2860 -1.3889 -1.2414
 1176TIP3   OH227722   5.040   1.773   1.846 -0.5669  0.1438 -0.0178
 1176TIP3    H127723   5.052   1.868   1.846  1.3783 -0.0656  0.1117
 1176TIP3    H227724   5.059   1.746   1.936  0.3937 -0.5099 -0.4006
 1177TIP3   OH227725   3.050   4.712   0.623  0.4770  0.2537  0.0933
 1177TIP3    H127726   3.095   4.796   0.626  2.4154 -0.6672 -0.7180
 1177TIP3    H227727   3.102   4.659   0.561  0.6357 -2.2112  2.1492
 1178TIP3   OH227728   7.633   0.303   8.871 -0.4191 -0.4222  0.2085
 1178TIP3    H127729   7.717   0.259   8.878 -1.3443 -2.3836 -0.3635
 1178TIP3    H227730   7.654   0.396   8.879  1.4736 -0.9463  2.9250
 1179TIP3   OH227731   1.323   6.784   0.746  0.3236 -0.2272  1.0088
 1179TIP3    H127732   1.268   6.744   0.678 -0.1411  0.1833  1.1438
 1179TIP3    H227733   1.283   6.868   0.764  1.6155  0.5603  0.3429
 1180TIP3   OH227734   5.220   0.019   1.813  0.1436 -0.1113 -0.1289
 1180TIP3    H127735   5.156   0.087   1.794  0.6076  0.1858 -0.6632
 1180TIP3    H227736   5.288   0.031   1.747  0.1347 -1.2177 -0.3682
 1181TIP3   OH227737   3.755   1.035   8.479  0.9482 -0.6470 -0.0786
 1181TIP3    H127738   3.668   1.055   8.445  0.5523 -1.2965  0.5291
 1181TIP3    H227739   3.741   0.965   8.543  2.1152 -1.9238 -1.1485
 1182TIP3   OH227740   6.814   7.343   9.718 -0.9375  0.8519 -0.2741
 1182TIP3    H127741   6.781   7.410   9.658 -2.0097  0.6353  0.0570
 1182TIP3    H227742   6.814   7.262   9.667 -1.1663  0.8000 -0.1892
 1183TIP3   OH227743   0.235   2.916   8.794  0.2731  0.8473  0.1699
 1183TIP3    H127744   0.271   2.843   8.844 -1.9050 -0.2675  0.2356
 1183TIP3    H227745   0.295   2.926   8.720  2.0805  0.8064  1.5303
 1184TIP3   OH227746   2.346   6.580   0.249 -0.3682  0.2822 -0.6507
 1184TIP3    H127747   2.417   6.644   0.239 -0.3056  0.2709 -0.3060
 1184TIP3    H227748   2.292   6.591   0.171 -0.4648  0.8934 -0.5002
 1185TIP3   OH227749   7.007   4.250   7.565  0.2173 -0.4622 -0.0280
 1185TIP3    H127750   7.102   4.241   7.568  0.1136 -1.4289  2.4194
 1185TIP3    H227751   6.991   4.342   7.585  0.6294 -0.6455  1.2367
 1186TIP3   OH227752   0.965   1.969   2.718  0.4835 -0.0901 -0.4162
 1186TIP3    H127753   0.903   1.961   2.791  0.3694  2.0522 -0.2142
 1186TIP3    H227754   0.910   1.989   2.642  0.6955 -1.2510 -0.8976
 1187TIP3   OH227755   5.153   7.571   0.735  0.3907 -0.6327 -0.1093
 1187TIP3    H127756   5.157   7.663   0.712 -0.0512 -0.3572  0.8797
 1187TIP3    H227757   5.191   7.566   0.823 -0.0432 -1.3168  0.0454
 1188TIP3   OH227758   5.388   2.197   8.344 -0.1051  0.6629 -0.6685
 1188TIP3    H127759   5.478   2.207   8.377 -0.2624  0.1611 -0.0584
 1188TIP3    H227760   5.390   2.113   8.297 -0.7979 -0.5015  1.2957
 1189TIP3   OH227761   7.546   0.298   7.862 -0.2618  0.1973  0.0880
 1189TIP3    H127762   7.511   0.231   7.803  0.2084  0.8711 -0.9854
 1189TIP3    H227763   7.525   0.266   7.950  0.6244 -1.7476 -0.3509
 1190TIP3   OH227764   1.826   2.072   7.873 -0.2897 -0.0596 -0.3025
 1190TIP3    H127765   1.787   1.990   7.843  0.0771  0.0088 -0.9897
 1190TIP3    H227766   1.920   2.056   7.872 -0.2522 -0.0091  0.7125
 1191TIP3   OH227767   0.202   6.085   1.491  0.4834  0.0471 -0.2868
 1191TIP3    H127768   0.143   6.034   1.435  0.1631 -1.0254  0.9726
 1191TIP3    H227769   0.145   6.125   1.557  0.8142  1.5529 -0.8774
 1192TIP3   OH227770   5.159   7.161   7.895 -0.3046  0.0316  0.1053
 1192TIP3    H127771   5.219   7.119   7.833 -0.4735 -0.3072  0.1658
 1192TIP3    H227772   5.105   7.220   7.842 -0.2095  0.0106 -0.0148
 1193TIP3   OH227773   4.079   7.448   9.098 -0.6246  0.4426  0.3678
 1193TIP3    H127774   4.008   7.510   9.116 -2.5108 -1.7581  1.0502
 1193TIP3    H227775   4.034   7.365   9.086  1.8238 -0.8588 -0.1857
 1194TIP3   OH227776   2.338   4.125   7.181 -0.0412  0.6801  0.4688
 1194TIP3    H127777   2.317   4.201   7.235 -1.8585  0.4628  0.1299
 1194TIP3    H227778   2.302   4.146   7.095  0.5511 -0.0391  0.0344
 1195TIP3   OH227779   0.507   1.384   1.151 -0.0816  0.1011 -0.1981
 1195TIP3    H127780   0.565   1.369   1.077 -0.8018 -2.1067 -0.3739
 1195TIP3    H227781   0.537   1.324   1.219 -0.6801  0.6440  0.5725
 1196TIP3   OH227782   5.411   2.026   9.671  0.0605  0.7575  0.0891
 1196TIP3    H127783   5.422   2.039   9.576  0.7603 -1.2112 -0.1467
 1196TIP3    H227784   5.371   1.940   9.679  1.9093 -0.0195  1.6447
 1197TIP3   OH227785   3.919   3.188   9.130 -0.3509  0.1609  0.0980
 1197TIP3    H127786   3.876   3.111   9.094 -1.3096  1.5878 -2.0779
 1197TIP3    H227787   3.864   3.214   9.204 -0.0953 -1.1145  0.7666
 1198TIP3   OH227788   1.418   7.091   2.155 -0.4802  0.3253  0.4182
 1198TIP3    H127789   1.344   7.101   2.215  0.5503  1.3659  1.5664
 1198TIP3    H227790   1.435   6.997   2.153 -0.5326  0.2746  1.7754
 1199TIP3   OH227791   5.112   7.269   0.879  0.3983 -0.2639 -0.0772
 1199TIP3    H127792   5.135   7.362   0.883  1.4932 -0.5554  2.1903
 1199TIP3    H227793   5.050   7.256   0.951  0.1670 -1.2783 -0.4353
 1200TIP3   OH227794   1.425   5.275   7.893 -0.2607  0.1877 -0.2439
 1200TIP3    H127795   1.413   5.236   7.807 -1.4958 -0.0850  0.0412
 1200TIP3    H227796   1.349   5.247   7.944 -0.1925  1.3702  0.5569
 1201TIP3   OH227797   3.297   3.343   0.754 -0.2571 -0.8166 -0.9322
 1201TIP3    H127798   3.365   3.363   0.688 -1.5387 -0.6784 -2.2751
 1201TIP3    H227799   3.245   3.423   0.757 -0.5105 -1.0139 -0.0943
 1202TIP3   OH227800   2.972   2.935   9.224 -0.1315 -0.4625 -0.4655
 1202TIP3    H127801   3.003   2.913   9.136 -0.2291 -0.7180 -0.4383
 1202TIP3    H227802   2.902   2.998   9.210  0.6061  0.3754 -0.5154
 1203TIP3   OH227803   6.768   3.356   9.556 -0.0631 -0.4412 -0.0592
 1203TIP3    H127804   6.748   3.389   9.644  0.6325 -0.8299  0.2561
 1203TIP3    H227805   6.685   3.319   9.525  0.1504 -2.2143  1.2949
 1204TIP3   OH227806   1.364   4.840   8.778  0.2634  0.2368  0.0534
 1204TIP3    H127807   1.360   4.936   8.787 -1.8969  0.1150  1.2485
 1204TIP3    H227808   1.431   4.813   8.840  2.5978  1.0718 -1.9685
 1205TIP3   OH227809   6.416   0.278   2.244 -0.4207  0.2594 -0.5180
 1205TIP3    H127810   6.507   0.303   2.260 -0.1314 -0.5038 -0.9508
 1205TIP3    H227811   6.388   0.237   2.326 -0.3924  0.5192 -0.3747
 1206TIP3   OH227812   3.514   2.885   9.141  0.5725 -0.4221 -0.1486
 1206TIP3    H127813   3.581   2.860   9.077 -0.0240  0.2683 -1.0604
 1206TIP3    H227814   3.554   2.864   9.226  2.2716  0.7024 -0.6229
 1207TIP3   OH227815   5.446   4.664   9.854 -0.1117  0.0996  0.1924
 1207TIP3    H127816   5.488   4.750   9.856 -0.3676  0.2231  0.3644
 1207TIP3    H227817   5.517   4.602   9.871  0.1221  0.2570 -0.2006
 1208TIP3   OH227818   5.120   3.710   1.333 -0.1522  0.0272 -0.0434
 1208TIP3    H127819   5.058   3.781   1.352 -0.3630 -0.2580  0.3667
 1208TIP3    H227820   5.171   3.742   1.259 -0.7841  0.2806 -0.3856
 1209TIP3   OH227821   6.747   7.527   8.811  0.0214 -0.1085 -0.2835
 1209TIP3    H127822   6.789   7.604   8.774  0.8828 -0.4584 -0.0634
 1209TIP3    H227823   6.709   7.482   8.735 -0.5466  0.5627 -0.4006
 1210TIP3   OH227824   6.554   7.625   0.698 -0.1839 -0.2261 -0.2858
 1210TIP3    H127825   6.524   7.570   0.771 -0.2172 -0.6072 -0.5799
 1210TIP3    H227826   6.580   7.562   0.631 -0.4992  0.1224 -0.7424
 1211TIP3   OH227827   2.970   6.061   9.321 -0.0972 -0.3154  0.2180
 1211TIP3    H127828   3.037   6.119   9.285 -2.4161  0.8002 -2.7418
 1211TIP3    H227829   3.013   5.976   9.329  1.6437  0.2917 -1.8175
 1212TIP3   OH227830   0.468   7.483   1.552  0.3398  0.1717  0.4369
 1212TIP3    H127831   0.551   7.519   1.520  1.0002 -1.2195  0.5005
 1212TIP3    H227832   0.413   7.478   1.474  0.6086  0.3079  0.2344
 1213TIP3   OH227833   1.289   7.667   1.666 -0.1412  0.6946  0.0325
 1213TIP3    H127834   1.292   7.762   1.655 -1.2148  0.7510  0.1275
 1213TIP3    H227835   1.379   7.638   1.651 -0.1447  1.5268 -1.8937
 1214TIP3   OH227836   7.431   6.462   9.228  0.3625  0.6982 -0.7373
 1214TIP3    H127837   7.507   6.436   9.176  1.5122  0.5440  0.9260
 1214TIP3    H227838   7.407   6.383   9.276 -0.9994  0.6937 -1.3796
 1215TIP3   OH227839   1.679   5.228   9.773  0.3677  0.1235  0.5668
 1215TIP3    H127840   1.589   5.202   9.754  0.5791  0.2788 -0.7504
 1215TIP3    H227841   1.722   5.232   9.688  1.0970  1.9782  0.9504
 1216TIP3   OH227842   3.649   5.563   1.317  0.4319 -0.2492  0.2428
 1216TIP3    H127843   3.721   5.504   1.294  0.9475  0.7143 -0.7112
 1216TIP3    H227844   3.670   5.593   1.405  0.7828 -0.5943  0.2809
 1217TIP3   OH227845   2.432   2.600   0.129 -0.2345  0.0430  0.6326
 1217TIP3    H127846   2.513   2.578   0.082  0.8203  0.7763  2.0358
 1217TIP3    H227847   2.442   2.693   0.152 -1.1797 -0.0340  1.4093
 1218TIP3   OH227848   2.618   5.702   8.692  0.4464 -0.4456  0.1666
 1218TIP3    H127849   2.662   5.787   8.695 -1.2348  0.4430  2.5846
 1218TIP3    H227850   2.562   5.707   8.615  1.1628  0.1670 -0.3402
 1219TIP3   OH227851   6.766   7.009   9.255  0.1045  0.2628  0.3614
 1219TIP3    H127852   6.765   6.959   9.173 -1.4692 -0.1999  0.6262
 1219TIP3    H227853   6.727   6.951   9.319  0.8384  0.8208  1.3406
 1220TIP3   OH227854   7.022   3.904   1.157 -0.5945 -0.0058  0.1162
 1220TIP3    H127855   6.966   3.969   1.115 -0.0662  0.0342 -0.5464
 1220TIP3    H227856   7.096   3.954   1.192 -0.4044 -0.1983 -0.0073
 1221TIP3   OH227857   4.802   7.604   9.280 -0.4062 -0.0195  0.2965
 1221TIP3    H127858   4.738   7.673   9.298 -1.4256 -1.1221  0.9936
 1221TIP3    H227859   4.875   7.650   9.239 -1.7277  1.2514 -0.7446
 1222TIP3   OH227860   7.085   5.010   8.282 -0.5806  0.0328  0.1001
 1222TIP3    H127861   7.059   4.918   8.279 -1.1223  0.1899 -0.1582
 1222TIP3    H227862   7.056   5.040   8.368 -0.5530  0.0070  0.1186
 1223TIP3   OH227863   1.477   0.845   7.762  0.2860 -0.3200  0.5369
 1223TIP3    H127864   1.446   0.929   7.728 -1.4349 -1.0733  0.1370
 1223TIP3    H227865   1.558   0.827   7.712  0.8912  1.2447  0.9051
 1224TIP3   OH227866   3.343   2.720   7.957  0.7281 -0.2681 -0.0584
 1224TIP3    H127867   3.293   2.795   7.924  0.0401 -1.6212 -2.3200
 1224TIP3    H227868   3.330   2.652   7.891  1.9415 -2.1503  1.5401
 1225TIP3   OH227869   6.609   6.268   0.099 -0.6265  0.0615 -0.0368
 1225TIP3    H127870   6.657   6.322   0.036 -0.0317 -0.7114 -0.2637
 1225TIP3    H227871   6.551   6.329   0.144 -0.3309  0.7976 -0.6366
 1226TIP3   OH227872   4.022   0.620   7.362 -0.0090 -0.5188 -0.0778
 1226TIP3    H127873   3.966   0.667   7.299  1.0040 -0.8473 -1.2545
 1226TIP3    H227874   4.084   0.571   7.308 -0.1344 -2.1245  1.1436
 1227TIP3   OH227875   6.908   6.811   0.085 -0.5289 -0.4538  0.2534
 1227TIP3    H127876   6.816   6.809   0.057 -0.3959 -0.6718 -0.1735
 1227TIP3    H227877   6.905   6.794   0.179 -0.8460 -1.5248  0.0563
 1228TIP3   OH227878   7.428   6.247   1.979  0.2246  0.2276  0.6007
 1228TIP3    H127879   7.418   6.280   2.068 -0.7777  0.3355  0.4602
 1228TIP3    H227880   7.474   6.164   1.989  1.4477  0.9395  1.0870
 1229TIP3   OH227881   4.619   5.265   2.178  0.5795 -0.4909  0.0393
 1229TIP3    H127882   4.699   5.222   2.206  1.4918 -0.6474 -2.6002
 1229TIP3    H227883   4.625   5.271   2.083 -1.7033  1.1765 -0.1159
 1230TIP3   OH227884   3.676   2.396   7.865 -0.2795 -0.0741  0.0953
 1230TIP3    H127885   3.727   2.337   7.810  1.6744  0.6910  0.9787
 1230TIP3    H227886   3.657   2.471   7.809  1.2551  0.4731  0.2562
 1231TIP3   OH227887   1.574   3.995   2.301 -0.2394 -0.2571 -0.3775
 1231TIP3    H127888   1.565   3.981   2.207 -2.7672 -0.2484 -0.2141
 1231TIP3    H227889   1.624   3.920   2.332  0.1483 -0.5505 -1.6438
 1232TIP3   OH227890   7.604   0.796   8.731 -0.1780  0.3864  0.1361
 1232TIP3    H127891   7.591   0.890   8.746 -1.2499  0.1131  1.0399
 1232TIP3    H227892   7.529   0.770   8.677  0.2576  0.0982 -0.3338
 1233TIP3   OH227893   7.407   6.777   0.163  0.1905 -0.2209  0.0055
 1233TIP3    H127894   7.428   6.869   0.175  0.1959 -0.3483  1.0254
 1233TIP3    H227895   7.336   6.777   0.098 -0.0962  0.5265  0.3110
 1234TIP3   OH227896   2.011   2.984   7.907  0.1207  0.7950 -0.1172
 1234TIP3    H127897   2.086   2.937   7.869  0.2012  0.3496  0.5714
 1234TIP3    H227898   1.966   2.918   7.960 -0.6320  1.1189 -0.3490
 1235TIP3   OH227899   1.497   0.552   0.763  0.1393  0.1877  0.1721
 1235TIP3    H127900   1.493   0.465   0.803  0.3617 -0.1777 -0.5882
 1235TIP3    H227901   1.546   0.605   0.826 -0.4213 -0.1052  0.8672
 1236TIP3   OH227902   1.401   3.703   7.997  0.5523 -0.3949 -0.6471
 1236TIP3    H127903   1.492   3.734   7.989  1.6173 -3.3973 -1.7195
 1236TIP3    H227904   1.348   3.779   7.974  2.6994  1.7443  0.8652
 1237TIP3   OH227905   5.168   6.777   9.846  0.1921  0.2774 -0.1458
 1237TIP3    H127906   5.226   6.785   9.770  0.7213 -0.6287  0.1398
 1237TIP3    H227907   5.080   6.790   9.811  0.3882 -0.6324 -1.0151
 1238TIP3   OH227908   6.400   2.801   7.639 -0.3316  0.2756  0.1566
 1238TIP3    H127909   6.477   2.746   7.652 -1.0284 -0.2772  2.3702
 1238TIP3    H227910   6.346   2.785   7.716 -2.8418  0.3674 -1.4542
 1239TIP3   OH227911   7.549   0.204   0.497  0.0570 -0.0739 -0.6785
 1239TIP3    H127912   7.520   0.113   0.492 -0.2368 -0.4684  4.1820
 1239TIP3    H227913   7.630   0.201   0.549  0.4566  2.4083 -1.0421
 1240TIP3   OH227914   5.194   0.102   1.108 -0.3128  0.2306 -0.3985
 1240TIP3    H127915   5.246   0.156   1.168 -0.8491  1.0697 -0.6649
 1240TIP3    H227916   5.133   0.055   1.164  0.7259 -0.7909 -0.0778
 1241TIP3   OH227917   0.028   3.721   7.854  0.4543  0.3299 -0.0742
 1241TIP3    H127918  -0.042   3.689   7.797 -0.2604  0.8834  0.4833
 1241TIP3    H227919   0.096   3.751   7.794  0.7201 -1.2505 -0.6225
 1242TIP3   OH227920   4.509   1.174   9.887  0.0062  0.2643  0.0576
 1242TIP3    H127921   4.501   1.168   9.792  0.1127 -3.1938  0.1618
 1242TIP3    H227922   4.419   1.171   9.919  0.0361 -0.5209  0.0907
 1243TIP3   OH227923   4.272   4.662   1.582 -0.0361  0.0297  0.3078
 1243TIP3    H127924   4.230   4.581   1.611 -0.7696  0.0697 -0.6014
 1243TIP3    H227925   4.366   4.642   1.582 -0.3227 -1.6466 -2.2397
 1244TIP3   OH227926   2.406   4.580   9.394  0.1585 -0.0521  0.6087
 1244TIP3    H127927   2.491   4.609   9.360  0.8590 -2.4206  0.1492
 1244TIP3    H227928   2.422   4.564   9.487 -0.0334  0.3078  0.7063
 1245TIP3   OH227929   6.293   5.543   8.612  0.1205 -0.4373  0.6354
 1245TIP3    H127930   6.355   5.514   8.679  1.2317 -0.0676 -0.1871
 1245TIP3    H227931   6.324   5.500   8.532 -0.8235 -0.4048  0.2379
 1246TIP3   OH227932   0.775   7.165   1.371 -0.0786  0.1057  0.2802
 1246TIP3    H127933   0.753   7.258   1.370 -0.9041 -0.0777 -1.2106
 1246TIP3    H227934   0.869   7.163   1.393 -0.3470  1.1785  1.6807
 1247TIP3   OH227935   1.369   1.207   2.376  0.0939 -0.0598 -0.3235
 1247TIP3    H127936   1.389   1.118   2.345  0.9526  0.8530 -2.5970
 1247TIP3    H227937   1.294   1.234   2.323  0.3564  0.8542 -0.2387
 1248TIP3   OH227938   2.781   4.393   2.274 -0.4957  0.4104  0.1463
 1248TIP3    H127939   2.708   4.380   2.214  0.8956 -0.1740 -1.4983
 1248TIP3    H227940   2.761   4.336   2.349 -2.0326  0.7879  0.0332
 1249TIP3   OH227941   0.700   7.399   8.903  0.4323  0.0714 -0.1868
 1249TIP3    H127942   0.765   7.467   8.920 -0.0040  0.5468 -0.3967
 1249TIP3    H227943   0.621   7.446   8.878 -0.4659 -0.4115  1.5348
 1250TIP3   OH227944   0.684   1.959   7.884 -0.2387  0.3348 -0.3686
 1250TIP3    H127945   0.611   1.900   7.901  0.5750 -0.7855 -0.6274
 1250TIP3    H227946   0.758   1.918   7.929  0.5176  0.7393 -1.2288
 1251TIP3   OH227947   0.077   2.647   2.138 -0.2483 -0.6308 -0.5269
 1251TIP3    H127948   0.164   2.607   2.146  0.4801  1.0253  0.3936
 1251TIP3    H227949   0.028   2.612   2.213  0.4845  0.3770  0.4585
 1252TIP3   OH227950   2.529   1.004   2.761  0.5201 -0.2103 -0.2587
 1252TIP3    H127951   2.494   0.922   2.727 -1.1451 -0.3830  1.6910
 1252TIP3    H227952   2.608   0.980   2.809 -0.8883 -0.9954  1.7786
 1253TIP3   OH227953   2.204   4.916   8.476  0.1775 -0.2508  0.2434
 1253TIP3    H127954   2.113   4.895   8.497  1.0500 -3.0039  1.7367
 1253TIP3    H227955   2.217   4.883   8.387 -0.3404  0.4068 -0.0806
 1254TIP3   OH227956   6.341   1.263   8.700  0.1689  0.7898  0.6519
 1254TIP3    H127957   6.314   1.233   8.613 -0.3447  0.6845  0.8470
 1254TIP3    H227958   6.354   1.357   8.689 -1.7381  1.1254  0.8989
 1255TIP3   OH227959   4.950   0.115   9.503  0.1841 -0.2599 -0.0276
 1255TIP3    H127960   4.912   0.118   9.415 -0.9911 -2.2307  0.3686
 1255TIP3    H227961   5.038   0.152   9.492 -0.6071  1.2917 -1.6299
 1256TIP3   OH227962   6.984   6.117   9.837 -0.0430 -0.0135 -0.6821
 1256TIP3    H127963   6.898   6.091   9.869 -0.1157  2.2194  1.1984
 1256TIP3    H227964   7.045   6.077   9.899  0.0525  1.0213 -0.0888
 1257TIP3   OH227965   6.345   2.695   9.238 -0.2472  0.4033  0.2863
 1257TIP3    H127966   6.377   2.735   9.319  2.0808 -0.6904 -0.0049
 1257TIP3    H227967   6.333   2.602   9.260 -0.5417  0.2831 -0.3562
 1258TIP3   OH227968   3.805   6.563   8.198 -0.1889  0.0620 -0.2875
 1258TIP3    H127969   3.861   6.631   8.159 -0.9045  0.6123 -0.3680
 1258TIP3    H227970   3.761   6.523   8.123  0.5453 -0.7881 -0.2788
 1259TIP3   OH227971   3.413   6.732   0.709  0.3675  0.2145 -0.0412
 1259TIP3    H127972   3.507   6.744   0.705  0.2633  0.7182 -3.0432
 1259TIP3    H227973   3.396   6.658   0.651 -1.0795 -0.0722  0.7015
 1260TIP3   OH227974   5.603   4.785   8.857 -0.1992  0.0318 -0.2230
 1260TIP3    H127975   5.640   4.825   8.778 -0.4729 -1.8803 -1.3806
 1260TIP3    H227976   5.508   4.792   8.844 -0.3359  2.4030  1.4173
 1261TIP3   OH227977   2.003   0.823   8.223 -0.4364  0.3149 -0.1350
 1261TIP3    H127978   1.930   0.804   8.165  0.5212  0.1188 -1.3056
 1261TIP3    H227979   1.963   0.868   8.298 -1.5633  1.5356 -1.4245
 1262TIP3   OH227980   4.102   6.575   7.615 -0.4875 -0.3557 -0.0689
 1262TIP3    H127981   4.007   6.581   7.613 -0.4299  2.0092  1.0593
 1262TIP3    H227982   4.122   6.546   7.704 -0.1242  0.8546  0.2557
 1263TIP3   OH227983   1.632   5.354   9.071 -0.1435 -0.1454 -0.1558
 1263TIP3    H127984   1.551   5.320   9.033  0.2803 -0.5040 -0.7658
 1263TIP3    H227985   1.620   5.345   9.165 -0.3266 -1.3584 -0.2790
 1264TIP3   OH227986   6.229   2.106   0.535 -0.2831 -0.3579  0.3932
 1264TIP3    H127987   6.296   2.138   0.476 -0.6346  1.2319  0.8015
 1264TIP3    H227988   6.276   2.051   0.598  0.5834  0.4668  0.4771
 1265TIP3   OH227989   6.767   7.488   0.263 -0.0433 -0.3133  0.2325
 1265TIP3    H127990   6.710   7.427   0.217 -2.1815  1.7231 -0.0450
 1265TIP3    H227991   6.734   7.575   0.237  1.4048  0.9338  2.3025
 1266TIP3   OH227992   2.289   3.237   7.840 -0.0956 -0.0181  0.4023
 1266TIP3    H127993   2.243   3.239   7.924  0.4238 -0.0456  0.6940
 1266TIP3    H227994   2.378   3.266   7.862 -0.1076  0.5146 -0.2340
 1267TIP3   OH227995   2.404   5.294   0.066 -0.1466 -0.1956 -0.0907
 1267TIP3    H127996   2.330   5.300   0.126 -0.3622 -1.4652 -0.1990
 1267TIP3    H227997   2.418   5.200   0.055  3.4858 -0.1628  2.4267
 1268TIP3   OH227998   3.522   1.149   9.726  0.7109  0.1402 -0.2750
 1268TIP3    H127999   3.589   1.207   9.692  1.5271 -0.7230 -0.1953
 1268TIP3    H228000   3.459   1.207   9.769  1.0582  1.0133 -0.9127
 1269TIP3   OH228001   5.045   7.412   7.987  0.4253 -0.0842 -0.6880
 1269TIP3    H128002   5.064   7.415   7.893  0.6308  2.0820 -0.6362
 1269TIP3    H228003   4.955   7.444   7.994  0.7300  0.6762 -0.0975
 1270TIP3   OH228004   6.676   6.836   9.432  0.0127  0.0787  0.2204
 1270TIP3    H128005   6.589   6.830   9.471 -0.8579  0.7038 -1.5436
 1270TIP3    H228006   6.729   6.774   9.483 -1.2200  0.3077  1.8767
 1271TIP3   OH228007   0.290   5.684   8.932 -0.4978 -0.1578 -0.1361
 1271TIP3    H128008   0.291   5.771   8.971 -1.0671 -0.1259 -0.1844
 1271TIP3    H228009   0.295   5.700   8.837 -0.8447 -0.1672 -0.1567
 1272TIP3   OH228010   2.458   0.268   0.136 -0.7122 -0.8573  0.6035
 1272TIP3    H128011   2.525   0.237   0.074 -1.0429  1.4157 -0.9956
 1272TIP3    H228012   2.412   0.188   0.162  0.8694 -2.1609 -0.3483
 1273TIP3   OH228013   3.879   2.244   9.481 -0.6030  0.2292 -0.2407
 1273TIP3    H128014   3.914   2.170   9.432  1.7017 -0.2114  1.8328
 1273TIP3    H228015   3.955   2.300   9.496 -1.1036  0.2489  2.8561
 1274TIP3   OH228016   0.327   0.527   7.606 -0.0399  0.1666 -0.1697
 1274TIP3    H128017   0.249   0.509   7.553 -0.9421 -1.3654  1.5824
 1274TIP3    H228018   0.388   0.457   7.582 -0.1666 -0.0893  0.2388
 1275TIP3   OH228019   4.157   0.862   1.481 -0.3733  0.5993  0.6669
 1275TIP3    H128020   4.201   0.946   1.495 -2.2148  1.7066  0.1226
 1275TIP3    H228021   4.067   0.877   1.508 -1.2114 -0.6348 -1.2135
 1276TIP3   OH228022   6.834   6.668   9.611 -0.4336 -0.3088  0.5850
 1276TIP3    H128023   6.772   6.677   9.683 -0.6417 -0.8582  0.4721
 1276TIP3    H228024   6.880   6.752   9.610 -2.7129  1.0296 -0.7614
 1277TIP3   OH228025   2.742   5.826   7.736 -0.1315 -0.6127 -0.4031
 1277TIP3    H128026   2.788   5.763   7.681  1.4565 -0.7937  1.0494
 1277TIP3    H228027   2.750   5.790   7.824 -2.4952 -0.2725  0.0254
 1278TIP3   OH228028   0.062   3.353   1.485 -0.2234 -0.2748 -0.1479
 1278TIP3    H128029   0.029   3.436   1.518  1.0510  1.7475 -3.4984
 1278TIP3    H228030  -0.017   3.306   1.456 -0.8221  0.5630  0.0812
 1279TIP3   OH228031   5.285   3.742   1.898  0.2174 -0.1384 -0.1687
 1279TIP3    H128032   5.277   3.659   1.945  0.1807  0.1540  0.3509
 1279TIP3    H228033   5.379   3.762   1.899  0.0155  1.0198  1.8520
 1280TIP3   OH228034   5.868   7.405   9.198  0.0275  0.0781 -0.2378
 1280TIP3    H128035   5.892   7.340   9.132 -1.5311  2.1710 -3.1142
 1280TIP3    H228036   5.933   7.474   9.187  0.2015  0.1152  0.9982
 1281TIP3   OH228037   1.826   1.862   2.024 -0.0191 -0.3530  0.4729
 1281TIP3    H128038   1.904   1.915   2.040 -0.5605  0.1412  1.6210
 1281TIP3    H228039   1.797   1.835   2.112 -0.2617 -1.8360 -0.0232
 1282TIP3   OH228040   2.885   5.177   1.158  0.2770 -0.3649  0.1442
 1282TIP3    H128041   2.815   5.239   1.137  1.1215  0.7767  0.5818
 1282TIP3    H228042   2.876   5.161   1.252  0.9044  0.2168  0.3187
 1283TIP3   OH228043   0.033   7.623   0.326 -0.4462  0.4780  0.4372
 1283TIP3    H128044   0.075   7.538   0.310 -0.8561  0.3852 -0.2105
 1283TIP3    H228045  -0.049   7.601   0.371 -0.7230  0.4934 -0.0494
 1284TIP3   OH228046   6.408   2.327   8.244  0.4244 -0.2182  0.1557
 1284TIP3    H128047   6.483   2.269   8.233 -0.1674 -0.9809  0.0051
 1284TIP3    H228048   6.349   2.303   8.173  0.4898  1.1067 -0.3680
 1285TIP3   OH228049   5.713   4.122   2.836  0.3673  0.0535  0.0439
 1285TIP3    H128050   5.654   4.093   2.766  1.2519  0.9692 -1.1444
 1285TIP3    H228051   5.801   4.103   2.802  0.8110  0.2662  1.0361
 1286TIP3   OH228052   0.831   2.361   8.008  0.4230 -0.4868 -0.6943
 1286TIP3    H128053   0.818   2.361   8.103  0.5240 -0.4872 -0.6807
 1286TIP3    H228054   0.755   2.314   7.973  0.0297  0.1060 -0.6638
 1287TIP3   OH228055   5.805   1.649   9.697 -0.0010 -0.0533  0.0922
 1287TIP3    H128056   5.777   1.731   9.737  0.6807 -0.5647  1.6706
 1287TIP3    H228057   5.839   1.675   9.611  0.1412  1.3090  0.5348
 1288TIP3   OH228058   2.304   4.100   9.622  0.1974 -0.1971 -0.3528
 1288TIP3    H128059   2.286   4.129   9.533  2.2121  0.5462 -0.5641
 1288TIP3    H228060   2.263   4.166   9.677  0.2101  0.1504 -0.7577
 1289TIP3   OH228061   2.111   0.692   1.111 -0.0757 -0.0452  0.4349
 1289TIP3    H128062   2.180   0.742   1.154 -0.3516 -0.6559  1.6285
 1289TIP3    H228063   2.102   0.732   1.024  2.0403 -0.2016  0.1070
 1290TIP3   OH228064   3.065   3.890   9.331 -0.0928 -0.6018 -0.0049
 1290TIP3    H128065   3.076   3.900   9.237 -4.0962  1.1776 -0.4978
 1290TIP3    H228066   3.108   3.967   9.369  3.0662 -2.1750 -0.0064
 1291TIP3   OH228067   6.891   1.218   1.027 -0.0952  0.2282 -0.0172
 1291TIP3    H128068   6.854   1.131   1.011 -0.8995  0.5998 -0.2262
 1291TIP3    H228069   6.919   1.248   0.941  0.5401  0.0255  0.1127
 1292TIP3   OH228070   3.197   5.787   0.986 -0.1659  0.1709  0.2739
 1292TIP3    H128071   3.106   5.812   1.003 -0.2154 -0.8368  1.6090
 1292TIP3    H228072   3.196   5.691   0.984  0.6925  0.1559 -0.8594
 1293TIP3   OH228073   1.881   1.591   8.622 -0.6635 -0.3026 -0.7227
 1293TIP3    H128074   1.975   1.589   8.606 -0.2162  0.3007  1.5248
 1293TIP3    H228075   1.843   1.622   8.539  1.0390 -0.9359 -1.7990
 1294TIP3   OH228076   4.237   5.540   0.891  1.2164 -0.4507 -0.1448
 1294TIP3    H128077   4.249   5.599   0.966  3.0850 -0.8886 -0.0624
 1294TIP3    H228078   4.142   5.526   0.887  1.0892 -0.7237  2.3903
 1295TIP3   OH228079   4.004   3.863   8.973  0.0411  0.3647 -0.1466
 1295TIP3    H128080   3.923   3.908   8.997  0.3337  0.8561 -0.0722
 1295TIP3    H228081   4.067   3.933   8.959  0.7165 -0.0449  0.7351
 1296TIP3   OH228082   6.737   0.981   1.107  0.3706  0.2207  0.1288
 1296TIP3    H128083   6.791   0.906   1.132 -0.1774  0.4217  2.0820
 1296TIP3    H228084   6.658   0.943   1.070  0.2565 -0.1719  0.7661
 1297TIP3   OH228085   7.562   2.052   9.187 -0.0673  0.7088  0.6580
 1297TIP3    H128086   7.626   2.071   9.120  0.8517 -1.0506  0.9797
 1297TIP3    H228087   7.607   1.995   9.249 -1.8865 -0.5237  0.9514
 1298TIP3   OH228088   4.973   6.090   2.080 -0.6729 -0.0130 -0.5261
 1298TIP3    H128089   5.052   6.143   2.065 -1.0016  0.2389 -1.4633
 1298TIP3    H228090   4.914   6.149   2.127 -1.8132  1.2463 -3.2921
 1299TIP3   OH228091   4.901   1.255   8.445  0.1496 -0.4113  0.7243
 1299TIP3    H128092   4.986   1.215   8.463  0.3512  0.6009  2.1889
 1299TIP3    H228093   4.894   1.326   8.509 -1.5164 -0.0543  0.1898
 1300TIP3   OH228094   1.772   6.947   9.269 -0.5436  0.1823 -0.3267
 1300TIP3    H128095   1.808   6.912   9.188 -0.0498  0.5031 -0.2560
 1300TIP3    H228096   1.847   6.989   9.312 -0.6157 -0.6579  0.6670
 1301TIP3   OH228097   0.529   3.983   9.636 -0.3178  0.5535  0.3149
 1301TIP3    H128098   0.613   3.953   9.600 -0.5186  0.4300 -0.0486
 1301TIP3    H228099   0.545   4.074   9.660  1.2890 -0.5384  4.3516
 1302TIP3   OH228100   5.557   1.434   2.594  0.0420  0.8906 -0.0731
 1302TIP3    H128101   5.514   1.446   2.510 -1.7941 -1.2046  0.4799
 1302TIP3    H228102   5.540   1.515   2.643  1.5128  2.3157 -1.7786
 1303TIP3   OH228103   6.687   3.459   0.117  0.0302  0.3203 -0.1355
 1303TIP3    H128104   6.726   3.382   0.077 -0.6133 -0.0576 -0.0529
 1303TIP3    H228105   6.606   3.427   0.156 -1.0366  1.2946 -1.4347
 1304TIP3   OH228106   5.256   3.641   2.735 -0.1846  0.4737 -0.3688
 1304TIP3    H128107   5.245   3.547   2.717  1.7565  0.1343 -0.0007
 1304TIP3    H228108   5.265   3.647   2.830  1.5951  0.7573 -0.5150
 1305TIP3   OH228109   4.667   6.311   8.949 -0.1007  0.0244 -0.0725
 1305TIP3    H128110   4.625   6.354   8.875 -0.4209  1.4099  0.8604
 1305TIP3    H228111   4.640   6.219   8.943  0.3381 -0.0119 -1.9430
 1306TIP3   OH228112   6.887   1.074   1.315  0.4134 -0.3582  0.0045
 1306TIP3    H128113   6.818   1.053   1.252 -1.3919  0.5185  1.5943
 1306TIP3    H228114   6.897   0.995   1.367 -2.7256  0.7509  2.6608
 1307TIP3   OH228115   1.099   7.575   9.969  0.1444 -0.1199 -0.1006
 1307TIP3    H128116   1.122   7.640  10.036  2.5585  0.6131 -1.5477
 1307TIP3    H228117   1.125   7.491  10.007  0.3386  0.1381  0.3468
 1308TIP3   OH228118   4.635   3.809   2.252  0.2881 -0.0552 -0.2423
 1308TIP3    H128119   4.689   3.887   2.238  1.0168 -0.4757  0.1971
 1308TIP3    H228120   4.545   3.843   2.253  0.3806  0.4341 -2.6607
 1309TIP3   OH228121   0.913   7.406   1.985 -0.7631  0.0525 -0.0285
 1309TIP3    H128122   0.884   7.354   1.910 -0.0194 -1.8767  0.9531
 1309TIP3    H228123   1.004   7.427   1.967 -0.7996  0.2379 -0.0017
 1310TIP3   OH228124   2.866   4.190   1.096 -0.1568 -0.0602  0.3857
 1310TIP3    H128125   2.944   4.139   1.074  0.8761  0.5341  2.4427
 1310TIP3    H228126   2.811   4.130   1.145 -0.3738 -0.0794  0.1212
 1311TIP3   OH228127   5.459   2.082   1.128  0.2773 -0.1736 -0.5530
 1311TIP3    H128128   5.364   2.073   1.115  0.2174  0.0568 -0.2799
 1311TIP3    H228129   5.496   2.003   1.088 -0.1026 -0.7822  0.2615
 1312TIP3   OH228130   5.196   2.160   2.407  0.0575  0.4201  0.2724
 1312TIP3    H128131   5.180   2.196   2.320 -1.0311  0.7780  0.5940
 1312TIP3    H228132   5.290   2.167   2.420  0.0911  1.4382 -0.4220
 1313TIP3   OH228133   0.579   0.394   1.439 -0.3631  0.4761 -0.1856
 1313TIP3    H128134   0.568   0.479   1.481 -1.4540 -0.5398  1.6774
 1313TIP3    H228135   0.668   0.366   1.463 -0.1735  0.8721 -0.4198
 1314TIP3   OH228136   0.647   0.693   0.093  0.1627 -0.1104 -0.5292
 1314TIP3    H128137   0.696   0.728   0.168 -0.3773 -0.1625 -0.1392
 1314TIP3    H228138   0.662   0.598   0.097 -1.1433 -0.3058  0.4851
 1315TIP3   OH228139   7.140   1.810   1.538 -0.2763 -0.0747  0.5042
 1315TIP3    H128140   7.131   1.823   1.443 -0.4741 -0.9953  0.3901
 1315TIP3    H228141   7.069   1.751   1.561  0.9784 -1.5049  0.8650
 1316TIP3   OH228142   1.348   3.458   2.310 -0.3714 -0.4994 -0.0865
 1316TIP3    H128143   1.303   3.422   2.386 -2.2576  0.1986 -0.8196
 1316TIP3    H228144   1.339   3.553   2.320 -1.8246 -0.4075 -1.8101
 1317TIP3   OH228145   3.962   5.595   6.314  0.2950  0.2024 -0.0807
 1317TIP3    H128146   3.881   5.595   6.263 -1.0303  2.2498  1.8130
 1317TIP3    H228147   3.970   5.506   6.346 -1.5979  0.0824  0.2001
 1318TIP3   OH228148   0.103   6.977   1.279  0.2415  0.1559 -0.0812
 1318TIP3    H128149   0.033   7.008   1.222  2.0258  2.0304 -1.4111
 1318TIP3    H228150   0.173   6.952   1.219  1.1193 -0.6736  1.2331
 1319TIP3   OH228151   6.009   2.856   1.455 -0.2103  0.4387 -0.0976
 1319TIP3    H128152   5.985   2.948   1.452 -2.2804 -0.0887 -1.0154
 1319TIP3    H228153   6.029   2.840   1.548  0.8519  1.9157 -0.0228
 1320TIP3   OH228154   4.904   2.367   0.252 -0.0667  0.4899 -0.4701
 1320TIP3    H128155   4.885   2.431   0.320 -0.4061  0.2962 -0.3747
 1320TIP3    H228156   4.819   2.352   0.210 -0.0787 -0.2166 -0.2042
 1321TIP3   OH228157   6.748   0.378   8.196  0.2055 -0.3418 -0.0468
 1321TIP3    H128158   6.720   0.316   8.129  0.8697 -0.6989 -0.0024
 1321TIP3    H228159   6.702   0.460   8.174 -0.0369 -0.6181 -0.5826
 1322TIP3   OH228160   0.382   2.704   0.424  0.0690 -0.3875  0.1217
 1322TIP3    H128161   0.451   2.686   0.488  0.1868 -0.2141  0.0424
 1322TIP3    H228162   0.427   2.745   0.351 -0.5688  3.2152  1.5279
 1323TIP3   OH228163   5.769   6.827   1.786  0.3941  0.2593 -0.3414
 1323TIP3    H128164   5.787   6.897   1.849  2.3931 -0.4492 -0.0393
 1323TIP3    H228165   5.718   6.869   1.717  0.3424  1.6702  0.5211
 1324TIP3   OH228166   4.184   7.391   1.835  0.2332  0.6417  0.3353
 1324TIP3    H128167   4.263   7.398   1.888  0.7517  1.2174 -0.4942
 1324TIP3    H228168   4.198   7.452   1.763  0.2161 -1.1805 -1.2974
 1325TIP3   OH228169   1.547   5.011   2.540 -0.1976 -0.0022  0.2730
 1325TIP3    H128170   1.497   4.985   2.463 -0.9674 -1.0608  1.1044
 1325TIP3    H228171   1.507   5.094   2.568  0.5284  0.7467 -0.8313
 1326TIP3   OH228172   0.509   2.498   8.203 -0.0022  0.0704 -0.4801
 1326TIP3    H128173   0.603   2.483   8.215 -0.2662 -1.0182  0.4559
 1326TIP3    H228174   0.502   2.547   8.121  1.3310 -0.5282 -0.9776
 1327TIP3   OH228175   3.834   2.009   7.510  0.6425 -0.1291 -0.2282
 1327TIP3    H128176   3.867   1.983   7.596 -0.5462  1.4367  0.7746
 1327TIP3    H228177   3.746   1.972   7.506  0.8432 -0.5365 -0.9561
 1328TIP3   OH228178   6.959   1.129   8.881 -0.2812 -0.4768 -0.5019
 1328TIP3    H128179   7.000   1.073   8.947  0.5378 -0.0624 -0.6477
 1328TIP3    H228180   7.023   1.134   8.810  0.8109  2.6947  0.5722
 1329TIP3   OH228181   2.432   3.470   7.006  0.2548 -0.0323  0.2573
 1329TIP3    H128182   2.455   3.496   6.917 -4.1689  1.1208 -0.8187
 1329TIP3    H228183   2.422   3.374   7.001 -1.8512  0.1873 -1.1698
 1330TIP3   OH228184   5.206   0.606   9.833  0.4413  0.2945 -0.0545
 1330TIP3    H128185   5.263   0.605   9.756  2.1855  1.2492  1.1643
 1330TIP3    H228186   5.133   0.549   9.808  2.1887 -1.5127 -1.4906
 1331TIP3   OH228187   5.303   1.541   8.593 -0.6399  0.4684 -0.0192
 1331TIP3    H128188   5.270   1.464   8.640 -1.0329  0.5416 -0.1658
 1331TIP3    H228189   5.392   1.553   8.625 -0.4246 -0.3041 -0.3007
 1332TIP3   OH228190   2.618   3.970   8.512  0.0253  0.4223 -0.8588
 1332TIP3    H128191   2.538   4.008   8.476 -0.6063 -0.5897 -0.5759
 1332TIP3    H228192   2.622   3.882   8.473 -0.0212 -0.2465  0.5987
 1333TIP3   OH228193   1.646   3.695   9.940 -0.1785 -0.7295  0.2329
 1333TIP3    H128194   1.603   3.749  10.006  2.1569 -0.4473  1.6728
 1333TIP3    H228195   1.634   3.743   9.858  1.5439  1.9850  1.4039
 1334TIP3   OH228196   1.935   4.490   8.411 -0.0909  0.1613  0.2012
 1334TIP3    H128197   1.892   4.575   8.401 -0.7456 -0.3392 -1.8939
 1334TIP3    H228198   2.001   4.488   8.341  1.0254 -0.4265  1.2377
 1335TIP3   OH228199   5.387   3.071   9.613  0.1423 -0.3326 -0.0945
 1335TIP3    H128200   5.416   3.135   9.677 -0.3157 -1.6596  1.5346
 1335TIP3    H228201   5.413   3.107   9.528 -1.2672  2.6215  0.5868
 1336TIP3   OH228202   7.218   0.375   9.761  0.0622 -0.2199  0.2254
 1336TIP3    H128203   7.172   0.293   9.743 -0.0142 -0.0199 -0.5322
 1336TIP3    H228204   7.198   0.431   9.686 -1.2628  1.1030  1.4992
 1337TIP3   OH228205   4.176   2.921   9.551 -0.0979  0.1190 -0.0047
 1337TIP3    H128206   4.196   2.962   9.466  0.9693  0.8100  0.5528
 1337TIP3    H228207   4.082   2.935   9.563 -0.4642 -0.7592 -1.4518
 1338TIP3   OH228208   2.356   0.667   1.915 -0.3949  0.2110  0.6020
 1338TIP3    H128209   2.340   0.757   1.885  1.1920  0.8926  1.7013
 1338TIP3    H228210   2.448   0.650   1.894 -0.5185 -0.9551  0.9261
 1339TIP3   OH228211   0.670   0.276   7.725 -0.5424  0.0015  0.5445
 1339TIP3    H128212   0.673   0.180   7.725 -1.2524 -0.0269  0.4657
 1339TIP3    H228213   0.619   0.298   7.647  0.3813  0.4773  0.0666
 1340TIP3   OH228214   6.003   6.035   2.163  0.5911 -0.0532  0.0079
 1340TIP3    H128215   5.968   5.959   2.211 -2.1609  1.5343  0.7121
 1340TIP3    H228216   5.976   6.021   2.073  0.0474  0.0923  0.1449
 1341TIP3   OH228217   5.774   3.194   8.623  0.4975 -0.0974  0.2007
 1341TIP3    H128218   5.699   3.241   8.661 -0.8132 -0.1521 -2.1604
 1341TIP3    H228219   5.735   3.136   8.558  2.4742 -1.5086  0.1933
 1342TIP3   OH228220   6.645   0.534   9.436 -0.1484 -0.1665  0.2624
 1342TIP3    H128221   6.562   0.564   9.398 -1.4481  0.1540  3.0779
 1342TIP3    H228222   6.710   0.595   9.401 -1.1439 -0.0457 -1.5423
 1343TIP3   OH228223   3.212   2.077   1.646  0.5605 -0.2168  0.3869
 1343TIP3    H128224   3.182   2.167   1.654  2.1368  0.2843  0.7974
 1343TIP3    H228225   3.221   2.063   1.552  1.3491  0.4062  0.3674
 1344TIP3   OH228226   0.308   1.376   7.543 -0.4598  0.2927 -0.7244
 1344TIP3    H128227   0.244   1.447   7.539 -0.7872  0.1853  1.3850
 1344TIP3    H228228   0.264   1.308   7.594  0.6993 -0.4942 -0.7531
 1345TIP3   OH228229   5.590   6.617   1.671 -0.3875 -0.1844 -0.1964
 1345TIP3    H128230   5.523   6.587   1.733  0.9742 -1.8085  0.5573
 1345TIP3    H228231   5.631   6.692   1.714 -1.7933  0.9524 -0.7513
 1346TIP3   OH228232   2.462   5.344   8.591 -0.3441  0.1184  0.0301
 1346TIP3    H128233   2.400   5.364   8.520  0.0510  0.4814 -0.2127
 1346TIP3    H228234   2.427   5.390   8.667  1.4044  3.1940 -0.8751
 1347TIP3   OH228235   2.745   1.586   9.653 -0.1888 -0.4330 -0.3294
 1347TIP3    H128236   2.806   1.541   9.711  0.6975  1.9130  0.7166
 1347TIP3    H228237   2.678   1.521   9.633  1.3630 -2.3730  0.4594
 1348TIP3   OH228238   3.863   5.483   7.203 -0.2269  0.5830  0.0617
 1348TIP3    H128239   3.946   5.455   7.164  0.0522 -1.3527  1.8856
 1348TIP3    H228240   3.868   5.454   7.294 -2.4318  1.5124  0.5532
 1349TIP3   OH228241   5.317   3.024   2.133  0.1045 -0.7462 -0.3966
 1349TIP3    H128242   5.243   3.069   2.174 -0.2955 -0.8095 -1.0317
 1349TIP3    H228243   5.304   3.036   2.039  2.9217  2.4459 -0.5391
 1350TIP3   OH228244   1.596   2.745   1.616  0.4691  0.4468 -0.0097
 1350TIP3    H128245   1.653   2.700   1.678  1.7932  2.3574  0.2339
 1350TIP3    H228246   1.635   2.727   1.530  1.6483  1.9553  0.1770
 1351TIP3   OH228247   2.688   0.423   3.138  0.3879 -0.2080  0.2356
 1351TIP3    H128248   2.627   0.349   3.136 -2.8058  2.2375 -1.0267
 1351TIP3    H228249   2.748   0.406   3.066 -1.3262 -0.8233 -1.1275
 1352TIP3   OH228250   4.571   7.308   0.513 -0.2199  0.1402 -0.5495
 1352TIP3    H128251   4.543   7.399   0.497 -0.5547  0.4342  1.3883
 1352TIP3    H228252   4.506   7.255   0.468 -2.6024  0.8639  1.7374
 1353TIP3   OH228253   1.910   0.014   0.495  0.0038  0.2202  0.7977
 1353TIP3    H128254   1.897  -0.075   0.529  1.6073 -0.7458 -0.9024
 1353TIP3    H228255   1.823   0.042   0.467 -0.1948 -1.8822 -0.9524
 1354TIP3   OH228256   2.507   5.721   9.353 -0.2956  0.7852 -0.2320
 1354TIP3    H128257   2.435   5.676   9.309  0.7753  0.7918 -2.1176
 1354TIP3    H228258   2.499   5.696   9.445 -2.2230  0.1837 -0.5225
 1355TIP3   OH228259   5.857   6.676   9.314  0.1068  0.0401 -0.2741
 1355TIP3    H128260   5.786   6.626   9.354  0.6114 -1.9853 -1.7060
 1355TIP3    H228261   5.814   6.737   9.255 -0.4858 -0.4114 -0.3199
 1356TIP3   OH228262   5.706   3.045   2.179  0.2893  0.7665  0.3842
 1356TIP3    H128263   5.794   3.017   2.205 -0.8329 -2.2100  1.3480
 1356TIP3    H228264   5.656   3.044   2.261 -1.4119 -0.9177 -0.6127
 1357TIP3   OH228265   1.650   2.315   1.727 -0.0648  0.0574  0.1103
 1357TIP3    H128266   1.561   2.283   1.743 -0.2862  0.0140 -1.1285
 1357TIP3    H228267   1.677   2.271   1.646  0.7820  0.6960  0.0370
 1358TIP3   OH228268   0.299   0.079   8.474 -0.1070 -0.4957 -0.2072
 1358TIP3    H128269   0.329   0.121   8.394 -0.4233  0.7956  0.3252
 1358TIP3    H228270   0.376   0.033   8.508 -0.1940 -1.8392 -1.6939
 1359TIP3   OH228271   7.485   0.184   8.096 -0.2568 -0.2764  0.4571
 1359TIP3    H128272   7.478   0.099   8.053 -3.0540 -0.0533  0.3087
 1359TIP3    H228273   7.422   0.181   8.168  0.0112  1.4667  0.8232
 1360TIP3   OH228274   4.767   3.219   7.343 -0.0449  0.2668  0.0039
 1360TIP3    H128275   4.822   3.175   7.278 -1.3975 -2.1756  0.3672
 1360TIP3    H228276   4.681   3.226   7.302 -0.8466 -1.0515  1.3458
 1361TIP3   OH228277   2.272   5.660   9.235  0.1058 -0.2067 -0.0663
 1361TIP3    H128278   2.222   5.580   9.252  0.7433 -0.4258  0.8759
 1361TIP3    H228279   2.314   5.644   9.150 -0.8221 -0.3079 -0.5246
 1362TIP3   OH228280   3.135   2.311   8.627  0.1134 -0.0204 -0.2084
 1362TIP3    H128281   3.107   2.221   8.645 -0.7121  0.1037 -0.8221
 1362TIP3    H228282   3.056   2.364   8.641  1.2137  1.0363  2.9690
 1363TIP3   OH228283   0.808   5.155   1.087  0.0458 -0.2409  0.0725
 1363TIP3    H128284   0.774   5.067   1.098  0.6802 -0.3146  1.5400
 1363TIP3    H228285   0.896   5.143   1.050 -0.2928 -0.1562 -0.8013
 1364TIP3   OH228286   1.920   0.336   9.416 -0.0446  0.2652  0.0821
 1364TIP3    H128287   1.863   0.310   9.344 -0.6425  1.1719  0.2166
 1364TIP3    H228288   2.008   0.334   9.378  0.0313 -2.3953  0.2182
 1365TIP3   OH228289   5.596   4.805   8.149 -0.1229 -0.4878  0.1549
 1365TIP3    H128290   5.539   4.882   8.157 -0.6481 -0.9348  0.7672
 1365TIP3    H228291   5.630   4.811   8.060  0.2613  0.7425  0.3641
 1366TIP3   OH228292   7.031   1.224   2.403  0.3957  0.0422 -0.5028
 1366TIP3    H128293   7.109   1.200   2.453 -0.1283  0.5443  0.5846
 1366TIP3    H228294   7.014   1.315   2.426 -1.3241 -0.4537  0.4107
 1367TIP3   OH228295   2.384   7.215   0.419  0.4610 -0.2582 -0.1114
 1367TIP3    H128296   2.360   7.192   0.329 -0.6208  0.3173  0.0254
 1367TIP3    H228297   2.389   7.130   0.464  0.0619 -0.4849 -0.4817
 1368TIP3   OH228298   1.532   4.498   0.973 -0.2251 -0.4800 -0.0356
 1368TIP3    H128299   1.627   4.487   0.962 -0.0398 -0.5473  1.4610
 1368TIP3    H228300   1.512   4.453   1.055 -1.0508  2.1438  1.2964
 1369TIP3   OH228301   1.037   4.693   2.327 -0.2123  0.2064  0.2691
 1369TIP3    H128302   1.085   4.672   2.407  1.4303 -0.7657 -0.9055
 1369TIP3    H228303   1.007   4.609   2.294 -0.3902  0.5301 -0.4129
 1370TIP3   OH228304   1.539   2.230   0.585  0.2198  0.3089  0.0726
 1370TIP3    H128305   1.462   2.250   0.532 -0.0511 -0.0758  0.3143
 1370TIP3    H228306   1.510   2.161   0.645  1.1259 -0.8606 -0.7649
 1371TIP3   OH228307   4.417   3.886   8.948  0.8102 -0.3880 -0.4653
 1371TIP3    H128308   4.489   3.852   8.895  0.9750 -1.9118  0.6939
 1371TIP3    H228309   4.360   3.811   8.963 -0.0098  0.3584  0.2575
 1372TIP3   OH228310   0.242   1.461   1.435  0.4023 -0.1111 -0.1456
 1372TIP3    H128311   0.205   1.458   1.523  0.7389  1.5084  0.0891
 1372TIP3    H228312   0.188   1.524   1.388 -0.3073 -1.5809 -1.3978
 1373TIP3   OH228313   3.766   3.446   2.554  0.2436 -0.2002  0.0270
 1373TIP3    H128314   3.819   3.370   2.529  0.4645  0.0102 -0.1393
 1373TIP3    H228315   3.827   3.519   2.556  0.2677 -0.2376  1.3431
 1374TIP3   OH228316   0.497   1.429   1.490  0.2234  0.4617 -0.0199
 1374TIP3    H128317   0.518   1.342   1.456 -0.2424 -0.2947  1.5494
 1374TIP3    H228318   0.404   1.440   1.472  0.2815  0.6517 -0.2151
 1375TIP3   OH228319   0.427   0.185   9.593  0.5713 -0.3063  0.3292
 1375TIP3    H128320   0.498   0.128   9.624  2.0497  2.0133  1.5269
 1375TIP3    H228321   0.374   0.202   9.671 -1.9552 -2.6792 -0.7064
 1376TIP3   OH228322   3.891   4.532   7.098  0.0081  0.4499 -0.0785
 1376TIP3    H128323   3.933   4.590   7.034 -0.7330  1.7257  0.5579
 1376TIP3    H228324   3.924   4.445   7.076 -0.3736  0.8115 -2.3314
 1377TIP3   OH228325   3.898   4.512   9.361  0.1814 -0.1322 -0.1416
 1377TIP3    H128326   3.898   4.418   9.346 -0.4004 -0.3000  0.8605
 1377TIP3    H228327   3.828   4.546   9.304 -0.7341 -0.5240  0.7229
 1378TIP3   OH228328   4.456   6.002   0.404  0.1213  0.2874  0.2710
 1378TIP3    H128329   4.508   6.030   0.480  1.3620 -1.9752  0.3719
 1378TIP3    H228330   4.508   6.029   0.328  0.8843 -0.8642  0.3516
 1379TIP3   OH228331   7.188   7.135   1.317  0.2377  0.3443 -0.0028
 1379TIP3    H128332   7.122   7.068   1.337  1.6191 -0.6830  1.2839
 1379TIP3    H228333   7.271   7.087   1.313  1.2889  1.9972  1.0525
 1380TIP3   OH228334   1.977   7.340   0.148 -0.0327  0.1672 -0.6123
 1380TIP3    H128335   2.042   7.375   0.087  1.0843  2.3283  1.6505
 1380TIP3    H228336   1.900   7.395   0.134 -0.1320  0.0047 -0.7215
 1381TIP3   OH228337   4.829   7.569   7.925  0.0554 -0.6603  0.0322
 1381TIP3    H128338   4.777   7.500   7.966  0.4755 -2.0256 -1.5894
 1381TIP3    H228339   4.768   7.640   7.910 -0.9073 -1.4853 -0.0840
 1382TIP3   OH228340   2.374   5.844   8.199 -0.1444  0.5396 -0.0664
 1382TIP3    H128341   2.299   5.786   8.212 -0.7775  1.0576 -1.2731
 1382TIP3    H228342   2.393   5.879   8.286 -3.0798  2.5543 -0.1027
 1383TIP3   OH228343   7.545   6.011   1.054 -0.1849 -0.2998  0.1980
 1383TIP3    H128344   7.592   6.038   0.975 -0.5549 -1.1493 -0.3226
 1383TIP3    H228345   7.455   6.043   1.040 -0.0390  0.3514  0.6952
 1384TIP3   OH228346   3.406   4.838   1.853  0.7368 -0.4917  0.1035
 1384TIP3    H128347   3.484   4.837   1.797 -0.8197 -0.3474 -2.1944
 1384TIP3    H228348   3.424   4.907   1.917  1.9410  0.5290 -1.2487
 1385TIP3   OH228349   7.566   7.535   2.409  0.3099 -0.2208 -0.0243
 1385TIP3    H128350   7.570   7.623   2.448 -1.8448  0.1034 -0.4368
 1385TIP3    H228351   7.643   7.491   2.444  0.0841  1.0104  2.2530
 1386TIP3   OH228352   2.216   2.785   8.248  0.1560  0.2916  0.0156
 1386TIP3    H128353   2.230   2.737   8.167  2.6331  0.9497 -0.0216
 1386TIP3    H228354   2.194   2.874   8.219 -0.4708  0.1658  0.0879
 1387TIP3   OH228355   0.906   6.052   9.950  0.2469  0.8206 -0.2017
 1387TIP3    H128356   0.986   6.086   9.989 -1.2358  2.1019  1.9425
 1387TIP3    H228357   0.864   6.128   9.911 -0.4796  0.3849 -0.2909
 1388TIP3   OH228358   4.347   5.445   1.830  0.2039 -0.5462  0.5014
 1388TIP3    H128359   4.433   5.407   1.850 -0.0292 -1.2411  0.2307
 1388TIP3    H228360   4.348   5.455   1.734 -0.4665 -1.7265  0.3470
 1389TIP3   OH228361   2.501   1.494   8.639  0.3506  0.5911 -0.2900
 1389TIP3    H128362   2.416   1.511   8.598 -0.3525  2.0303  1.6004
 1389TIP3    H228363   2.557   1.564   8.607  0.6596 -0.0008 -1.0589
 1390TIP3   OH228364   0.041   6.332   9.791  0.0499  0.4491  0.5565
 1390TIP3    H128365   0.041   6.318   9.886  0.8596 -1.0040  0.3757
 1390TIP3    H228366   0.042   6.244   9.754 -0.3713  0.9929 -0.8142
 1391TIP3   OH228367   7.373   0.680   8.616 -0.1681 -0.0597  0.3190
 1391TIP3    H128368   7.295   0.724   8.583 -0.4313 -2.1219 -2.1939
 1391TIP3    H228369   7.340   0.605   8.665  0.1774 -0.7307 -0.4391
 1392TIP3   OH228370   6.367   7.468   9.822  0.1183  0.3297 -0.4037
 1392TIP3    H128371   6.337   7.383   9.855 -0.4135  1.1256  1.2490
 1392TIP3    H228372   6.298   7.529   9.847  0.5316  1.2844 -1.4997
 1393TIP3   OH228373   3.486   2.909   8.793  0.4752 -0.1943  0.0419
 1393TIP3    H128374   3.576   2.941   8.792  0.3614  0.4491  2.4999
 1393TIP3    H228375   3.481   2.853   8.871 -1.2150 -0.3623 -0.1397
 1394TIP3   OH228376   2.279   6.678   7.518 -0.5047  0.0788 -0.2800
 1394TIP3    H128377   2.287   6.653   7.425  0.2202 -1.6063  0.1869
 1394TIP3    H228378   2.185   6.675   7.536 -0.6083 -0.1239 -0.8277
 1395TIP3   OH228379   5.547   7.672   0.987 -0.6116 -0.0869 -0.2794
 1395TIP3    H128380   5.637   7.684   1.017 -0.2793 -1.6737 -0.5417
 1395TIP3    H228381   5.533   7.742   0.924  0.1710  0.6508  0.3467
 1396TIP3   OH228382   6.227   2.421   9.237  0.3364  0.3951  0.0062
 1396TIP3    H128383   6.142   2.416   9.280 -1.0345  1.7040 -2.3172
 1396TIP3    H228384   6.208   2.401   9.145  2.9566 -1.5445 -0.2335
 1397TIP3   OH228385   0.260   5.896   9.394  0.2925 -0.0137 -0.0626
 1397TIP3    H128386   0.206   5.933   9.463  1.1279 -0.5097  0.8832
 1397TIP3    H228387   0.202   5.837   9.347  0.2164 -1.2841  1.5381
 1398TIP3   OH228388   6.345   6.317   2.252 -0.3110  0.0313  0.1657
 1398TIP3    H128389   6.334   6.266   2.332 -1.1291  0.0360  0.0657
 1398TIP3    H228390   6.267   6.297   2.200 -0.5908  1.2700  0.0687
 1399TIP3   OH228391   2.968   6.470   8.659 -0.4079  0.6790 -0.1049
 1399TIP3    H128392   2.920   6.440   8.736  0.0294 -0.4807 -0.2586
 1399TIP3    H228393   2.908   6.457   8.586  0.3080 -1.3795 -0.3853
 1400TIP3   OH228394   0.565   6.047   1.125 -0.2360  0.2305  0.0025
 1400TIP3    H128395   0.498   5.984   1.150 -1.9703  0.8167 -2.7151
 1400TIP3    H228396   0.517   6.129   1.111  1.3826  1.2368 -0.0212
 1401TIP3   OH228397   4.091   5.552   1.174 -0.1559  0.0447 -0.2453
 1401TIP3    H128398   4.098   5.610   1.249  1.8998  1.1819 -1.2351
 1401TIP3    H228399   4.033   5.597   1.113  1.8396  1.4510 -1.2334
 1402TIP3   OH228400   2.626   0.777   2.210 -0.2354 -0.5216 -0.3143
 1402TIP3    H128401   2.676   0.837   2.265 -1.0377 -0.4702  0.3840
 1402TIP3    H228402   2.536   0.783   2.244 -1.0390  0.4752 -2.4338
 1403TIP3   OH228403   3.638   1.076   1.720  0.5915  0.6675 -0.1138
 1403TIP3    H128404   3.662   1.010   1.655 -0.7721 -0.3576  0.3746
 1403TIP3    H228405   3.719   1.090   1.770  0.2483 -3.1906  1.9365
 1404TIP3   OH228406   6.622   3.636   9.598  0.1235  0.0172 -0.3241
 1404TIP3    H128407   6.545   3.637   9.542 -0.6411 -0.7905  0.6750
 1404TIP3    H228408   6.618   3.552   9.643  1.1661  0.2942  0.3146
 1405TIP3   OH228409   0.806   2.697   9.572 -0.2206  0.1837  0.1139
 1405TIP3    H128410   0.875   2.714   9.637 -0.5185 -0.7770  0.6941
 1405TIP3    H228411   0.854   2.673   9.492  0.1347 -1.4250  0.7735
 1406TIP3   OH228412   2.237   2.461   9.600  0.0645  0.2350  0.3096
 1406TIP3    H128413   2.194   2.457   9.685  1.6677 -2.4719  1.0913
 1406TIP3    H228414   2.186   2.402   9.544  0.2838  0.3248  0.0070
 1407TIP3   OH228415   5.812   1.350   1.100 -0.5312 -0.2876 -0.1191
 1407TIP3    H128416   5.727   1.353   1.056 -0.7929  0.4014  0.4229
 1407TIP3    H228417   5.839   1.441   1.108 -0.0074 -0.4659  0.2381
 1408TIP3   OH228418   6.349   5.130   2.211 -0.1894 -0.4707  0.5604
 1408TIP3    H128419   6.345   5.216   2.170  0.2591 -0.4587  0.5380
 1408TIP3    H228420   6.351   5.149   2.305 -1.3709 -0.5028  0.6107
 1409TIP3   OH228421   0.926   1.655   2.238  0.1606 -0.0657  0.2323
 1409TIP3    H128422   0.843   1.698   2.260  0.5693  0.6288  0.4230
 1409TIP3    H228423   0.993   1.709   2.279  0.7865  0.0005 -0.8522
 1410TIP3   OH228424   2.972   2.536   1.260 -0.4060 -0.6876  0.1727
 1410TIP3    H128425   2.960   2.461   1.318  0.6529  0.3773  1.8727
 1410TIP3    H228426   2.968   2.612   1.318  0.3203  0.4607 -1.2039
 1411TIP3   OH228427   3.457   4.056   0.928  0.4953  0.1754  0.3020
 1411TIP3    H128428   3.474   3.999   1.003 -2.0695 -0.8897  0.1820
 1411TIP3    H228429   3.431   3.996   0.858  1.4479  1.2569 -1.0404
 1412TIP3   OH228430   6.224   6.258   1.521 -0.4018 -0.3906 -0.0343
 1412TIP3    H128431   6.190   6.319   1.586 -0.9768 -0.4595 -0.2611
 1412TIP3    H228432   6.315   6.284   1.509 -0.7984  0.8238 -0.5676
 1413TIP3   OH228433   6.064   3.680   0.959  0.6733  0.3672 -0.4406
 1413TIP3    H128434   6.053   3.773   0.979 -2.3255 -0.1500  0.7912
 1413TIP3    H228435   6.133   3.650   1.018  2.2887  1.9028 -1.4458
 1414TIP3   OH228436   0.613   4.048   9.191  0.2155  0.4533  0.0201
 1414TIP3    H128437   0.676   4.026   9.122  1.7412  1.3242  1.0707
 1414TIP3    H228438   0.568   3.966   9.210  0.7273 -0.1005 -1.0537
 1415TIP3   OH228439   0.519   6.833   9.834 -0.7647 -0.4721 -0.4049
 1415TIP3    H128440   0.560   6.786   9.762 -0.1753  1.0058 -1.0613
 1415TIP3    H228441   0.428   6.842   9.808 -0.3087  1.1555 -1.6135
 1416TIP3   OH228442   4.026   0.303   1.799  0.0741  0.3934  0.1392
 1416TIP3    H128443   4.068   0.259   1.873 -1.9031 -1.7098  0.1176
 1416TIP3    H228444   3.961   0.361   1.840 -0.6713 -0.3956  0.1092
 1417TIP3   OH228445   0.418   5.594   2.522  0.0384 -0.0834 -0.4444
 1417TIP3    H128446   0.424   5.558   2.610 -0.1877 -1.1652 -0.8583
 1417TIP3    H228447   0.508   5.601   2.492  0.2837  2.1589  0.5645
 1418TIP3   OH228448   2.223   6.619   9.011  0.4661 -0.0513 -0.1745
 1418TIP3    H128449   2.236   6.673   8.933  0.4443 -0.4544 -0.4635
 1418TIP3    H228450   2.170   6.673   9.070  0.7329  0.3693 -0.3163
 1419TIP3   OH228451   4.758   6.238   2.229 -0.2139  0.6781  0.1572
 1419TIP3    H128452   4.727   6.322   2.197 -1.1036  0.3673  0.1721
 1419TIP3    H228453   4.678   6.189   2.250  0.1632 -1.0195 -1.9628
 1420TIP3   OH228454   2.227   5.813   0.206 -0.2804  0.3073 -0.4429
 1420TIP3    H128455   2.213   5.789   0.115  0.1684  0.5744 -0.5835
 1420TIP3    H228456   2.319   5.838   0.211 -0.2240  0.0085  0.1452
 1421TIP3   OH228457   7.465   7.640   0.454  0.1349  0.0805 -0.1508
 1421TIP3    H128458   7.394   7.608   0.511 -1.6261  0.4561 -1.9940
 1421TIP3    H228459   7.443   7.605   0.367  2.6487 -0.3634 -0.6895
 1422TIP3   OH228460   1.449   2.044   7.247  0.0066 -0.5059  0.6304
 1422TIP3    H128461   1.435   2.070   7.338  1.6424  1.3581  0.4071
 1422TIP3    H228462   1.428   2.122   7.196  1.6453 -0.6523 -0.3468
 1423TIP3   OH228463   6.108   4.447   0.730 -0.3235  0.1391  0.5114
 1423TIP3    H128464   6.076   4.446   0.820  0.0342  0.8906  0.6542
 1423TIP3    H228465   6.160   4.366   0.722  1.0172  0.8582  1.5002
 1424TIP3   OH228466   1.559   0.810   9.015 -0.2115  0.0481 -0.3116
 1424TIP3    H128467   1.464   0.802   9.019 -0.1748 -0.0281  2.9160
 1424TIP3    H228468   1.579   0.888   9.066  1.4752  0.0264 -0.8710
 1425TIP3   OH228469   7.140   6.756   1.154 -0.4482  0.1211 -0.2781
 1425TIP3    H128470   7.161   6.843   1.120  0.7002 -0.5973 -1.5170
 1425TIP3    H228471   7.046   6.758   1.171 -0.3938  1.6627 -0.0808
 1426TIP3   OH228472   6.555   1.198   1.949  0.2511  0.0091 -0.6716
 1426TIP3    H128473   6.589   1.281   1.915 -0.1872  0.6486  0.4108
 1426TIP3    H228474   6.606   1.183   2.029  0.5162 -0.9186 -0.9997
 1427TIP3   OH228475   5.234   5.259   8.390 -0.5850  0.1219  0.1077
 1427TIP3    H128476   5.305   5.202   8.361  0.5055  0.2802  2.2705
 1427TIP3    H228477   5.270   5.307   8.464 -2.1461  2.1335 -0.3228
 1428TIP3   OH228478   1.709   1.422   7.925  0.4982  0.3364  0.1009
 1428TIP3    H128479   1.643   1.446   7.860  1.7086  0.7517 -0.9990
 1428TIP3    H228480   1.680   1.467   8.005 -0.4133  0.7227 -0.4306
 1429TIP3   OH228481   3.912   6.025   8.160  0.7232 -0.1522 -0.3017
 1429TIP3    H128482   3.902   5.930   8.154  1.1582 -0.2139 -0.1248
 1429TIP3    H228483   3.822   6.058   8.161  0.5672 -0.5545 -0.4477
 1430TIP3   OH228484   4.634   1.826   1.132 -0.0431 -0.8119 -0.0584
 1430TIP3    H128485   4.608   1.866   1.049  0.9671  0.2210  0.1048
 1430TIP3    H228486   4.729   1.818   1.126  0.1387  0.0609  1.3284
 1431TIP3   OH228487   1.272   3.492   6.930  0.7775 -0.0727 -0.8347
 1431TIP3    H128488   1.226   3.576   6.935  2.2227  0.7069 -0.0549
 1431TIP3    H228489   1.221   3.433   6.985 -0.6414  0.0825 -1.9393
 1432TIP3   OH228490   4.357   0.543   1.523 -0.3911 -0.6921 -0.8195
 1432TIP3    H128491   4.277   0.574   1.566  0.0049  1.0319 -1.2510
 1432TIP3    H228492   4.360   0.449   1.543  0.0242  0.0311  3.3462
 1433TIP3   OH228493   5.009   2.254   9.194  0.4872  0.0350  0.6246
 1433TIP3    H128494   5.090   2.238   9.242  0.8522 -1.1268 -0.3315
 1433TIP3    H228495   4.948   2.189   9.229  0.3327  0.1071  0.4868
 1434TIP3   OH228496   2.617   0.881   0.410  0.5770  0.2218  0.0412
 1434TIP3    H128497   2.689   0.938   0.385  2.2797 -1.2611  1.3184
 1434TIP3    H228498   2.619   0.810   0.346 -0.4414  0.6790 -0.5238
 1435TIP3   OH228499   0.597   3.822   2.453 -0.1180 -0.2713  0.0266
 1435TIP3    H128500   0.580   3.748   2.395  0.7018  0.4045 -1.1319
 1435TIP3    H228501   0.668   3.791   2.510  0.2632 -0.3815 -0.4904
 1436TIP3   OH228502   1.321   2.768   0.647 -0.3361 -0.1278  0.1132
 1436TIP3    H128503   1.283   2.761   0.734 -0.3532  1.3853  0.2578
 1436TIP3    H228504   1.300   2.685   0.604  0.3212 -1.2033  1.7805
 1437TIP3   OH228505   3.571   6.864   8.306 -0.0919 -0.2545 -0.1261
 1437TIP3    H128506   3.581   6.955   8.333  1.3479 -0.5257  0.3435
 1437TIP3    H228507   3.620   6.857   8.224 -0.6371 -0.4990 -0.4411
 1438TIP3   OH228508   1.049   1.646   1.887 -0.5986 -0.2142 -0.5159
 1438TIP3    H128509   0.966   1.690   1.875 -0.9235 -0.6244  0.1568
 1438TIP3    H228510   1.059   1.589   1.810  0.6817  2.2889 -2.3458
 1439TIP3   OH228511   5.893   7.563   8.851  0.2693 -0.3931  0.1465
 1439TIP3    H128512   5.809   7.583   8.891  0.0966  0.7998 -0.7495
 1439TIP3    H228513   5.918   7.479   8.888 -0.6427 -0.1044  1.4870
 1440TIP3   OH228514   5.661   3.330   9.764 -0.1821 -0.1380 -0.4132
 1440TIP3    H128515   5.680   3.372   9.848  1.8408 -0.1619 -0.7998
 1440TIP3    H228516   5.690   3.393   9.699 -2.5328  0.2477 -1.1794
 1441TIP3   OH228517   3.091   5.943   8.757 -0.0794  0.3541 -0.1362
 1441TIP3    H128518   3.123   6.028   8.730 -1.1901  1.8478  2.7955
 1441TIP3    H228519   3.113   5.884   8.685  3.9428  2.3317 -0.7679
 1442TIP3   OH228520   3.544   5.717   7.101 -0.0630  0.2785 -0.3483
 1442TIP3    H128521   3.461   5.761   7.119  0.5902  0.7554  1.8553
 1442TIP3    H228522   3.600   5.785   7.063 -0.2666  0.3096 -0.5920
 1443TIP3   OH228523   1.452   2.550   1.881  0.2940 -0.1900 -0.0498
 1443TIP3    H128524   1.493   2.478   1.929 -1.0328 -0.1531  1.1767
 1443TIP3    H228525   1.395   2.593   1.944 -0.9845  0.2973 -1.4633
 1444TIP3   OH228526   0.493   5.297   7.028  0.4507 -0.2894  0.7402
 1444TIP3    H128527   0.527   5.384   7.005 -0.9397  0.0076 -0.2813
 1444TIP3    H228528   0.572   5.243   7.036  1.2273  0.5386 -0.8452
 1445TIP3   OH228529   3.927   4.896   0.111 -0.1193 -0.4968 -0.0391
 1445TIP3    H128530   3.856   4.948   0.148  0.8061 -0.4731  1.7858
 1445TIP3    H228531   3.984   4.961   0.068 -1.8331 -0.6447 -2.7985
 1446TIP3   OH228532   2.669   7.190   8.482  0.0590  0.8823 -0.3204
 1446TIP3    H128533   2.724   7.236   8.419 -0.3038 -0.3343 -1.5873
 1446TIP3    H228534   2.730   7.153   8.545  0.4317  2.1313  0.0859
 1447TIP3   OH228535   2.443   2.910   8.014  0.6067 -0.2142 -0.5582
 1447TIP3    H128536   2.453   3.004   7.997  1.5349 -0.4921 -1.6834
 1447TIP3    H228537   2.499   2.893   8.090  0.4853  0.1281 -0.3922
 1448TIP3   OH228538   4.582   0.450   9.019 -0.9791  0.0235 -0.3621
 1448TIP3    H128539   4.537   0.533   9.035 -1.2971  0.6353 -3.7336
 1448TIP3    H228540   4.511   0.386   9.007 -0.7384 -0.7749  1.9224
 1449TIP3   OH228541   2.312   4.755   7.293 -0.3031 -0.1482  0.3984
 1449TIP3    H128542   2.366   4.833   7.311  0.1003  0.2574 -2.1417
 1449TIP3    H228543   2.241   4.760   7.356  1.3867  0.5447  2.3647
 1450TIP3   OH228544   5.191   0.252   9.446  0.1684  0.0936 -0.0967
 1450TIP3    H128545   5.163   0.332   9.492  0.0546  0.0545 -0.0979
 1450TIP3    H228546   5.277   0.274   9.410  0.4661 -0.0244  0.5250
 1451TIP3   OH228547   1.040   0.796   1.269  0.2666 -0.5461  0.1419
 1451TIP3    H128548   1.021   0.756   1.355  0.9038 -0.2059  0.4408
 1451TIP3    H228549   0.994   0.880   1.271  0.2579 -0.5508  0.1386
 1452TIP3   OH228550   7.157   0.156   0.663 -0.4613  0.3529  0.3132
 1452TIP3    H128551   7.229   0.218   0.675  0.4636 -0.6643  0.2855
 1452TIP3    H228552   7.153   0.108   0.746 -2.1128  1.3697  0.8701
 1453TIP3   OH228553   6.281   4.187   9.871  0.1941 -0.0333  0.0483
 1453TIP3    H128554   6.373   4.160   9.868  0.1705 -0.0920 -0.2087
 1453TIP3    H228555   6.258   4.203   9.779  0.4403  1.6845  0.2618
 1454TIP3   OH228556   6.995   4.490   7.897  0.6365  0.4041  0.4413
 1454TIP3    H128557   6.969   4.528   7.813 -1.2609  1.3926  1.3974
 1454TIP3    H228558   6.971   4.397   7.890 -0.0096  0.5901  0.0636
 1455TIP3   OH228559   2.047   1.199   6.872 -0.4381 -0.4479  0.6976
 1455TIP3    H128560   1.995   1.156   6.940 -1.3553 -0.0047  0.2778
 1455TIP3    H228561   2.019   1.159   6.790 -0.1440 -0.1764  0.4591
 1456TIP3   OH228562   1.872   4.202   1.506  0.0178 -0.0190  0.2812
 1456TIP3    H128563   1.952   4.245   1.534 -0.0120  1.0385 -1.1132
 1456TIP3    H228564   1.836   4.260   1.438 -0.9448 -1.3886 -0.4399
 1457TIP3   OH228565   5.290   2.625   9.295  0.3805  0.4074  0.5662
 1457TIP3    H128566   5.254   2.536   9.289 -1.0345  0.9228  0.8302
 1457TIP3    H228567   5.383   2.612   9.315  0.2047 -1.0111  0.6036
 1458TIP3   OH228568   2.595   2.557   2.200 -0.0130  0.1314 -0.2355
 1458TIP3    H128569   2.674   2.593   2.239  0.3620  0.0567 -0.9153
 1458TIP3    H228570   2.524   2.610   2.237  0.4377  0.8641 -0.4019
 1459TIP3   OH228571   5.982   5.094   8.660  0.1423 -0.0558  0.3642
 1459TIP3    H128572   5.979   4.999   8.669  0.0683 -0.0459  0.4471
 1459TIP3    H228573   5.921   5.114   8.590 -0.4656 -0.0001  0.8972
 1460TIP3   OH228574   5.524   4.892   2.349  0.2234  0.5264 -0.1589
 1460TIP3    H128575   5.447   4.837   2.367  0.5744  0.3213  0.7935
 1460TIP3    H228576   5.593   4.829   2.326  0.5582  0.5795  0.6837
 1461TIP3   OH228577   1.613   1.849   0.490 -0.7399  0.1137 -0.5160
 1461TIP3    H128578   1.573   1.818   0.571  0.4994  0.8275  0.3926
 1461TIP3    H228579   1.545   1.901   0.448 -1.6866 -0.9785 -0.3842
 1462TIP3   OH228580   1.250   3.954   1.432 -0.1166 -0.1868 -0.1163
 1462TIP3    H128581   1.288   4.006   1.503 -0.2948 -0.4236  0.1590
 1462TIP3    H228582   1.292   3.868   1.440  0.0573 -0.1328 -0.4642
 1463TIP3   OH228583   1.702   6.852   9.568 -0.3274  0.0765 -0.0333
 1463TIP3    H128584   1.654   6.780   9.526 -1.4911 -1.4776  3.4849
 1463TIP3    H228585   1.635   6.919   9.584  0.0095  0.4795 -0.2935
 1464TIP3   OH228586   6.792   5.583   8.130 -0.4355 -0.1025  0.4415
 1464TIP3    H128587   6.865   5.527   8.157 -0.5660 -0.8367 -0.6886
 1464TIP3    H228588   6.834   5.664   8.099 -0.0864 -0.5299 -0.2259
 1465TIP3   OH228589   5.518   4.540   9.132  0.6458 -0.2358  0.2967
 1465TIP3    H128590   5.613   4.545   9.136  0.6442 -0.9211  2.2971
 1465TIP3    H228591   5.500   4.462   9.079  1.1438  0.5675 -1.1014
 1466TIP3   OH228592   4.590   2.855   7.286  0.8235  0.5090  0.3377
 1466TIP3    H128593   4.562   2.925   7.344  0.2885  1.6866 -1.2537
 1466TIP3    H228594   4.512   2.831   7.237  0.9276 -1.4531  1.0394
 1467TIP3   OH228595   5.494   5.740   0.698  0.2118  0.2763  0.3787
 1467TIP3    H128596   5.452   5.797   0.633 -0.6186 -0.4068  0.2912
 1467TIP3    H228597   5.584   5.771   0.703 -0.1342  1.3808  0.0915
 1468TIP3   OH228598   1.922   2.374   2.705  0.0891 -0.3450 -0.3448
 1468TIP3    H128599   1.855   2.388   2.638 -1.5882 -0.0407  1.3206
 1468TIP3    H228600   1.993   2.433   2.682 -0.4231 -0.2941 -1.8692
 1469TIP3   OH228601   3.991   5.918   9.600  0.1618 -0.3028  0.5808
 1469TIP3    H128602   3.937   5.886   9.672 -0.9342 -1.1186 -0.5619
 1469TIP3    H228603   3.979   6.013   9.601 -0.8868 -0.4266  0.6652
 1470TIP3   OH228604   1.805   3.424   0.740  0.4101 -0.0893  1.1320
 1470TIP3    H128605   1.802   3.495   0.675  0.8049 -0.0164  1.1883
 1470TIP3    H228606   1.764   3.350   0.696 -0.0644  0.1917  1.0956
 1471TIP3   OH228607   2.882   0.218   9.388 -0.3666 -0.5474 -0.0854
 1471TIP3    H128608   2.892   0.262   9.472 -0.4586 -1.6679  0.5429
 1471TIP3    H228609   2.970   0.189   9.366 -0.1640  0.6270 -0.9034
 1472TIP3   OH228610   5.230   4.042   2.723  0.9366  0.1973 -0.1229
 1472TIP3    H128611   5.157   4.073   2.776 -0.0755 -1.9638 -0.1533
 1472TIP3    H228612   5.189   4.012   2.642  1.8040 -1.3044 -0.0337
 1473TIP3   OH228613   7.294   6.971   9.567  0.3720  0.4105  0.0815
 1473TIP3    H128614   7.231   6.913   9.525  1.0191  0.9181 -1.6733
 1473TIP3    H228615   7.245   7.051   9.586  0.3691  0.6567 -0.9190
 1474TIP3   OH228616   4.949   5.411   0.587  0.0052 -0.4111 -0.0790
 1474TIP3    H128617   4.945   5.320   0.618  0.5599 -0.3342  0.2373
 1474TIP3    H228618   5.011   5.453   0.646  0.7282 -0.1418 -1.0029
 1475TIP3   OH228619   3.341   6.396   7.516 -0.2106 -0.7959  0.6953
 1475TIP3    H128620   3.433   6.403   7.493 -0.0368 -1.5353  1.1407
 1475TIP3    H228621   3.306   6.484   7.501  0.3469 -0.7411 -0.3804
 1476TIP3   OH228622   2.005   1.916   8.399 -0.8015  0.3555  0.2998
 1476TIP3    H128623   2.047   1.950   8.479 -0.4061 -1.9957  1.1636
 1476TIP3    H228624   1.912   1.917   8.420 -0.6599 -0.8628  1.0899
 1477TIP3   OH228625   1.514   0.547   3.501 -0.0318 -0.4771 -0.8031
 1477TIP3    H128626   1.557   0.619   3.455 -0.2020  0.3025  0.2444
 1477TIP3    H228627   1.578   0.476   3.498  1.7963  0.9416  1.5342
 1478TIP3   OH228628   3.249   5.713   8.629  0.2943 -0.4691 -0.2939
 1478TIP3    H128629   3.276   5.760   8.550 -1.7869 -2.3703 -2.2670
 1478TIP3    H228630   3.203   5.636   8.596  0.1333 -1.8250  2.8161
 1479TIP3   OH228631   2.154   1.514   0.614  0.1714  0.3914 -0.1657
 1479TIP3    H128632   2.187   1.436   0.570 -1.6817  1.0369 -2.9465
 1479TIP3    H228633   2.091   1.480   0.678  0.1856 -0.4416 -0.5749
 1480TIP3   OH228634   2.099   2.156   2.585  0.0638 -0.9760 -0.2607
 1480TIP3    H128635   2.135   2.138   2.671 -2.1335 -1.4669  0.6359
 1480TIP3    H228636   2.088   2.251   2.582 -0.2808 -0.9956  0.2142
 1481TIP3   OH228637   2.477   3.765   9.143 -0.5407 -0.0615 -0.0572
 1481TIP3    H128638   2.486   3.836   9.206 -0.3736 -1.2497  1.3214
 1481TIP3    H228639   2.401   3.716   9.174 -1.0384 -0.1437 -1.3485
 1482TIP3   OH228640   0.787   7.277   2.194 -0.0884  0.2121 -0.0563
 1482TIP3    H128641   0.746   7.321   2.269 -2.0654 -0.6390 -0.5516
 1482TIP3    H228642   0.824   7.348   2.142 -1.2734  1.1048  0.2652
 1483TIP3   OH228643   6.447   6.666   0.867  0.3907  0.4146 -0.0058
 1483TIP3    H128644   6.500   6.708   0.934  2.1925  2.6428 -2.6042
 1483TIP3    H228645   6.502   6.594   0.835  0.6098  0.8897 -0.7142
 1484TIP3   OH228646   4.499   2.771   8.664  0.4455  0.0486 -0.3382
 1484TIP3    H128647   4.591   2.754   8.681 -0.3642 -2.5144  2.3449
 1484TIP3    H228648   4.464   2.688   8.631 -1.3689  0.0728  1.3017
 1485TIP3   OH228649   6.947   7.148   9.386  0.2348  0.2284 -0.7078
 1485TIP3    H128650   7.016   7.118   9.327 -0.0705 -1.7494 -0.1239
 1485TIP3    H228651   6.869   7.098   9.359 -0.1370 -0.0068  0.7287
 1486TIP3   OH228652   2.296   4.544   9.957 -0.6596  0.2411  0.1237
 1486TIP3    H128653   2.206   4.553   9.989 -0.8976  1.4821 -0.8322
 1486TIP3    H228654   2.317   4.452   9.972 -2.3006 -0.2219 -0.1803
 1487TIP3   OH228655   5.572   3.464   1.164  0.1342 -0.4034  0.2074
 1487TIP3    H128656   5.610   3.546   1.132  1.6960 -0.7103  1.1544
 1487TIP3    H228657   5.513   3.436   1.093 -0.9853  1.8487  0.1621
 1488TIP3   OH228658   1.763   7.493   0.952  0.2329 -0.9921  0.5623
 1488TIP3    H128659   1.749   7.407   0.911  3.1481 -2.0821  1.5905
 1488TIP3    H228660   1.737   7.480   1.043  0.0748 -0.5816  0.5768
 1489TIP3   OH228661   0.665   7.239   2.746 -0.3855  0.6890 -0.1900
 1489TIP3    H128662   0.576   7.204   2.742  0.2997 -1.2019 -0.1024
 1489TIP3    H228663   0.656   7.331   2.723 -2.2595  0.3403 -1.0315
 1490TIP3   OH228664   1.065   0.818   9.508 -0.1566  0.2243  0.2271
 1490TIP3    H128665   1.115   0.774   9.577  0.6116  0.9815  0.1731
 1490TIP3    H228666   1.035   0.747   9.452 -0.1984 -0.3481  0.9538
 1491TIP3   OH228667   1.114   1.227   0.478  0.8360 -0.1164  0.4180
 1491TIP3    H128668   1.060   1.156   0.445  2.0870 -1.3241  0.9044
 1491TIP3    H228669   1.164   1.257   0.402 -0.3700  0.9510 -0.0151
 1492TIP3   OH228670   6.646   6.954   9.007  0.3406 -0.2220  0.1294
 1492TIP3    H128671   6.614   7.014   8.940  2.2425  1.4151  0.5823
 1492TIP3    H228672   6.568   6.905   9.035 -0.6058 -0.6444 -2.8572
 1493TIP3   OH228673   2.571   5.789   7.994 -0.6445 -0.5312  0.2735
 1493TIP3    H128674   2.511   5.810   8.066 -1.6342  1.1191 -0.9687
 1493TIP3    H228675   2.547   5.700   7.968 -2.6687  0.1089 -0.2449
 1494TIP3   OH228676   3.990   6.606   0.638 -0.1234 -0.4309 -0.4154
 1494TIP3    H128677   3.964   6.679   0.581 -1.1406  0.2608  0.8836
 1494TIP3    H228678   4.064   6.640   0.688 -1.8056  0.4921  1.5990
 1495TIP3   OH228679   2.174   0.009   8.022  0.3384 -0.2956  0.3817
 1495TIP3    H128680   2.172   0.050   7.936  0.3386 -0.6911  0.1893
 1495TIP3    H228681   2.084  -0.021   8.037  0.4185 -0.5570  0.3537
 1496TIP3   OH228682   4.417   5.314   7.851 -0.4123 -0.2669  0.0800
 1496TIP3    H128683   4.509   5.316   7.876 -0.7247  2.2279  1.3205
 1496TIP3    H228684   4.417   5.287   7.759  1.6090  0.4977 -0.1755
 1497TIP3   OH228685   0.777   1.899   2.905 -0.3037 -0.2143 -0.8470
 1497TIP3    H128686   0.761   1.928   2.994  3.4229 -2.3437  0.7311
 1497TIP3    H228687   0.706   1.839   2.885  0.0610 -1.6237  1.7472
 1498TIP3   OH228688   4.139   0.400   0.230  0.4507  0.1561 -0.2276
 1498TIP3    H128689   4.199   0.327   0.248 -0.0432 -0.0553  0.6385
 1498TIP3    H228690   4.196   0.473   0.206  1.0291 -0.1879  0.0739
 1499TIP3   OH228691   1.449   2.646   7.031  0.0778  0.2087 -0.0587
 1499TIP3    H128692   1.375   2.706   7.018  0.6627  0.6004 -1.9555
 1499TIP3    H228693   1.526   2.703   7.027  0.6733 -0.6494 -2.3183
 1500TIP3   OH228694   1.866   2.384   9.230 -0.1867 -0.2734  0.0247
 1500TIP3    H128695   1.783   2.431   9.217 -0.8000 -1.6636 -1.4831
 1500TIP3    H228696   1.933   2.446   9.201 -0.7237  0.6559  0.7019
 1501TIP3   OH228697   2.268   1.062   2.558 -0.0262  0.2105  0.0409
 1501TIP3    H128698   2.275   1.129   2.627 -0.6383  0.2414  0.0809
 1501TIP3    H228699   2.337   1.085   2.496  0.8909 -0.1314  0.8976
 1502TIP3   OH228700   5.304   4.718   2.431 -0.5136 -0.5005  0.1215
 1502TIP3    H128701   5.273   4.675   2.351  1.2327  1.0776 -1.4861
 1502TIP3    H228702   5.241   4.691   2.498 -1.8885 -2.0981 -1.6976
 1503TIP3   OH228703   7.073   3.943   0.159  0.2457  0.3797 -0.1100
 1503TIP3    H128704   6.992   3.922   0.112  0.6620 -0.4408 -0.4792
 1503TIP3    H228705   7.045   4.004   0.228 -0.6668  0.1961 -0.2970
 1504TIP3   OH228706   6.623   2.152   1.189 -0.2608  0.0429  0.4783
 1504TIP3    H128707   6.533   2.154   1.221 -1.0354  1.7388 -1.5456
 1504TIP3    H228708   6.615   2.136   1.095  1.6838 -1.4814  0.5036
 1505TIP3   OH228709   4.300   2.573   7.901 -0.0869 -0.2721  0.2166
 1505TIP3    H128710   4.343   2.499   7.859 -0.5251 -0.9509  0.9277
 1505TIP3    H228711   4.232   2.534   7.956 -0.5460  0.6784  0.3603
 1506TIP3   OH228712   1.097   3.453   7.684 -0.1438  0.7946  0.1413
 1506TIP3    H128713   1.055   3.530   7.646 -0.5785  0.2793 -0.4547
 1506TIP3    H228714   1.185   3.454   7.648 -0.9690 -0.4681 -2.1193
 1507TIP3   OH228715   4.246   1.006   0.209 -0.0856 -0.1982 -0.0861
 1507TIP3    H128716   4.271   0.948   0.138 -0.7267  1.2245 -1.5331
 1507TIP3    H228717   4.180   0.957   0.259 -2.6094  0.1310 -2.8214
 1508TIP3   OH228718   0.474   6.203   1.551 -0.2684 -0.4057  0.1509
 1508TIP3    H128719   0.466   6.121   1.502 -2.0895 -0.7112  0.8454
 1508TIP3    H228720   0.559   6.197   1.594 -0.1764 -1.7509 -0.1627
 1509TIP3   OH228721   6.891   4.276   0.503 -0.1214 -0.3584  0.3107
 1509TIP3    H128722   6.800   4.304   0.514  0.3823  1.4343  0.2917
 1509TIP3    H228723   6.918   4.312   0.419  1.8174  2.9889  2.1328
 1510TIP3   OH228724   4.741   5.788   9.040  0.0245  0.1804  0.3642
 1510TIP3    H128725   4.769   5.762   9.128 -0.1599 -0.1961  0.3144
 1510TIP3    H228726   4.657   5.744   9.027  0.3001 -0.2000 -0.2010
 1511TIP3   OH228727   0.714   6.952   8.389 -0.0414  0.1049  0.0059
 1511TIP3    H128728   0.796   6.956   8.340  0.0415  0.3682  0.1663
 1511TIP3    H228729   0.690   6.859   8.387  0.2094  0.0407 -0.1239
 1512TIP3   OH228730   4.450   6.641   0.236 -0.6942  0.2046  0.1038
 1512TIP3    H128731   4.368   6.657   0.283 -1.3796  1.4173 -1.4301
 1512TIP3    H228732   4.513   6.700   0.276 -0.9937  0.4622  0.1975
 1513TIP3   OH228733   1.660   4.952   9.656  0.9271  0.0433  0.3708
 1513TIP3    H128734   1.605   4.914   9.587  1.4282 -0.3285  0.1753
 1513TIP3    H228735   1.701   5.028   9.614 -0.2148  0.9456  0.8124
 1514TIP3   OH228736   7.252   5.884   8.722 -0.3472  0.2559 -0.4396
 1514TIP3    H128737   7.212   5.883   8.635  1.6100  1.1561 -1.4203
 1514TIP3    H228738   7.287   5.796   8.733  0.2101  0.4031 -0.9846
 1515TIP3   OH228739   3.299   2.197   8.855 -0.1782  0.3208 -0.4091
 1515TIP3    H128740   3.244   2.241   8.791 -0.6140  2.0410  1.0853
 1515TIP3    H228741   3.248   2.121   8.883 -0.4897  0.2344 -1.1860
 1516TIP3   OH228742   1.649   2.914   8.926 -0.1695  0.2649  0.3731
 1516TIP3    H128743   1.667   2.997   8.972 -0.7114  0.8755 -0.4796
 1516TIP3    H228744   1.561   2.925   8.890 -0.3387 -0.7829  0.4392
 1517TIP3   OH228745   4.098   5.872   1.772  0.6663 -0.8140 -0.1643
 1517TIP3    H128746   4.164   5.935   1.800  1.5298 -0.4415 -2.7420
 1517TIP3    H228747   4.140   5.787   1.783  0.2070 -0.8447  1.5366
 1518TIP3   OH228748   4.375   6.143   7.077 -0.0152 -0.2359  0.0440
 1518TIP3    H128749   4.310   6.073   7.075  1.0677 -1.2582 -0.6696
 1518TIP3    H228750   4.355   6.192   7.157 -2.2494  0.0869 -0.6569
 1519TIP3   OH228751   2.038   1.565   1.069 -0.2661 -0.3844 -0.1479
 1519TIP3    H128752   2.118   1.528   1.032 -0.5527 -0.7349 -0.4345
 1519TIP3    H228753   2.066   1.642   1.117 -0.0874  1.4500 -2.9144
 1520TIP3   OH228754   5.145   1.355   1.419  0.0239  0.4149  0.1820
 1520TIP3    H128755   5.109   1.423   1.360  0.3160  1.2576  0.9493
 1520TIP3    H228756   5.069   1.325   1.469  0.1127  1.1668  0.7933
 1521TIP3   OH228757   4.742   6.857   7.569 -0.2044  0.0604 -0.1508
 1521TIP3    H128758   4.699   6.772   7.556 -0.1368  0.2889 -2.1886
 1521TIP3    H228759   4.705   6.890   7.650 -1.7035 -1.0529 -0.3352
 1522TIP3   OH228760   2.531   2.994   2.540 -0.4979 -0.6156  0.0366
 1522TIP3    H128761   2.531   3.029   2.451 -0.3655 -1.3778 -0.2683
 1522TIP3    H228762   2.455   3.035   2.581 -0.9646 -0.7862 -0.6372
 1523TIP3   OH228763   0.151   4.504   0.195 -0.2931  0.0342 -0.1767
 1523TIP3    H128764   0.068   4.457   0.184 -0.3738  0.4843 -1.8264
 1523TIP3    H228765   0.131   4.593   0.167  0.3020  0.6296  1.2217
 1524TIP3   OH228766   0.621   1.241   7.656  0.3057 -0.5644 -0.5078
 1524TIP3    H128767   0.617   1.188   7.576  0.9323  0.3798 -1.1826
 1524TIP3    H228768   0.653   1.326   7.627 -1.6576  0.5465  0.3937
 1525TIP3   OH228769   1.115   5.473   1.186  0.1058  0.4096  0.1842
 1525TIP3    H128770   1.200   5.482   1.229  0.9705 -1.3235 -1.0410
 1525TIP3    H228771   1.085   5.385   1.209 -2.0822  1.4560  1.7261
 1526TIP3   OH228772   5.409   3.034   8.846 -0.5736  0.2415  0.3474
 1526TIP3    H128773   5.324   3.056   8.885 -1.6417 -0.0792 -1.6305
 1526TIP3    H228774   5.392   2.951   8.800  1.2417 -0.6282  1.1577
 1527TIP3   OH228775   7.309   2.026   1.610 -0.2587  0.1890 -0.0281
 1527TIP3    H128776   7.380   2.002   1.668  0.0720 -1.3040 -1.0097
 1527TIP3    H228777   7.235   1.971   1.637 -0.1775 -0.3299 -0.8311
 1528TIP3   OH228778   7.224   4.735   1.722 -0.2793  0.1629  0.3872
 1528TIP3    H128779   7.184   4.732   1.809  0.8865  0.4777  0.9557
 1528TIP3    H228780   7.229   4.828   1.701  0.4863  0.1501  0.4922
 1529TIP3   OH228781   3.980   0.654   2.441 -0.6274 -0.0458  0.1794
 1529TIP3    H128782   3.927   0.582   2.474 -1.2401  0.8241  1.1571
 1529TIP3    H228783   4.070   0.628   2.460 -0.7374 -1.0836 -0.5915
 1530TIP3   OH228784   2.914   3.566   1.397  0.2780  0.3633  0.4905
 1530TIP3    H128785   2.865   3.543   1.476 -0.1090 -1.2368 -0.1782
 1530TIP3    H228786   2.897   3.494   1.336  1.7327  0.8451 -0.5406
 1531TIP3   OH228787   4.526   0.559   0.223 -0.8862  0.3761 -0.6994
 1531TIP3    H128788   4.532   0.655   0.223  0.7637  0.2949 -0.6434
 1531TIP3    H228789   4.600   0.530   0.170 -1.8292 -0.8645 -1.3974
 1532TIP3   OH228790   3.304   5.396   0.584  0.7413  0.3981  0.0254
 1532TIP3    H128791   3.210   5.400   0.568  0.4316 -0.4269  1.4967
 1532TIP3    H228792   3.333   5.320   0.533  0.3611 -0.1839  0.6653
 1533TIP3   OH228793   1.654   7.038   7.788  0.2726  0.0944  0.3031
 1533TIP3    H128794   1.573   7.033   7.840 -1.7156 -0.9856 -2.6431
 1533TIP3    H228795   1.685   7.128   7.800 -2.1614  0.9824  0.4830
 1534TIP3   OH228796   2.885   3.887   7.682 -0.4815 -0.4482 -0.0205
 1534TIP3    H128797   2.836   3.927   7.610 -1.7067 -0.7788  0.6032
 1534TIP3    H228798   2.857   3.935   7.760  1.3259  0.3503  0.1947
 1535TIP3   OH228799   3.684   7.128   8.338  0.0296 -0.1663 -0.0936
 1535TIP3    H128800   3.758   7.188   8.327  1.0580 -1.4650 -0.4715
 1535TIP3    H228801   3.682   7.110   8.432 -0.3594  0.5462  0.0376
 1536TIP3   OH228802   7.379   2.979   2.195  0.3181  0.5288 -0.1217
 1536TIP3    H128803   7.317   2.971   2.267 -1.5401 -0.5299 -1.7524
 1536TIP3    H228804   7.366   3.069   2.163  2.1456  1.5011  1.6262
 1537TIP3   OH228805   1.978   7.077   2.035  0.3607  0.1298  0.4644
 1537TIP3    H128806   1.940   7.099   2.120  0.0687 -0.9756  0.6384
 1537TIP3    H228807   1.927   7.127   1.972  2.0177  2.7948  1.0373
 1538TIP3   OH228808   6.933   3.834   0.684  0.0690 -0.1978  0.1970
 1538TIP3    H128809   6.939   3.859   0.592  1.6093  1.9431  0.8022
 1538TIP3    H228810   6.886   3.907   0.725  1.8023  0.2500  1.5106
 1539TIP3   OH228811   7.440   3.949   0.003 -0.7602  0.4490  0.2856
 1539TIP3    H128812   7.379   3.888  -0.039 -0.6491  0.4824  0.0788
 1539TIP3    H228813   7.501   3.893   0.051  1.3890  0.1937 -2.5517
 1540TIP3   OH228814   3.265   3.817   9.975 -0.2466  0.7066 -0.4867
 1540TIP3    H128815   3.304   3.832   9.889 -0.7992  0.6486 -0.7550
 1540TIP3    H228816   3.265   3.722   9.985  0.4665  0.7428 -0.1113
 1541TIP3   OH228817   0.419   7.454   9.861  0.1943 -0.3571  0.0008
 1541TIP3    H128818   0.398   7.444   9.768 -1.1372  0.3799  0.1969
 1541TIP3    H228819   0.386   7.541   9.884  1.9357  0.1181  0.8050
 1542TIP3   OH228820   3.875   5.388   1.257 -0.0646 -0.1374  0.5186
 1542TIP3    H128821   3.927   5.445   1.201 -1.0623  0.4060  0.1142
 1542TIP3    H228822   3.921   5.305   1.257 -0.1856 -0.2370 -1.3370
 1543TIP3   OH228823   3.358   0.793   8.653  0.5737 -0.1500 -0.0564
 1543TIP3    H128824   3.271   0.773   8.619 -0.0615 -1.2080  2.0105
 1543TIP3    H228825   3.342   0.846   8.731  1.9697  2.3077 -1.2881
 1544TIP3   OH228826   5.080   1.141   0.682 -0.3088  0.1688 -0.0428
 1544TIP3    H128827   5.032   1.062   0.661 -1.8708  0.7241  1.2137
 1544TIP3    H228828   5.165   1.130   0.640 -1.1990 -1.2620 -1.5682
 1545TIP3   OH228829   2.202   5.611   6.949 -0.3451  0.4664  0.0404
 1545TIP3    H128830   2.245   5.531   6.979  1.0364  1.1994  0.0876
 1545TIP3    H228831   2.144   5.581   6.879  2.7619 -0.2332 -2.5021
 1546TIP3   OH228832   5.859   4.989   1.435  0.3268  0.1591  0.5370
 1546TIP3    H128833   5.790   4.946   1.485 -0.0228  1.0579  0.8563
 1546TIP3    H228834   5.813   5.054   1.382  0.9287  0.9606  0.9583
 1547TIP3   OH228835   5.462   6.283   7.622 -0.6450  0.1819  0.7497
 1547TIP3    H128836   5.514   6.213   7.662 -0.7019  0.0138  0.5389
 1547TIP3    H228837   5.372   6.254   7.634 -0.6345 -0.7589 -1.0191
 1548TIP3   OH228838   3.364   7.305   7.581  0.0831  0.0951 -0.0389
 1548TIP3    H128839   3.317   7.223   7.592  0.2354 -0.1942 -1.3448
 1548TIP3    H228840   3.343   7.333   7.492  1.4061  0.5835 -0.2214
 1549TIP3   OH228841   0.842   0.851   2.172 -0.6952 -0.0370  0.3353
 1549TIP3    H128842   0.868   0.932   2.129  0.2442 -0.7506 -0.4887
 1549TIP3    H228843   0.861   0.783   2.108  0.9002 -1.1496  1.8845
 1550TIP3   OH228844   1.247   1.015   1.230 -0.0712 -0.7779  0.9247
 1550TIP3    H128845   1.190   0.938   1.224 -2.4959  0.9349  0.1149
 1550TIP3    H228846   1.225   1.053   1.315  0.4248 -0.4871  0.9226
 1551TIP3   OH228847   6.771   0.095   0.657 -0.1045  0.3788  0.3432
 1551TIP3    H128848   6.695   0.043   0.684  1.1005 -1.0323  1.2139
 1551TIP3    H228849   6.840   0.030   0.644  1.3863  1.7336  1.1600
 1552TIP3   OH228850   4.734   2.963   8.017  0.6850 -0.2765 -0.9005
 1552TIP3    H128851   4.701   3.001   8.098  1.4426  2.9957 -2.0037
 1552TIP3    H228852   4.665   2.903   7.989  0.5280 -1.7712  2.2257
 1553TIP3   OH228853   5.846   2.112   8.917  0.0027  0.5948 -0.1749
 1553TIP3    H128854   5.793   2.043   8.956 -0.1753 -0.8357 -2.7680
 1553TIP3    H228855   5.782   2.178   8.889 -0.1142  0.3744 -0.4297
 1554TIP3   OH228856   5.676   2.065   0.750 -0.2899  0.5272 -0.0448
 1554TIP3    H128857   5.712   1.985   0.789 -1.2246 -0.6398 -1.4917
 1554TIP3    H228858   5.744   2.094   0.689 -0.2127  0.4929  0.0240
 1555TIP3   OH228859   7.312   1.243   9.738  0.0778  0.3664  0.0856
 1555TIP3    H128860   7.242   1.301   9.708 -0.2696 -0.1284 -0.0629
 1555TIP3    H228861   7.267   1.166   9.772  0.5328  0.2421  0.4150
 1556TIP3   OH228862   2.741   3.339   8.077 -0.3336  0.4204 -0.6162
 1556TIP3    H128863   2.828   3.378   8.084  0.0389 -0.3464 -0.8738
 1556TIP3    H228864   2.705   3.346   8.165  1.1793 -1.9239  0.2837
 1557TIP3   OH228865   7.555   1.061   8.752  0.0755 -0.9079 -0.2829
 1557TIP3    H128866   7.472   1.077   8.797 -0.9434 -1.6995 -1.7602
 1557TIP3    H228867   7.556   1.124   8.680  1.6729  0.3369  0.7563
 1558TIP3   OH228868   4.327   3.505   0.504 -0.2521 -0.2646  0.1382
 1558TIP3    H128869   4.355   3.477   0.417  0.9888  0.2380  0.3502
 1558TIP3    H228870   4.234   3.484   0.508 -0.7226  1.1731 -1.9021
 1559TIP3   OH228871   5.671   0.501   0.596  0.0116 -0.2866 -0.6330
 1559TIP3    H128872   5.728   0.516   0.671 -1.6603 -2.1754  1.1486
 1559TIP3    H228873   5.655   0.588   0.559 -0.0283  0.8530  1.8966
 1560TIP3   OH228874   0.944   3.462   9.547  0.2382 -0.5527  0.0715
 1560TIP3    H128875   0.976   3.376   9.575  0.2882 -1.1617 -1.7277
 1560TIP3    H228876   0.849   3.456   9.552  0.2466  0.2474  2.5330
 1561TIP3   OH228877   2.456   4.311   8.535  0.2173 -0.0570  0.1762
 1561TIP3    H128878   2.528   4.375   8.537  1.3267 -1.2454 -0.3301
 1561TIP3    H228879   2.455   4.275   8.624  0.8691 -0.6896 -0.0657
 1562TIP3   OH228880   4.783   6.454   0.100  0.3186 -0.2699 -0.4141
 1562TIP3    H128881   4.810   6.465   0.191 -0.0902 -1.0287 -0.1894
 1562TIP3    H228882   4.759   6.542   0.071 -0.7154 -0.1847  0.5971
 1563TIP3   OH228883   0.481   6.559   0.187  0.6445  0.0251  0.0345
 1563TIP3    H128884   0.538   6.634   0.172 -1.9318  1.9072 -1.0577
 1563TIP3    H228885   0.392   6.592   0.171 -0.6812 -3.0793  0.2117
 1564TIP3   OH228886   7.483   2.330   1.731 -0.4070 -0.3862 -0.2780
 1564TIP3    H128887   7.450   2.243   1.753  0.1654 -0.7582 -0.8556
 1564TIP3    H228888   7.544   2.315   1.659 -1.8414  0.7107 -1.8048
 1565TIP3   OH228889   4.036   3.909   0.213 -0.3383  0.1089 -0.0762
 1565TIP3    H128890   3.995   3.931   0.297 -0.3241  0.6329 -0.2026
 1565TIP3    H228891   4.046   3.814   0.216  0.3311  0.1901  0.8366
 1566TIP3   OH228892   3.430   3.142   7.942 -0.6358  0.9977  0.3627
 1566TIP3    H128893   3.439   3.236   7.956 -0.8229  1.0943 -0.1467
 1566TIP3    H228894   3.364   3.115   8.007 -0.5921  1.2194  0.5007
 1567TIP3   OH228895   2.321   5.040   9.921 -0.2688 -0.5765 -0.1186
 1567TIP3    H128896   2.231   5.011   9.936 -0.3725 -0.0459  0.3011
 1567TIP3    H228897   2.374   4.960   9.932 -0.5469 -0.6077  1.0927
 1568TIP3   OH228898   2.980   0.703   6.815 -0.1926 -0.0855 -0.3242
 1568TIP3    H128899   2.972   0.706   6.911  0.8788  0.1671 -0.2276
 1568TIP3    H228900   2.981   0.795   6.789 -1.4643 -0.1502 -0.6964
 1569TIP3   OH228901   7.591   6.313   8.156 -0.2343  0.3072 -0.3376
 1569TIP3    H128902   7.599   6.396   8.203  0.6052 -0.4698  0.9783
 1569TIP3    H228903   7.641   6.326   8.076 -1.4544  1.5757 -0.9440
 1570TIP3   OH228904   5.491   6.551   8.306  0.3767  0.3427 -0.3165
 1570TIP3    H128905   5.562   6.614   8.290 -1.6923  3.4192  1.4957
 1570TIP3    H228906   5.501   6.527   8.398 -0.6882  0.5373 -0.1376
 1571TIP3   OH228907   1.418   2.181   1.784  0.1885 -0.1870  0.1330
 1571TIP3    H128908   1.371   2.161   1.703 -0.0808  0.2133  0.1891
 1571TIP3    H228909   1.372   2.131   1.851  0.0621 -0.0717  0.1315
 1572TIP3   OH228910   6.378   1.626   7.614  0.7131  0.2133 -0.2190
 1572TIP3    H128911   6.316   1.553   7.602  0.1528 -0.1402  3.4563
 1572TIP3    H228912   6.331   1.687   7.671  2.2412  2.0537 -0.8486
 1573TIP3   OH228913   0.470   0.517   2.226 -0.2360 -0.2936 -0.2074
 1573TIP3    H128914   0.544   0.484   2.175  1.4649  3.0462 -0.1716
 1573TIP3    H228915   0.499   0.513   2.317 -0.9066 -0.8041 -0.0106
 1574TIP3   OH228916   3.468   0.096   9.338 -0.3194  0.1318  0.4507
 1574TIP3    H128917   3.440   0.092   9.247  0.4675 -0.9738  0.2350
 1574TIP3    H228918   3.478   0.189   9.356 -0.6264  0.3677 -0.5422
 1575TIP3   OH228919   6.786   6.096   8.345  0.6630 -0.1993  0.1964
 1575TIP3    H128920   6.733   6.118   8.422  1.1084 -0.5705  0.6253
 1575TIP3    H228921   6.731   6.117   8.270  0.5132  0.9275  0.5981
 1576TIP3   OH228922   1.804   1.925   2.660 -0.4764 -0.0757  0.4026
 1576TIP3    H128923   1.802   1.837   2.697  0.5495 -0.0675  0.5095
 1576TIP3    H228924   1.874   1.970   2.708  1.1175 -0.1424 -1.6951
 1577TIP3   OH228925   3.904   3.507   7.359  0.3059  0.1418  0.9047
 1577TIP3    H128926   3.994   3.537   7.375  0.1022  0.1974  2.0151
 1577TIP3    H228927   3.853   3.547   7.429 -0.3252 -1.1047  1.1784
 1578TIP3   OH228928   1.351   6.912   8.144  0.0819 -0.2323  0.0185
 1578TIP3    H128929   1.396   6.850   8.086 -0.2162 -1.1089  0.7074
 1578TIP3    H228930   1.258   6.899   8.126  0.0360  0.7918 -0.5991
 1579TIP3   OH228931   6.751   0.610   9.098 -0.5698 -0.6962 -0.0653
 1579TIP3    H128932   6.746   0.705   9.101 -1.2949 -0.7391  2.5889
 1579TIP3    H228933   6.752   0.589   9.004  0.1773  1.9026 -0.7321
 1580TIP3   OH228934   0.775   0.848   8.383 -0.3873  0.0417 -0.1165
 1580TIP3    H128935   0.726   0.783   8.333 -0.4234 -0.7637  0.9364
 1580TIP3    H228936   0.743   0.839   8.473  0.5347  0.6208  0.2858
 1581TIP3   OH228937   7.023   6.033   8.204 -0.7003  0.6749 -0.2516
 1581TIP3    H128938   6.940   6.029   8.251 -1.1794  1.1918 -1.0192
 1581TIP3    H228939   6.998   6.044   8.112  0.2035 -0.9738 -0.7342
 1582TIP3   OH228940   6.561   5.796   2.251  0.0169 -0.0116 -0.1800
 1582TIP3    H128941   6.652   5.783   2.278 -0.5720  1.7362  3.2587
 1582TIP3    H228942   6.562   5.782   2.157  3.8015 -0.2101 -0.2861
 1583TIP3   OH228943   5.165   3.020   1.280 -0.5248 -0.1621  0.1476
 1583TIP3    H128944   5.195   3.098   1.328 -1.8807 -0.0066  0.7772
 1583TIP3    H228945   5.186   2.947   1.338  0.6257 -0.2822 -0.3856
 1584TIP3   OH228946   0.535   5.504   1.828  0.5602  0.3049 -0.3990
 1584TIP3    H128947   0.567   5.563   1.760  1.1965 -0.1267 -0.4858
 1584TIP3    H228948   0.478   5.558   1.882  1.3908  1.0918 -0.2846
 1585TIP3   OH228949   2.885   0.797   9.506 -0.4213  0.0437 -0.6035
 1585TIP3    H128950   2.899   0.874   9.451 -0.8104  1.1449  0.7971
 1585TIP3    H228951   2.862   0.832   9.592  2.1041 -1.5827  0.8518
 1586TIP3   OH228952   3.069   6.424   8.288  0.6280  0.2847 -0.6156
 1586TIP3    H128953   3.015   6.486   8.336 -0.9597 -0.8964 -0.8185
 1586TIP3    H228954   3.050   6.440   8.196  1.4158  0.5354 -0.7466
 1587TIP3   OH228955   6.365   0.653   2.608 -0.0626 -0.4526  0.4203
 1587TIP3    H128956   6.442   0.651   2.665 -0.2567  0.8461  0.7562
 1587TIP3    H228957   6.398   0.633   2.521  0.6802  0.1669  0.5508
 1588TIP3   OH228958   6.391   0.839   9.649 -0.0681  0.1337  0.2927
 1588TIP3    H128959   6.453   0.911   9.664 -1.5784  1.7580 -0.9082
 1588TIP3    H228960   6.446   0.763   9.632  1.5842  1.2261  0.5428
 1589TIP3   OH228961   2.819   0.968   9.698 -0.1614 -0.2633  0.3450
 1589TIP3    H128962   2.754   1.000   9.760  0.1736 -1.3413  1.2814
 1589TIP3    H228963   2.903   0.980   9.742  0.3649  1.4799 -1.0045
 1590TIP3   OH228964   0.628   6.176   9.883 -0.2552 -0.2267 -0.6487
 1590TIP3    H128965   0.545   6.181   9.932  0.7720  1.2470  1.0496
 1590TIP3    H228966   0.677   6.253   9.911  1.6264 -0.9518 -1.7789
 1591TIP3   OH228967   1.282   0.602   0.130  0.0602  0.1259  0.1361
 1591TIP3    H128968   1.307   0.610   0.222 -0.1176  0.5803  0.1465
 1591TIP3    H228969   1.300   0.510   0.108 -0.4428 -0.1365  0.7869
 1592TIP3   OH228970   1.041   0.613   0.442  0.0851  0.1905  0.6083
 1592TIP3    H128971   1.123   0.618   0.491 -0.6198  0.9768  1.7331
 1592TIP3    H228972   1.045   0.528   0.398  1.5141  0.2330  0.6042
 1593TIP3   OH228973   2.388   0.604   7.358  0.1455  0.3705  0.5376
 1593TIP3    H128974   2.415   0.591   7.267 -0.4690 -2.2150  0.6510
 1593TIP3    H228975   2.471   0.609   7.407  0.5175  2.9178 -0.1985
 1594TIP3   OH228976   6.773   3.217   0.014 -0.4623 -0.5195  0.1251
 1594TIP3    H128977   6.732   3.149   0.067  0.3911 -2.4166 -1.5382
 1594TIP3    H228978   6.811   3.171  -0.060 -0.4602  1.8649 -1.4818
 1595TIP3   OH228979   5.552   4.523   1.777 -0.5577 -1.0865  0.7663
 1595TIP3    H128980   5.561   4.577   1.855 -1.3644  2.6363 -1.4358
 1595TIP3    H228981   5.638   4.483   1.764  0.4240  0.5163  2.0048
 1596TIP3   OH228982   2.743   1.138   7.806  0.3213  0.2507  0.4942
 1596TIP3    H128983   2.659   1.159   7.847  1.3419 -0.9552  3.5532
 1596TIP3    H228984   2.740   1.043   7.793  1.1703  0.2019  0.5960
 1597TIP3   OH228985   5.656   6.839   0.190 -0.1146  0.2167  0.5108
 1597TIP3    H128986   5.606   6.910   0.231 -2.2663 -0.8313 -0.1423
 1597TIP3    H228987   5.643   6.764   0.248  1.6045  0.1278  0.8505
 1598TIP3   OH228988   1.380   2.846   0.321  0.5410  0.0679 -0.0387
 1598TIP3    H128989   1.312   2.867   0.385 -0.5380 -0.9495 -0.8095
 1598TIP3    H228990   1.332   2.827   0.240  1.7678 -0.3001 -0.7065
 1599TIP3   OH228991   4.287   6.303   7.627 -0.2967 -0.4752 -0.1379
 1599TIP3    H128992   4.303   6.210   7.643  1.6615 -0.3404 -1.0032
 1599TIP3    H228993   4.221   6.305   7.557 -0.0315 -1.2285 -0.4146
 1600TIP3   OH228994   2.828   5.012   8.508  0.1138 -0.2824  0.0960
 1600TIP3    H128995   2.836   4.948   8.438  1.7715 -0.9471  0.8480
 1600TIP3    H228996   2.897   5.076   8.491  0.3126 -0.2604  0.9025
 1601TIP3   OH228997   4.288   4.207   1.774  0.1134  0.5248  0.1376
 1601TIP3    H128998   4.228   4.159   1.718 -0.2458  0.1845  0.8070
 1601TIP3    H228999   4.368   4.154   1.775  0.0595  0.4428  0.0911
 1602TIP3   OH229000   6.114   0.972   1.035  0.3798  0.0473  0.2461
 1602TIP3    H129001   6.053   1.013   0.973 -1.2670 -1.9063  0.4719
 1602TIP3    H229002   6.106   1.025   1.114 -1.5311 -0.5162  0.4739
 1603TIP3   OH229003   4.195   4.650   1.940  0.0553 -0.0921 -0.3438
 1603TIP3    H129004   4.207   4.659   2.034  0.2558  1.9389 -0.5289
 1603TIP3    H229005   4.244   4.722   1.902 -0.9124 -0.2260 -1.9439
 1604TIP3   OH229006   3.052   1.589   9.346 -0.3056  0.0441  0.2860
 1604TIP3    H129007   3.114   1.588   9.273 -1.6730  0.2527 -0.9071
 1604TIP3    H229008   3.057   1.678   9.380 -0.7683  0.3960 -0.5425
 1605TIP3   OH229009   7.501   5.094   8.823 -0.6684  0.1149 -0.0602
 1605TIP3    H129010   7.565   5.141   8.876 -0.1422  1.0223 -1.4327
 1605TIP3    H229011   7.422   5.089   8.877 -0.0177  0.6125  0.9467
 1606TIP3   OH229012   0.876   0.854   0.999  0.0370 -0.2104 -0.3678
 1606TIP3    H129013   0.861   0.880   1.090  0.0215 -0.0656 -0.4107
 1606TIP3    H229014   0.901   0.762   1.004 -5.1243 -1.9521 -0.5955
 1607TIP3   OH229015   7.570   3.706   1.860 -0.1411 -0.2092  0.3113
 1607TIP3    H129016   7.502   3.712   1.927  1.5380  1.7032  1.9597
 1607TIP3    H229017   7.643   3.661   1.902 -0.1117 -1.7013 -1.2426
 1608TIP3   OH229018   1.926   5.202   2.224  0.1982 -0.0408  0.0890
 1608TIP3    H129019   1.922   5.196   2.320 -0.2266 -0.1087  0.0677
 1608TIP3    H229020   1.910   5.113   2.194 -2.1975  0.4004 -0.1126
 1609TIP3   OH229021   1.288   2.250   6.989  0.3113 -0.1178  0.0160
 1609TIP3    H129022   1.322   2.313   7.052 -0.5280  0.1633  0.2031
 1609TIP3    H229023   1.224   2.199   7.038  0.8444 -1.0035 -0.1849
 1610TIP3   OH229024   2.383   0.327   8.013 -0.0202  0.6839 -0.0729
 1610TIP3    H129025   2.376   0.232   8.025  0.6853  0.6674  0.2724
 1610TIP3    H229026   2.321   0.347   7.943 -1.3344  0.1963  0.9074
 1611TIP3   OH229027   5.316   2.873   0.407  0.5170 -0.2648 -0.2367
 1611TIP3    H129028   5.314   2.805   0.339  1.1319 -0.3180 -0.2087
 1611TIP3    H229029   5.280   2.830   0.485 -2.2385  0.3950 -1.0156
 1612TIP3   OH229030   2.193   4.323   9.725 -0.2573 -0.1077 -0.5969
 1612TIP3    H129031   2.247   4.385   9.774 -1.1971  0.2218  0.0456
 1612TIP3    H229032   2.182   4.364   9.639 -0.8618  0.6160 -0.1808
 1613TIP3   OH229033   7.405   3.251   0.637  0.4605  0.2107 -0.4243
 1613TIP3    H129034   7.445   3.233   0.722 -1.3592  1.2524  0.7198
 1613TIP3    H229035   7.389   3.345   0.636  0.1440  0.1727 -1.7870
 1614TIP3   OH229036   6.792   7.177   1.011  0.0298 -0.1580  0.4238
 1614TIP3    H129037   6.785   7.256   0.957 -0.1838 -0.7831 -0.4840
 1614TIP3    H229038   6.754   7.202   1.095  0.2936  0.8130  0.2688
 1615TIP3   OH229039   1.392   6.795   9.135  0.6574  0.5059  0.3006
 1615TIP3    H129040   1.304   6.830   9.120 -0.0978 -0.8370  1.3459
 1615TIP3    H229041   1.434   6.859   9.194  1.3352  2.4233 -2.0708
 1616TIP3   OH229042   1.222   5.191   8.076 -0.4282  0.5517  0.0093
 1616TIP3    H129043   1.290   5.139   8.118  0.8387  0.1792 -2.3600
 1616TIP3    H229044   1.232   5.278   8.115 -1.5095 -0.4634  2.8149
 1617TIP3   OH229045   6.789   4.812   8.049 -0.4953  0.7454  0.0020
 1617TIP3    H129046   6.733   4.875   8.004 -1.9148  0.1576  0.8681
 1617TIP3    H229047   6.833   4.862   8.117 -0.3267  1.1228 -0.3803
 1618TIP3   OH229048   4.700   6.880   1.777  0.1080  0.2991  0.3256
 1618TIP3    H129049   4.770   6.925   1.729  0.6477  0.0328  0.8449
 1618TIP3    H229050   4.742   6.852   1.858 -1.0159  1.4998  1.3525
 1619TIP3   OH229051   1.926   3.888   1.632 -0.5428 -0.3237  0.1496
 1619TIP3    H129052   1.943   3.858   1.543 -1.2153 -0.5859  0.1106
 1619TIP3    H229053   1.998   3.851   1.684  0.7010  1.0590 -0.5224
 1620TIP3   OH229054   1.041   6.916   1.793 -0.1069  0.0846  0.0632
 1620TIP3    H129055   0.962   6.864   1.777 -0.0191  0.3208 -1.2915
 1620TIP3    H229056   1.037   6.938   1.886 -2.0675  0.7759 -0.1315
 1621TIP3   OH229057   5.502   0.393   7.924 -0.6634 -0.6316  0.0180
 1621TIP3    H129058   5.458   0.463   7.875  0.0007 -0.0325  0.2765
 1621TIP3    H229059   5.590   0.427   7.941 -0.8311 -0.8838  1.4959
 1622TIP3   OH229060   0.579   7.267   8.184  0.4798  0.5223  0.2691
 1622TIP3    H129061   0.668   7.242   8.158  0.3819 -0.9364  1.2528
 1622TIP3    H229062   0.592   7.338   8.247  0.9495  0.4976  0.2052
 1623TIP3   OH229063   5.694   4.320   8.263  0.3541 -0.0699 -0.5046
 1623TIP3    H129064   5.736   4.259   8.203 -0.5882 -0.9864 -0.2721
 1623TIP3    H229065   5.684   4.400   8.213  0.2311 -0.5946 -1.3418
 1624TIP3   OH229066   3.317   4.105   2.992  0.6166 -0.0559  0.2080
 1624TIP3    H129067   3.348   4.089   2.903 -2.2358 -2.3701 -0.5133
 1624TIP3    H229068   3.386   4.158   3.032  2.1976  0.7623 -3.2121
 1625TIP3   OH229069   3.683   5.316   9.166  0.4977  0.1490  0.6660
 1625TIP3    H129070   3.723   5.287   9.084 -2.1249 -0.0681 -0.6501
 1625TIP3    H229071   3.722   5.261   9.233  1.7240 -0.6019 -0.6165
 1626TIP3   OH229072   4.883   6.839   0.194 -0.3502  0.6902  0.2595
 1626TIP3    H129073   4.971   6.803   0.183 -0.9081 -1.9864  3.0632
 1626TIP3    H229074   4.897   6.930   0.219  1.6821  0.2169  1.0436
 1627TIP3   OH229075   3.921   2.883   7.963  0.8583 -0.3954 -0.3910
 1627TIP3    H129076   3.869   2.936   7.903  0.1963 -0.4913  0.0865
 1627TIP3    H229077   3.992   2.941   7.991  0.0527  0.3072  0.2487
 1628TIP3   OH229078   3.454   6.237   1.978 -0.0666  0.3971  0.1275
 1628TIP3    H129079   3.482   6.210   2.065 -0.9630  2.6610  1.2003
 1628TIP3    H229080   3.532   6.229   1.924  0.6166 -0.6752  1.2259
 1629TIP3   OH229081   0.366   7.283   8.595  0.5786  0.2737  0.1257
 1629TIP3    H129082   0.350   7.190   8.607  1.2679  0.1715  0.2932
 1629TIP3    H229083   0.422   7.308   8.669  1.6907  0.4648 -0.7448
 1630TIP3   OH229084   0.719   3.794   2.187 -0.2586 -0.8427  0.2036
 1630TIP3    H129085   0.696   3.863   2.250  0.7064  0.0323 -0.3797
 1630TIP3    H229086   0.644   3.735   2.188 -1.8458  1.0723 -0.4727
 1631TIP3   OH229087   0.248   7.402   0.517  0.8115 -0.0710 -0.1697
 1631TIP3    H129088   0.175   7.451   0.554  1.0484 -1.4267  2.3127
 1631TIP3    H229089   0.324   7.459   0.528  0.5799  0.2437 -0.2135
 1632TIP3   OH229090   6.772   1.940   1.597  0.0374 -0.3319  0.3075
 1632TIP3    H129091   6.721   1.937   1.516 -1.2508 -1.3497  1.1191
 1632TIP3    H229092   6.814   1.854   1.603 -0.3408 -0.4788  0.9952
 1633TIP3   OH229093   2.817   1.609   1.676  0.2249 -0.3880  0.2662
 1633TIP3    H129094   2.746   1.661   1.637  0.4400 -0.6940 -0.5495
 1633TIP3    H229095   2.889   1.615   1.613  0.0945 -2.0617 -0.1042
 1634TIP3   OH229096   3.119   4.761   0.018 -0.2605  0.2864  0.5519
 1634TIP3    H129097   3.120   4.749  -0.077 -0.8336 -0.9299  0.6776
 1634TIP3    H229098   3.086   4.849   0.032 -2.1463 -0.2245 -0.3527
 1635TIP3   OH229099   3.264   5.735   7.185  0.2760 -0.6053 -1.0259
 1635TIP3    H129100   3.175   5.704   7.171 -0.5268  1.0332  0.1836
 1635TIP3    H229101   3.277   5.803   7.118  1.4660 -2.3106 -2.6416
 1636TIP3   OH229102   2.562   0.674   0.236  0.2766  0.7717  0.3098
 1636TIP3    H129103   2.490   0.653   0.294  1.1685 -0.0699  1.1431
 1636TIP3    H229104   2.551   0.615   0.161 -0.6019  1.5268 -0.1701
 1637TIP3   OH229105   4.670   4.870   6.986 -0.1823 -0.4903  0.3712
 1637TIP3    H129106   4.642   4.894   6.897  0.0961 -1.4537  0.0104
 1637TIP3    H229107   4.698   4.952   7.025 -1.4817  0.1588 -0.0025
 1638TIP3   OH229108   1.603   6.635   2.433  0.1064 -0.0402  0.4512
 1638TIP3    H129109   1.695   6.614   2.452  0.4660 -0.0153 -1.1422
 1638TIP3    H229110   1.561   6.550   2.423  0.2904 -0.0499 -0.2792
 1639TIP3   OH229111   3.927   7.282   8.312 -0.1329 -0.5900 -0.6887
 1639TIP3    H129112   3.883   7.367   8.317 -1.3808 -1.3099  1.1761
 1639TIP3    H229113   4.020   7.305   8.306 -0.5112  0.9035 -1.4899
 1640TIP3   OH229114   4.762   6.910   9.953 -0.0756  0.0869  0.0513
 1640TIP3    H129115   4.684   6.858   9.973  0.7194 -0.7922  0.9120
 1640TIP3    H229116   4.818   6.901  10.030  0.1972  2.0319  0.1398
 1641TIP3   OH229117   3.020   7.122   0.350  0.1662 -0.4339  0.3052
 1641TIP3    H129118   2.925   7.138   0.349 -0.0804 -1.6720  1.2055
 1641TIP3    H229119   3.049   7.147   0.262 -1.1463 -0.8714 -0.2866
 1642TIP3   OH229120   2.839   4.889   1.986 -0.4416 -0.1580  0.4341
 1642TIP3    H129121   2.835   4.869   1.893  1.5915  2.3850 -0.2998
 1642TIP3    H229122   2.807   4.979   1.993  2.8632  1.0992  1.5359
 1643TIP3   OH229123   5.374   0.786   8.612 -0.8358 -0.0560  0.0308
 1643TIP3    H129124   5.393   0.701   8.653  0.7375  0.6188  0.8033
 1643TIP3    H229125   5.455   0.809   8.567 -0.6437  1.7559  1.1862
 1644TIP3   OH229126   3.068   4.732   1.691 -0.4398 -0.4914 -0.2200
 1644TIP3    H129127   3.051   4.810   1.744  0.1799 -0.1300 -0.5408
 1644TIP3    H229128   3.132   4.682   1.741 -1.1933 -1.0432  0.2134
 1645TIP3   OH229129   1.968   4.450   2.468 -0.1754 -0.3414 -0.2006
 1645TIP3    H129130   1.988   4.424   2.558 -1.8836  1.5950  0.8263
 1645TIP3    H229131   1.875   4.432   2.458 -0.6955  2.1059 -0.5175
 1646TIP3   OH229132   7.473   3.141   8.646 -0.0113 -0.6409 -0.8119
 1646TIP3    H129133   7.533   3.130   8.719 -1.0444 -1.3112 -0.0283
 1646TIP3    H229134   7.460   3.235   8.639  0.1509 -0.5694 -0.1710
 1647TIP3   OH229135   1.100   4.215   3.079  0.0903  0.0575 -0.5543
 1647TIP3    H129136   1.059   4.238   2.995 -0.6808 -0.8295 -0.4306
 1647TIP3    H229137   1.030   4.222   3.143  0.1862 -1.2033 -0.2903
 1648TIP3   OH229138   4.629   0.763   8.060  0.2113  0.6794 -0.2939
 1648TIP3    H129139   4.546   0.721   8.081  0.1470  0.7915 -0.3243
 1648TIP3    H229140   4.685   0.692   8.028  0.5293  0.3820  0.8774
 1649TIP3   OH229141   3.500   0.942   9.217 -0.5807  0.0720 -0.0354
 1649TIP3    H129142   3.562   0.996   9.266 -0.0188 -0.9893  0.4554
 1649TIP3    H229143   3.538   0.936   9.129 -0.5062  0.2437 -0.0150
 1650TIP3   OH229144   6.981   3.380   9.410 -0.2307  0.0245 -0.2214
 1650TIP3    H129145   6.901   3.353   9.455 -0.1818  0.9343  0.4323
 1650TIP3    H229146   7.017   3.450   9.464  1.4598 -0.9180 -0.0554
 1651TIP3   OH229147   5.256   0.758   0.548  0.0192 -0.3129  0.3720
 1651TIP3    H129148   5.313   0.763   0.624  1.4377 -3.7699 -0.2734
 1651TIP3    H229149   5.313   0.774   0.473 -0.1757 -2.0399 -0.1857
 1652TIP3   OH229150   0.848   5.797   9.886 -0.2666  0.2382 -0.1863
 1652TIP3    H129151   0.932   5.756   9.865 -1.0053 -0.1466 -2.6256
 1652TIP3    H229152   0.870   5.888   9.905  0.8005 -0.0871  0.2434
 1653TIP3   OH229153   3.497   6.847   9.104 -0.0434 -0.4725 -0.4498
 1653TIP3    H129154   3.579   6.813   9.139  0.6269  1.1691 -0.3103
 1653TIP3    H229155   3.507   6.841   9.009  0.0639 -0.6762 -0.4247
 1654TIP3   OH229156   0.029   6.900   1.551 -0.3044  0.4342  0.1372
 1654TIP3    H129157   0.108   6.874   1.598  0.4637  0.8324 -0.8981
 1654TIP3    H229158   0.060   6.935   1.468 -1.5540  0.8958 -0.1711
 1655TIP3   OH229159   0.563   7.049   2.359 -0.2628 -0.3803  0.0240
 1655TIP3    H129160   0.610   7.032   2.277  0.4931  0.0477  0.3581
 1655TIP3    H229161   0.570   6.967   2.407  0.7529 -0.1145  0.3582
 1656TIP3   OH229162   0.541   4.976   7.897  0.1244 -0.1910  0.2813
 1656TIP3    H129163   0.564   5.023   7.816  0.5190 -0.4261  0.2520
 1656TIP3    H229164   0.579   5.030   7.966  0.8317 -0.6028  0.2298
 1657TIP3   OH229165   2.948   6.387   7.423 -0.2860 -0.3591  0.0560
 1657TIP3    H129166   2.873   6.352   7.469 -1.1281 -0.6169 -1.4447
 1657TIP3    H229167   3.006   6.312   7.410 -0.8075 -0.6416 -0.7158
 1658TIP3   OH229168   1.344   6.938   8.483  0.4346  0.3296 -0.4824
 1658TIP3    H129169   1.434   6.970   8.476 -0.1429  2.1211 -0.1543
 1658TIP3    H229170   1.320   6.913   8.394  1.7897 -1.8656 -0.3325
 1659TIP3   OH229171   1.002   5.480   8.618  0.3703  0.4052 -0.2011
 1659TIP3    H129172   0.982   5.475   8.524 -1.5224  2.2580  0.0374
 1659TIP3    H229173   0.920   5.507   8.659  1.4705  0.8530  1.8467
 1660TIP3   OH229174   5.655   2.269   1.170 -0.3250 -0.0903 -0.4621
 1660TIP3    H129175   5.572   2.223   1.183 -0.8160  1.0563  0.6606
 1660TIP3    H229176   5.655   2.293   1.077 -1.4876  0.3343 -0.3624
 1661TIP3   OH229177   6.301   4.701   0.216 -0.3057  0.2287  0.0425
 1661TIP3    H129178   6.310   4.606   0.203  1.0320  0.3956 -0.4109
 1661TIP3    H229179   6.249   4.709   0.297  1.0310 -0.9161  1.0673
 1662TIP3   OH229180   5.433   7.446   8.919  0.2017 -0.2090  0.0351
 1662TIP3    H129181   5.389   7.521   8.880  0.4064 -0.6754 -1.1346
 1662TIP3    H229182   5.435   7.465   9.013 -2.2105 -0.0135  0.1092
 1663TIP3   OH229183   5.244   0.315   8.346  0.2399  0.2041 -0.7156
 1663TIP3    H129184   5.222   0.233   8.392 -1.4860 -0.3876 -2.4257
 1663TIP3    H229185   5.316   0.352   8.396  1.3200 -2.5221 -0.0342
 1664TIP3   OH229186   6.456   4.798   1.700  0.2699 -0.0693 -0.0246
 1664TIP3    H129187   6.419   4.846   1.626  1.0363  0.6102  0.0090
 1664TIP3    H229188   6.386   4.795   1.764 -0.4731 -0.8569 -0.8593
 1665TIP3   OH229189   4.690   5.265   8.940  0.8148 -0.1103  0.0117
 1665TIP3    H129190   4.697   5.194   9.004  2.3101 -1.4400 -1.4984
 1665TIP3    H229191   4.608   5.246   8.893 -0.4309  1.0250  1.5974
 1666TIP3   OH229192   1.883   5.477   7.293  0.9822  0.7269  0.3212
 1666TIP3    H129193   1.807   5.532   7.277  0.8475  0.2634 -0.7594
 1666TIP3    H229194   1.928   5.474   7.209  0.9066 -0.8928  0.2960
 1667TIP3   OH229195   4.700   5.857   1.949 -0.0706 -0.4962  0.2533
 1667TIP3    H129196   4.671   5.936   1.995 -0.9521 -0.1091 -0.9228
 1667TIP3    H229197   4.644   5.788   1.985  1.6622 -0.9145  2.3296
 1668TIP3   OH229198   4.620   0.134   9.303 -0.1180 -0.2526 -0.5394
 1668TIP3    H129199   4.614   0.187   9.382  1.2310 -1.3673  0.3553
 1668TIP3    H229200   4.653   0.195   9.236  0.7719  0.2236  0.2947
 1669TIP3   OH229201   6.169   1.751   8.350 -0.4482 -0.1578  0.1975
 1669TIP3    H129202   6.206   1.837   8.366  0.2489 -0.3303 -0.4597
 1669TIP3    H229203   6.172   1.740   8.255 -0.1194 -1.0802  0.3037
 1670TIP3   OH229204   0.726   3.706   0.891 -0.2602  0.1990 -0.1306
 1670TIP3    H129205   0.774   3.728   0.811 -0.9334  0.2785 -0.5206
 1670TIP3    H229206   0.648   3.659   0.860 -0.3501 -0.0757  0.5034
 1671TIP3   OH229207   0.376   3.112   8.411 -0.0773  0.4525 -0.0131
 1671TIP3    H129208   0.374   3.033   8.465 -0.5959  0.7534  0.4102
 1671TIP3    H229209   0.462   3.151   8.430 -0.0786  0.3259  0.2629
 1672TIP3   OH229210   5.145   6.308   2.000  0.2575 -0.1851  0.1208
 1672TIP3    H129211   5.125   6.398   2.026  3.1398  0.7799 -0.6340
 1672TIP3    H229212   5.115   6.302   1.910  0.5402  0.2124 -0.0031
 1673TIP3   OH229213   3.002   1.361   2.303  0.1103  0.2451  0.5381
 1673TIP3    H129214   3.060   1.305   2.251  0.8769 -0.4738  2.1079
 1673TIP3    H229215   3.052   1.380   2.382 -0.9856  1.4086  0.9785
 1674TIP3   OH229216   6.493   7.537   2.270 -0.1433  0.9009 -0.0172
 1674TIP3    H129217   6.512   7.448   2.297 -2.7354  0.2329 -0.1342
 1674TIP3    H229218   6.491   7.534   2.174  1.2817  1.4799 -0.0924
 1675TIP3   OH229219   5.245   6.940   1.387 -0.0518  0.3869 -0.4984
 1675TIP3    H129220   5.235   6.918   1.480  1.8595 -1.1502 -0.5900
 1675TIP3    H229221   5.191   6.876   1.341  1.5518 -0.9799 -0.5465
 1676TIP3   OH229222   5.046   1.852   1.559 -0.2994  0.0954 -0.4954
 1676TIP3    H129223   5.015   1.815   1.642  0.4829  0.8894  0.1745
 1676TIP3    H229224   4.969   1.852   1.502 -0.4849 -1.9771 -0.3394
 1677TIP3   OH229225   4.246   5.564   9.365 -0.1483  0.1810 -0.1732
 1677TIP3    H129226   4.289   5.515   9.434  0.2309  0.5207 -0.1645
 1677TIP3    H229227   4.263   5.656   9.386  2.1860  0.2776 -2.0700
 1678TIP3   OH229228   1.915   5.766   7.750 -0.2072 -0.1098 -0.0580
 1678TIP3    H129229   1.874   5.696   7.801 -0.3183 -0.2653 -0.3553
 1678TIP3    H229230   2.007   5.740   7.742 -0.3679 -0.5262 -0.6664
 1679TIP3   OH229231   3.424   7.440   1.456  0.8734 -0.1136 -0.1886
 1679TIP3    H129232   3.389   7.358   1.422  0.5661  0.0658 -0.3082
 1679TIP3    H229233   3.509   7.450   1.412  0.2056  0.4318 -1.4044
 1680TIP3   OH229234   7.251   7.104   2.074 -0.2101 -0.5094  0.3333
 1680TIP3    H129235   7.192   7.053   2.129 -3.3819  1.8176 -0.6252
 1680TIP3    H229236   7.243   7.194   2.107 -0.2250  0.5204 -2.2691
 1681TIP3   OH229237   4.418   3.215   1.873  0.1889 -0.2429  0.4505
 1681TIP3    H129238   4.500   3.177   1.904 -0.0623 -0.7279  0.5260
 1681TIP3    H229239   4.443   3.263   1.794  0.3911 -1.2220 -0.1035
 1682TIP3   OH229240   2.781   0.918   1.193  0.1581 -0.1204 -0.0494
 1682TIP3    H129241   2.714   0.985   1.208  2.4540  2.4348 -0.3936
 1682TIP3    H229242   2.850   0.963   1.145  1.9879 -2.7194 -0.0880
 1683TIP3   OH229243   4.070   5.375   7.047  0.2612 -0.6520 -0.7611
 1683TIP3    H129244   4.042   5.353   6.958  1.5994  1.2142 -1.7119
 1683TIP3    H229245   4.128   5.304   7.072 -0.0811 -1.1705 -1.4014
 1684TIP3   OH229246   4.638   7.063   9.703  0.1845 -0.0017 -0.1820
 1684TIP3    H129247   4.712   7.116   9.674  0.3656 -0.3760 -0.4054
 1684TIP3    H229248   4.669   7.020   9.783  0.8854 -1.6293 -1.2773
 1685TIP3   OH229249   4.200   2.585   8.528  0.0656  0.5463  0.0378
 1685TIP3    H129250   4.128   2.523   8.515  0.4082 -0.2912  1.8335
 1685TIP3    H229251   4.227   2.608   8.440  0.7745 -2.8970 -0.8065
 1686TIP3   OH229252   1.059   3.572   0.349 -0.1582 -0.1847 -0.2738
 1686TIP3    H129253   1.110   3.499   0.384  1.5610  0.8445 -0.5220
 1686TIP3    H229254   1.084   3.647   0.403 -1.2496  0.4228 -0.5735
 1687TIP3   OH229255   6.978   4.911   8.571 -1.4180 -0.4138  0.3592
 1687TIP3    H129256   7.058   4.869   8.601 -0.4155  1.2074  0.0805
 1687TIP3    H229257   6.977   4.997   8.615 -0.5255  1.5482 -3.0579
 1688TIP3   OH229258   0.336   7.527   1.887  0.1618  0.4723  0.0227
 1688TIP3    H129259   0.329   7.602   1.946 -0.4631  1.2753 -1.0484
 1688TIP3    H229260   0.339   7.451   1.945 -2.3443  1.0856  1.0874
 1689TIP3   OH229261   1.944   6.477   0.505 -0.2339  0.2069 -0.0154
 1689TIP3    H129262   1.854   6.449   0.523  0.2512 -0.2247  2.1342
 1689TIP3    H229263   1.993   6.449   0.583  1.5019  1.5956 -0.5421
 1690TIP3   OH229264   3.093   3.980   2.798  0.0822 -0.2190 -0.3419
 1690TIP3    H129265   3.168   4.015   2.749 -0.0255 -1.3171 -1.3569
 1690TIP3    H229266   3.068   4.050   2.858  1.3320  0.5177 -0.6430
 1691TIP3   OH229267   6.687   7.442   8.547 -0.3290 -0.2221  0.1063
 1691TIP3    H129268   6.731   7.385   8.484  0.5630 -0.7906  1.2150
 1691TIP3    H229269   6.618   7.485   8.496 -0.4842 -1.6555 -0.9480
 1692TIP3   OH229270   1.224   3.086   6.870 -0.5943  0.2325 -0.0859
 1692TIP3    H129271   1.182   3.169   6.889  0.4127  0.3487  1.9323
 1692TIP3    H229272   1.291   3.107   6.805 -1.2578  0.7106 -0.6264
 1693TIP3   OH229273   3.939   0.879   8.753 -0.0275 -0.3664  0.2252
 1693TIP3    H129274   3.850   0.843   8.751  0.2524 -1.0714  0.0898
 1693TIP3    H229275   3.963   0.878   8.845  0.2565 -1.2566  0.1547
 1694TIP3   OH229276   1.918   6.566   0.192  0.8400  0.6379  0.1837
 1694TIP3    H129277   1.887   6.636   0.249  0.7289  0.6284  0.1344
 1694TIP3    H229278   1.880   6.486   0.228  1.6519  0.4910  0.7462
 1695TIP3   OH229279   1.192   2.389   1.040 -0.2079 -0.1940 -0.5428
 1695TIP3    H129280   1.260   2.414   1.102  1.3468 -0.6513 -1.9795
 1695TIP3    H229281   1.163   2.472   1.001  0.7612 -0.1254 -1.1379
 1696TIP3   OH229282   3.942   1.528   8.776  0.2747  0.1523 -0.4309
 1696TIP3    H129283   3.995   1.530   8.697 -0.4313 -0.8144 -0.9596
 1696TIP3    H229284   3.863   1.479   8.751  0.5876 -1.3055  1.1949
 1697TIP3   OH229285   2.686   6.287   7.456 -0.2289 -0.1108 -0.5941
 1697TIP3    H129286   2.731   6.216   7.502  0.6925  0.2152 -0.9841
 1697TIP3    H229287   2.614   6.243   7.409 -0.9734 -0.5036  0.8300
 1698TIP3   OH229288   2.621   2.093   0.595  0.6708  0.4395 -0.5958
 1698TIP3    H129289   2.610   2.129   0.507 -2.4226  0.1303 -0.4545
 1698TIP3    H229290   2.560   2.143   0.649  0.6186 -1.0770  0.8240
 1699TIP3   OH229291   3.575   0.476   0.829 -0.4000 -0.0829  0.6196
 1699TIP3    H129292   3.519   0.474   0.752  2.2891 -2.7216 -1.4779
 1699TIP3    H229293   3.626   0.556   0.819  1.2513 -1.3079 -1.5063
 1700TIP3   OH229294   2.469   7.202   1.729 -0.0579  0.2268 -0.5579
 1700TIP3    H129295   2.420   7.139   1.781  1.2846 -0.5116 -0.1417
 1700TIP3    H229296   2.458   7.171   1.639  0.0382 -0.2045 -0.4228
 1701TIP3   OH229297   4.121   6.577   2.692  0.3345 -0.2629 -1.0188
 1701TIP3    H129298   4.126   6.672   2.702  1.4672 -0.4412  0.3660
 1701TIP3    H229299   4.201   6.554   2.645 -0.4311 -0.4503 -2.2797
 1702TIP3   OH229300   2.865   1.387  10.000 -0.3724 -0.0684  0.3139
 1702TIP3    H129301   2.838   1.478   9.990  0.9391  0.2753 -0.3573
 1702TIP3    H229302   2.844   1.365  10.090 -1.2304  0.7179  0.3199
 1703TIP3   OH229303   1.165   1.606   8.561  0.1351  0.1898  0.2810
 1703TIP3    H129304   1.211   1.650   8.489  0.3340 -0.4627 -0.0036
 1703TIP3    H229305   1.072   1.621   8.543  0.1855  0.0870 -0.0763
 1704TIP3   OH229306   5.390   6.991   9.299 -0.6262 -0.4865  0.4518
 1704TIP3    H129307   5.358   7.048   9.369  0.1228 -0.0920  0.4818
 1704TIP3    H229308   5.464   7.038   9.262 -0.5620 -1.0329 -0.1227
 1705TIP3   OH229309   4.992   5.117   9.425 -0.0432 -0.2260  0.1929
 1705TIP3    H129310   5.081   5.102   9.395 -0.3857 -1.6030 -0.2056
 1705TIP3    H229311   4.981   5.057   9.499 -0.9496 -0.8061 -0.3969
 1706TIP3   OH229312   4.352   3.559   1.439 -0.3102 -0.2569  0.5126
 1706TIP3    H129313   4.373   3.580   1.348  0.2918 -1.0125  0.4605
 1706TIP3    H229314   4.371   3.640   1.487  0.5350 -0.2072  0.1235
 1707TIP3   OH229315   0.125   2.895   0.951  0.1712 -0.4168 -0.2197
 1707TIP3    H129316   0.138   2.924   1.042 -1.9207  2.4362 -0.6780
 1707TIP3    H229317   0.051   2.835   0.955 -2.9540  3.0773 -0.3126
 1708TIP3   OH229318   5.359   4.387   2.402  0.3988  0.2821 -0.4422
 1708TIP3    H129319   5.336   4.445   2.329  0.0795 -0.1739 -0.7113
 1708TIP3    H229320   5.307   4.308   2.387 -1.6340  1.0900  1.6251
 1709TIP3   OH229321   4.165   2.329   0.928 -0.1295 -0.7198 -0.0113
 1709TIP3    H129322   4.212   2.412   0.941 -0.4664 -0.4019 -0.7730
 1709TIP3    H229323   4.073   2.354   0.928 -0.2066 -0.9488 -1.1792
 1710TIP3   OH229324   5.447   0.941   9.298 -0.0111 -0.4763  0.5088
 1710TIP3    H129325   5.478   0.868   9.351 -1.0860 -0.7522  0.7707
 1710TIP3    H229326   5.429   1.011   9.361  1.1391  0.0847  0.2495
 1711TIP3   OH229327   3.046   4.997   8.757  0.3214  0.6037 -0.1039
 1711TIP3    H129328   3.106   5.036   8.821 -0.5930  0.5352  0.8181
 1711TIP3    H229329   3.103   4.947   8.699  1.1503  0.2999  0.9310
 1712TIP3   OH229330   4.635   6.241   9.211  0.4257  0.1500 -0.3769
 1712TIP3    H129331   4.654   6.294   9.134  0.4184 -0.3187 -0.7096
 1712TIP3    H229332   4.690   6.163   9.200  1.8558  0.8893  1.0341
 1713TIP3   OH229333   0.958   7.647   8.019  0.0235  0.1656 -0.0152
 1713TIP3    H129334   1.039   7.650   8.071 -1.1416  1.0526  1.8745
 1713TIP3    H229335   0.987   7.632   7.929  2.2396 -0.0910  0.6883
 1714TIP3   OH229336   3.286   4.450   7.846  0.5933 -0.4063  0.2374
 1714TIP3    H129337   3.281   4.518   7.913 -1.3445 -1.1941  0.9804
 1714TIP3    H229338   3.220   4.476   7.781 -1.1040 -2.1285  1.1617
 1715TIP3   OH229339   2.230   1.287   1.192 -0.3507 -0.4792 -0.3553
 1715TIP3    H129340   2.177   1.230   1.137 -1.0370  1.3848 -1.7243
 1715TIP3    H229341   2.246   1.365   1.139  1.1664  0.3311  1.1552
 1716TIP3   OH229342   3.216   7.571   6.983 -0.1780  1.0069  0.9369
 1716TIP3    H129343   3.221   7.554   7.077  3.4390  0.0230  0.6906
 1716TIP3    H229344   3.276   7.644   6.969 -1.3854  1.7733 -0.5439
 1717TIP3   OH229345   5.772   5.306   1.442 -0.0348  0.5247 -0.1502
 1717TIP3    H129346   5.831   5.335   1.372  1.5347 -1.2084  0.3716
 1717TIP3    H229347   5.698   5.267   1.396  0.9779 -0.6058 -0.9089
 1718TIP3   OH229348   3.675   5.771   0.667  0.0682  0.1035 -0.4150
 1718TIP3    H129349   3.761   5.806   0.692 -0.6768  2.8493 -1.2915
 1718TIP3    H229350   3.627   5.767   0.750  1.3034 -2.5453  0.2630
 1719TIP3   OH229351   7.308   3.698   2.494 -0.6791  0.3847 -0.0026
 1719TIP3    H129352   7.278   3.730   2.579  1.0016 -0.3809  0.9236
 1719TIP3    H229353   7.271   3.610   2.488 -1.5003  0.7496 -0.4748
 1720TIP3   OH229354   1.566   5.469   8.018 -0.0762  0.0726 -0.0882
 1720TIP3    H129355   1.513   5.398   7.982  0.3183 -0.6009  0.6323
 1720TIP3    H229356   1.515   5.500   8.094  0.3498 -0.2861  0.3464
 1721TIP3   OH229357   3.846   3.917   9.342  0.0082 -0.0412 -0.0669
 1721TIP3    H129358   3.859   3.871   9.425 -1.9983  1.0492  0.9476
 1721TIP3    H229359   3.822   3.849   9.280 -1.3120 -0.5911  0.9943
 1722TIP3   OH229360   7.080   5.919   8.525  0.1456 -0.3482 -0.1806
 1722TIP3    H129361   7.065   5.984   8.457 -0.7782  0.7774  1.0381
 1722TIP3    H229362   7.105   5.840   8.478  2.3613  1.1184 -1.6848
 1723TIP3   OH229363   6.157   0.457   0.575  0.9203 -0.3804 -0.1629
 1723TIP3    H129364   6.098   0.441   0.502 -1.5782  0.5936  1.5135
 1723TIP3    H229365   6.136   0.389   0.639  0.4000  0.9559  1.1368
 1724TIP3   OH229366   3.010   3.623   7.368  0.3447  0.3897 -0.3508
 1724TIP3    H129367   3.055   3.675   7.434  0.6852 -0.6264  0.2559
 1724TIP3    H229368   3.058   3.638   7.287  0.2077  1.2915 -0.2681
 1725TIP3   OH229369   7.219   0.558   9.353  0.3429 -0.3236 -0.3771
 1725TIP3    H129370   7.140   0.563   9.299 -0.5353  1.3160  0.9870
 1725TIP3    H229371   7.291   0.551   9.290 -0.8340 -1.5431 -1.6579
 1726TIP3   OH229372   0.483   4.808   8.807  0.4666  0.0353 -0.4359
 1726TIP3    H129373   0.571   4.838   8.782  0.4824 -0.6645 -1.2883
 1726TIP3    H229374   0.481   4.818   8.902  1.4408  0.1491 -0.4076
 1727TIP3   OH229375   1.966   4.156   1.788  0.7426  0.6175  0.0480
 1727TIP3    H129376   1.941   4.247   1.776 -1.3215 -0.0807 -1.4552
 1727TIP3    H229377   1.911   4.107   1.727  2.5091 -1.5581  0.0670
 1728TIP3   OH229378   5.155   1.614   8.141 -0.0010 -0.1697 -0.4928
 1728TIP3    H129379   5.221   1.622   8.073 -0.0011  1.0044 -0.3815
 1728TIP3    H229380   5.088   1.556   8.104 -0.2321  0.8339 -1.6852
 1729TIP3   OH229381   0.656   4.326   2.699  0.0214 -0.0015 -0.0475
 1729TIP3    H129382   0.598   4.250   2.687 -1.9099  0.9872  2.1381
 1729TIP3    H229383   0.606   4.400   2.665  1.1411  0.5623 -0.5248
 1730TIP3   OH229384   6.225   7.157   9.519  0.1448  0.2819 -0.0497
 1730TIP3    H129385   6.319   7.141   9.510 -0.0696 -0.0462 -2.0790
 1730TIP3    H229386   6.212   7.243   9.480 -0.3097  0.6632  0.9158
 1731TIP3   OH229387   3.360   3.224   1.197  0.3820  0.2024 -0.4271
 1731TIP3    H129388   3.386   3.200   1.108 -1.0028 -1.1155 -0.5296
 1731TIP3    H229389   3.304   3.300   1.186 -0.7090 -0.6306 -0.8341
 1732TIP3   OH229390   4.526   7.547   7.724 -0.2002  0.6703  0.1661
 1732TIP3    H129391   4.514   7.635   7.760 -0.4691 -0.4989  3.2609
 1732TIP3    H229392   4.439   7.508   7.725 -0.3541  0.7406 -2.5780
 1733TIP3   OH229393   1.607   5.992   1.704 -0.0216 -0.3764 -0.4466
 1733TIP3    H129394   1.542   6.003   1.634  0.6786 -1.5074 -1.3121
 1733TIP3    H229395   1.680   5.946   1.662  1.2986  0.7139  0.5223
 1734TIP3   OH229396   3.182   3.444   1.080 -0.4829 -0.4129  0.1837
 1734TIP3    H129397   3.090   3.471   1.083 -0.8747 -1.1178 -2.6441
 1734TIP3    H229398   3.228   3.521   1.047 -0.3536 -0.5928 -0.0615
 1735TIP3   OH229399   2.613   7.403   0.943  0.0110 -0.1210  0.3954
 1735TIP3    H129400   2.600   7.497   0.927 -0.7141 -0.3382 -0.3747
 1735TIP3    H229401   2.614   7.395   1.038 -0.5209  0.5937  0.4700
 1736TIP3   OH229402   6.091   6.474   9.269 -0.2679 -0.0935 -0.4219
 1736TIP3    H129403   6.127   6.534   9.205 -0.6828 -1.3753 -1.9091
 1736TIP3    H229404   5.997   6.471   9.251 -0.2859 -1.0101 -0.2288
 1737TIP3   OH229405   3.617   6.294   1.347 -0.7281 -0.4543 -0.2634
 1737TIP3    H129406   3.549   6.251   1.398 -1.3717  2.2228  1.3067
 1737TIP3    H229407   3.685   6.315   1.411  0.4202 -0.7717 -1.3405
 1738TIP3   OH229408   2.927   4.878   9.787 -0.1554  0.1588  0.4908
 1738TIP3    H129409   2.839   4.839   9.785  0.0302 -0.2493 -1.7575
 1738TIP3    H229410   2.928   4.938   9.712  1.3144  0.5755  0.8231
 1739TIP3   OH229411   1.841   4.694   9.104 -0.5424 -0.3256  0.3011
 1739TIP3    H129412   1.896   4.623   9.071 -0.6409  0.4190 -1.5731
 1739TIP3    H229413   1.892   4.773   9.089 -0.6220  0.0682  1.9596
 1740TIP3   OH229414   2.620   7.152   9.131 -0.1110  0.1452 -0.3364
 1740TIP3    H129415   2.570   7.195   9.201  2.0533 -0.2936  1.6039
 1740TIP3    H229416   2.599   7.059   9.140  3.0687 -0.5084  2.5287
 1741TIP3   OH229417   0.223   1.724   9.171  0.0880 -0.1293 -0.1393
 1741TIP3    H129418   0.291   1.666   9.205 -0.1269  0.5757  1.6181
 1741TIP3    H229419   0.270   1.801   9.140  0.2236 -0.4388 -0.7160
 1742TIP3   OH229420   6.742   0.433   0.801  0.1596  0.9373 -0.1259
 1742TIP3    H129421   6.785   0.516   0.777  1.3481  0.2198 -0.5440
 1742TIP3    H229422   6.685   0.413   0.727 -0.7090  1.7423  0.3006
 1743TIP3   OH229423   2.023   4.604   9.892 -0.4375  0.0281 -0.3796
 1743TIP3    H129424   1.930   4.605   9.869  0.0642 -1.6912 -2.8714
 1743TIP3    H229425   2.058   4.683   9.850 -0.3624 -0.6833 -1.7216
 1744TIP3   OH229426   3.880   1.635   9.059 -0.0492 -0.3527  0.5736
 1744TIP3    H129427   3.906   1.592   8.977 -1.8460  0.1137 -0.3021
 1744TIP3    H229428   3.922   1.721   9.056 -0.3069 -0.2420  0.0071
 1745TIP3   OH229429   3.984   1.973   2.196  0.9738  0.3589  0.5007
 1745TIP3    H129430   4.061   1.928   2.230  0.4928 -1.4828 -0.6913
 1745TIP3    H229431   3.922   1.974   2.268  0.8371 -1.3305  0.4305
 1746TIP3   OH229432   4.656   6.787   0.330  0.2250 -0.2759  0.5341
 1746TIP3    H129433   4.736   6.815   0.286  0.9321 -1.1146  1.2577
 1746TIP3    H229434   4.686   6.742   0.408 -0.9128 -1.5543  0.2753
 1747TIP3   OH229435   5.474   5.980   9.429 -0.2178 -0.2230  0.4005
 1747TIP3    H129436   5.480   5.938   9.515 -2.7722 -2.8385 -0.5076
 1747TIP3    H229437   5.380   5.990   9.414  0.2054  2.3149 -1.2071
 1748TIP3   OH229438   2.321   2.219   0.969 -0.4467  0.1403 -0.1307
 1748TIP3    H129439   2.377   2.248   0.897  0.6321  1.3362  1.1283
 1748TIP3    H229440   2.267   2.150   0.931  2.1998 -1.4177 -1.2967
 1749TIP3   OH229441   5.529   4.264   1.635 -0.0975  0.4141  0.1316
 1749TIP3    H129442   5.511   4.199   1.703 -2.5761 -0.8146 -1.5554
 1749TIP3    H229443   5.512   4.348   1.677  2.8182  0.0585  2.2558
 1750TIP3   OH229444   4.263   2.632   9.521 -0.5422 -0.2245 -0.1076
 1750TIP3    H129445   4.228   2.720   9.532 -3.0181 -1.1610  0.1347
 1750TIP3    H229446   4.334   2.642   9.457 -0.7896  1.9047 -0.1152
 1751TIP3   OH229447   0.226   6.701   1.980  0.0216  0.4318 -0.4952
 1751TIP3    H129448   0.311   6.663   1.958  0.6843  1.4626  0.1717
 1751TIP3    H229449   0.242   6.751   2.060 -1.4083 -0.0037  0.0937
 1752TIP3   OH229450   3.865   2.134   7.900 -0.2306  0.1478 -0.3555
 1752TIP3    H129451   3.946   2.183   7.892 -0.0597 -0.2723 -1.5192
 1752TIP3    H229452   3.888   2.045   7.872 -0.9169 -0.1671  0.0498
 1753TIP3   OH229453   5.974   4.886   9.869  0.4965 -0.4493  0.1254
 1753TIP3    H129454   6.051   4.845   9.908  0.5337 -0.7844 -0.3026
 1753TIP3    H229455   6.007   4.935   9.795  0.8308  2.4166  2.0005
 1754TIP3   OH229456   1.083   3.714   6.953  0.5212 -0.0650  0.2703
 1754TIP3    H129457   1.086   3.793   7.006  0.3462  1.6080 -2.0221
 1754TIP3    H229458   1.020   3.657   6.997  2.0167  0.2467  2.9719
 1755TIP3   OH229459   4.401   4.869   9.533  0.2285 -0.6685  0.4436
 1755TIP3    H129460   4.326   4.891   9.589  0.7397 -0.6041  1.1201
 1755TIP3    H229461   4.418   4.777   9.550 -0.0409 -0.8318 -0.1374
 1756TIP3   OH229462   2.865   1.529   0.714 -0.1356 -0.3373  1.0064
 1756TIP3    H129463   2.956   1.556   0.711 -0.2208  0.0447 -2.5638
 1756TIP3    H229464   2.815   1.610   0.699 -0.7782 -1.0655 -1.2250
 1757TIP3   OH229465   7.210   1.297   9.147 -0.2164 -0.3866 -0.2214
 1757TIP3    H129466   7.149   1.370   9.133 -0.6800 -0.2065  2.2521
 1757TIP3    H229467   7.279   1.311   9.082 -1.4234  0.9596 -1.2911
 1758TIP3   OH229468   0.424   2.558   7.761 -0.3905  0.7253  0.0394
 1758TIP3    H129469   0.387   2.475   7.793  2.1390 -0.0962  1.0808
 1758TIP3    H229470   0.424   2.549   7.666 -1.9948  0.4198  0.0369
 1759TIP3   OH229471   4.418   4.891   1.870  0.0064 -0.0384 -0.4686
 1759TIP3    H129472   4.479   4.938   1.814  0.0626 -0.7373 -1.0010
 1759TIP3    H229473   4.332   4.917   1.839 -0.0158  1.5959  0.8136
 1760TIP3   OH229474   3.624   4.455   1.948 -0.0775  0.2199 -0.0184
 1760TIP3    H129475   3.593   4.520   1.884  0.6656  1.7213  1.0823
 1760TIP3    H229476   3.559   4.385   1.945  0.7608 -0.6025 -3.5973
 1761TIP3   OH229477   2.024   3.849   8.694 -0.0907  0.3115 -0.9697
 1761TIP3    H129478   1.957   3.916   8.686  0.0042  0.5655  0.1682
 1761TIP3    H229479   2.104   3.897   8.713 -0.3644 -0.1450  1.7878
 1762TIP3   OH229480   4.496   1.817   8.334 -0.0987  0.1736 -0.2051
 1762TIP3    H129481   4.427   1.807   8.269 -0.8337  0.4562  0.5161
 1762TIP3    H229482   4.463   1.773   8.412  1.0550 -0.7384 -0.1993
 1763TIP3   OH229483   5.491   4.700   8.389  0.1663 -0.1363 -0.7023
 1763TIP3    H129484   5.477   4.772   8.451 -0.8738 -0.0904 -0.9754
 1763TIP3    H229485   5.567   4.728   8.338  1.2745 -0.3358  0.7649
 1764TIP3   OH229486   6.781   4.202   8.141  0.2836  0.6579 -0.2995
 1764TIP3    H129487   6.873   4.229   8.143  0.4550  0.0497  0.3671
 1764TIP3    H229488   6.747   4.239   8.060  0.8000  1.9158  0.0277
 1765TIP3   OH229489   7.524   3.480   2.214  0.0765 -0.0117 -0.5342
 1765TIP3    H129490   7.601   3.460   2.268 -1.8845 -1.5068  1.9448
 1765TIP3    H229491   7.527   3.575   2.203  0.7505  0.3487  2.0514
 1766TIP3   OH229492   2.110   5.023   9.455 -0.5150  0.9375 -0.5084
 1766TIP3    H129493   2.140   4.932   9.452 -0.8908  0.8314 -1.5532
 1766TIP3    H229494   2.155   5.060   9.531  0.8419  0.2924 -0.9613
 1767TIP3   OH229495   7.230   5.351   0.856  0.4621  0.4927  0.7040
 1767TIP3    H129496   7.264   5.410   0.789 -0.1315 -0.0853 -0.1297
 1767TIP3    H229497   7.252   5.263   0.825  0.8285  0.2310  1.6435
 1768TIP3   OH229498   2.672   5.359   1.087 -0.0689  0.4813  0.1495
 1768TIP3    H129499   2.636   5.447   1.100 -0.6893  0.1668  0.5875
 1768TIP3    H229500   2.596   5.305   1.067  0.2820 -0.0107  0.1477
 1769TIP3   OH229501   4.762   0.491   7.218 -0.1234 -0.1528  0.1182
 1769TIP3    H129502   4.798   0.574   7.188  0.3199 -0.3400  0.1194
 1769TIP3    H229503   4.667   0.500   7.209 -0.0053 -0.1931 -1.3248
 1770TIP3   OH229504   3.050   2.980   2.352 -0.3153 -0.0367  0.0218
 1770TIP3    H129505   3.061   2.988   2.257  0.2168 -2.5866 -0.2180
 1770TIP3    H229506   3.071   3.067   2.386  0.3325  0.7217 -2.1267
 1771TIP3   OH229507   6.453   0.854   9.218 -0.3238  0.6856 -0.2528
 1771TIP3    H129508   6.466   0.888   9.130  0.0276  1.0938 -0.0488
 1771TIP3    H229509   6.509   0.908   9.274 -0.7782  0.6395  0.2650
 1772TIP3   OH229510   3.284   4.664   8.797  0.0091  0.0464 -0.3919
 1772TIP3    H129511   3.318   4.632   8.881 -1.6653 -0.5838  0.0827
 1772TIP3    H229512   3.291   4.760   8.803 -1.6034  0.1246  1.2034
 1773TIP3   OH229513   5.064   2.821   9.820 -0.0478 -0.0693 -0.1759
 1773TIP3    H129514   5.128   2.781   9.762  0.2145 -1.5747  1.0979
 1773TIP3    H229515   5.064   2.766   9.898 -1.1779  1.2659  0.8208
 1774TIP3   OH229516   1.812   1.251   0.421 -0.5090 -0.5102 -0.2883
 1774TIP3    H129517   1.782   1.183   0.361  0.9835  1.1213 -3.0257
 1774TIP3    H229518   1.854   1.203   0.492 -1.8882 -2.4888 -0.7257
 1775TIP3   OH229519   3.073   4.354   8.990 -0.3489 -0.6587 -0.6367
 1775TIP3    H129520   3.058   4.283   8.927 -1.6656  0.5635 -1.7880
 1775TIP3    H229521   3.039   4.432   8.946 -1.6065  0.2106  1.7206
 1776TIP3   OH229522   7.556   3.723   2.320 -0.3361  0.1740 -0.3353
 1776TIP3    H129523   7.523   3.802   2.276 -0.2147 -0.5835 -1.8703
 1776TIP3    H229524   7.511   3.722   2.404 -1.1017  1.3522 -0.7002
 1777TIP3   OH229525   4.797   1.962   1.474 -0.2868 -0.6267  0.0507
 1777TIP3    H129526   4.840   2.042   1.446  0.8731 -1.4635 -0.6205
 1777TIP3    H229527   4.705   1.987   1.487  0.1044  0.8399  0.0688
 1778TIP3   OH229528   1.167   3.500   8.628 -0.4500  0.2831  0.1262
 1778TIP3    H129529   1.210   3.486   8.712 -0.6522  0.1292  0.2045
 1778TIP3    H229530   1.210   3.577   8.592  0.4988 -0.3808 -0.1934
 1779TIP3   OH229531   2.331   1.327   8.379  0.0723  0.2094  0.2721
 1779TIP3    H129532   2.285   1.396   8.426 -1.7419 -0.2299 -0.7624
 1779TIP3    H229533   2.287   1.322   8.294  0.3469 -1.9870  0.1937
 1780TIP3   OH229534   6.649   6.180   8.100  0.1441 -0.3877  0.1089
 1780TIP3    H129535   6.685   6.158   8.015  3.8403 -0.2368  1.4608
 1780TIP3    H229536   6.665   6.274   8.110 -2.8313  0.2450 -0.0364
 1781TIP3   OH229537   7.310   6.491   1.535 -0.2426 -0.4420  0.6162
 1781TIP3    H129538   7.308   6.455   1.624 -1.6066 -0.0951  0.7390
 1781TIP3    H229539   7.388   6.546   1.534  2.0792 -3.4810  0.3408
 1782TIP3   OH229540   2.112   6.886   9.921 -0.5018  0.4009  0.0804
 1782TIP3    H129541   2.180   6.925   9.865  0.7916 -2.5180 -0.5515
 1782TIP3    H229542   2.041   6.864   9.861 -0.1089 -0.5589 -0.0547
 1783TIP3   OH229543   2.833   2.727   0.066 -0.4109 -0.0286  0.0543
 1783TIP3    H129544   2.831   2.788   0.139 -1.2653 -1.7478  1.5510
 1783TIP3    H229545   2.799   2.777  -0.009 -1.2408  1.2646  1.2513
 1784TIP3   OH229546   3.500   5.018   0.821  0.5718  0.5134 -0.7231
 1784TIP3    H129547   3.412   5.047   0.797 -0.0421 -0.1130  0.6273
 1784TIP3    H229548   3.548   5.098   0.838 -0.0403  0.8490 -0.5323
 1785TIP3   OH229549   0.650   0.120   0.117 -0.0286 -0.0906 -0.5024
 1785TIP3    H129550   0.690   0.204   0.096 -1.6608  0.4192 -1.8009
 1785TIP3    H229551   0.682   0.061   0.048  1.0353 -0.5636  0.3500
 1786TIP3   OH229552   6.374   7.495   9.395  0.0874  0.8816 -0.3232
 1786TIP3    H129553   6.467   7.520   9.392  0.5411 -0.7056 -0.1839
 1786TIP3    H229554   6.344   7.526   9.480  1.4904 -1.7711  1.2461
 1787TIP3   OH229555   2.332   1.408   7.229  0.4357 -0.2930 -0.2549
 1787TIP3    H129556   2.279   1.402   7.150 -0.9885 -1.7911  0.7548
 1787TIP3    H229557   2.408   1.352   7.211  0.2911 -0.3526 -0.6860
 1788TIP3   OH229558   6.046   6.922   7.565 -0.2058 -0.6404  0.2660
 1788TIP3    H129559   6.063   7.006   7.522 -0.0822 -2.0515 -2.6992
 1788TIP3    H229560   5.971   6.939   7.622 -0.0131  1.5237 -0.0622
 1789TIP3   OH229561   2.653   0.816   3.606  0.2708  0.0366  0.2868
 1789TIP3    H129562   2.680   0.730   3.571 -0.4291  0.3781 -1.1943
 1789TIP3    H229563   2.564   0.801   3.638  0.9579 -0.3050  2.1325
 1790TIP3   OH229564   4.255   0.757   2.285  0.1009 -0.4331  0.2243
 1790TIP3    H129565   4.272   0.682   2.342 -1.1077 -0.4331  0.6136
 1790TIP3    H229566   4.337   0.805   2.283  0.8737 -1.7054  0.0443
 1791TIP3   OH229567   1.369   1.414   7.282  0.2408  0.5542 -0.5485
 1791TIP3    H129568   1.274   1.400   7.283  0.3822 -0.5797 -1.3854
 1791TIP3    H229569   1.401   1.367   7.359  0.0490  1.7129  0.2671
 1792TIP3   OH229570   0.613   1.218   3.141 -0.2933 -0.7841  0.3739
 1792TIP3    H129571   0.707   1.232   3.156 -0.7940  2.3401  1.2896
 1792TIP3    H229572   0.603   1.224   3.046  0.3088 -0.2388  0.3388
 1793TIP3   OH229573   3.292   2.784   9.042  0.0803  0.2661  0.0007
 1793TIP3    H129574   3.369   2.806   9.094 -1.2287 -0.1604  2.2192
 1793TIP3    H229575   3.325   2.723   8.975  1.6554  0.1278  0.8572
 1794TIP3   OH229576   2.344   4.878   0.730 -0.8762 -0.4055  0.6747
 1794TIP3    H129577   2.328   4.935   0.655 -3.0566 -1.5813  0.1663
 1794TIP3    H229578   2.439   4.866   0.731 -0.7048  0.4944 -1.2436
 1795TIP3   OH229579   0.358   7.060   1.579  0.1322 -0.7555 -0.1943
 1795TIP3    H129580   0.436   7.098   1.618 -1.1076  0.7176  0.9699
 1795TIP3    H229581   0.342   6.980   1.629 -1.0465  0.7571  2.0166
 1796TIP3   OH229582   7.364   1.955   1.874 -0.0194 -0.4314 -0.0720
 1796TIP3    H129583   7.289   2.013   1.885  1.1795  1.0297  0.6677
 1796TIP3    H229584   7.338   1.874   1.919 -1.1423  0.0467  0.1774
 1797TIP3   OH229585   2.874   0.692   1.067  0.3283 -0.2412  0.4447
 1797TIP3    H129586   2.886   0.629   1.139 -0.2541 -0.9160 -0.0290
 1797TIP3    H229587   2.837   0.769   1.109  2.4345  0.3829  1.2774
 1798TIP3   OH229588   5.268   3.061   9.173 -0.2502 -0.6166 -0.1050
 1798TIP3    H129589   5.214   3.110   9.110 -2.0227 -0.7805  1.2206
 1798TIP3    H229590   5.329   3.125   9.207 -1.0920  0.1562 -0.0035
 1799TIP3   OH229591   1.635   2.855   6.989 -0.0205 -0.0399  0.4313
 1799TIP3    H129592   1.727   2.878   7.007  0.0011 -0.5672  1.0430
 1799TIP3    H229593   1.599   2.934   6.948  0.6890  0.1975  0.2341
 1800TIP3   OH229594   0.761   4.990   2.225  0.4887  0.5174  0.3914
 1800TIP3    H129595   0.729   4.926   2.161 -1.6918 -0.0619  1.9180
 1800TIP3    H229596   0.708   5.068   2.208 -0.2622  0.2888  1.5669
 1801TIP3   OH229597   3.394   6.135   8.725 -0.2606 -0.3285 -0.4968
 1801TIP3    H129598   3.318   6.193   8.715  0.6435  1.0658  0.4583
 1801TIP3    H229599   3.464   6.192   8.757  0.7370 -1.9131  0.2610
 1802TIP3   OH229600   0.511   6.553   1.318  0.2088 -0.2905 -0.1062
 1802TIP3    H129601   0.429   6.512   1.344  0.6342 -0.1665  1.6130
 1802TIP3    H229602   0.486   6.639   1.286 -0.4046 -0.6227 -0.5436
 1803TIP3   OH229603   1.999   7.169   9.230  0.3465 -0.5311  0.0871
 1803TIP3    H129604   2.016   7.233   9.300  1.1725 -0.1135 -0.4766
 1803TIP3    H229605   1.905   7.177   9.213  0.2605 -0.1558  0.6870
 1804TIP3   OH229606   5.609   3.393   0.481  0.3019 -0.3479 -0.0278
 1804TIP3    H129607   5.596   3.322   0.418 -1.9877 -0.2523  0.2379
 1804TIP3    H229608   5.525   3.439   0.481  0.8515  0.7202  1.7943
 1805TIP3   OH229609   5.171   6.135   8.715 -0.3088  0.6151 -0.1538
 1805TIP3    H129610   5.079   6.151   8.697 -0.4247 -1.3613 -1.6007
 1805TIP3    H229611   5.182   6.041   8.706  1.4090  0.4764  2.3213
 1806TIP3   OH229612   6.233   2.938   9.436 -0.1527 -0.1431  0.7157
 1806TIP3    H129613   6.207   2.993   9.361 -0.1354  0.6705  1.2963
 1806TIP3    H229614   6.280   2.865   9.396 -1.6967 -0.6779 -0.2259
 1807TIP3   OH229615   7.556   0.779   1.998  0.0257 -0.0045  0.2148
 1807TIP3    H129616   7.613   0.710   1.964 -1.5570 -1.0450 -0.5092
 1807TIP3    H229617   7.492   0.732   2.052 -0.1052  1.1118  1.0512
 1808TIP3   OH229618   0.094   6.468   9.107  0.2811 -0.2535  0.1667
 1808TIP3    H129619   0.154   6.523   9.057  0.7785 -0.2477  0.7675
 1808TIP3    H229620   0.019   6.457   9.049  1.1070 -0.7622 -0.8352
 1809TIP3   OH229621   2.211   7.031   1.148 -0.0633  0.4644  0.1293
 1809TIP3    H129622   2.187   6.957   1.203  1.2855  0.3382  0.5729
 1809TIP3    H229623   2.132   7.084   1.143 -1.2694 -1.3241 -0.7409
 1810TIP3   OH229624   1.735   4.201   9.555  0.1517  0.3014  0.4861
 1810TIP3    H129625   1.775   4.251   9.484 -0.1707 -1.7271 -1.2247
 1810TIP3    H229626   1.798   4.207   9.627  0.8562  1.7858 -0.2125
 1811TIP3   OH229627   1.500   3.959   9.116 -0.6806  0.4643 -0.8709
 1811TIP3    H129628   1.504   3.877   9.066 -2.3219  0.1393 -0.5241
 1811TIP3    H229629   1.564   4.016   9.073  1.4227 -1.3510 -0.4012
 1812TIP3   OH229630   0.716   1.146   2.111  0.5333 -0.0255  0.0270
 1812TIP3    H129631   0.805   1.171   2.085  0.4277 -0.8573 -1.1950
 1812TIP3    H229632   0.686   1.219   2.165  0.7789  1.8963 -2.2209
 1813TIP3   OH229633   4.056   5.568   0.436  0.0430 -0.4380 -0.7793
 1813TIP3    H129634   4.108   5.633   0.484 -0.8218  0.1552 -0.6191
 1813TIP3    H229635   4.039   5.608   0.351 -1.2431 -0.0556 -0.3613
 1814TIP3   OH229636   1.134   4.828   9.504 -0.0454  0.5078  0.2558
 1814TIP3    H129637   1.134   4.870   9.419  0.3837 -1.1159 -0.5819
 1814TIP3    H229638   1.078   4.884   9.558 -0.5312  1.4302 -1.1505
 1815TIP3   OH229639   3.326   3.620   2.457  0.1876  0.1499 -0.0013
 1815TIP3    H129640   3.300   3.710   2.437 -0.3932  0.8840  3.4256
 1815TIP3    H229641   3.416   3.614   2.427  0.3462  2.0023  0.0014
 1816TIP3   OH229642   3.512   0.601   7.697  0.3371 -0.2162 -0.1013
 1816TIP3    H129643   3.590   0.635   7.653 -0.4196  0.5919 -0.8628
 1816TIP3    H229644   3.499   0.659   7.772  0.2963 -0.1725 -0.1427
 1817TIP3   OH229645   0.920   4.347   1.023  0.7222 -0.1246  0.1664
 1817TIP3    H129646   0.993   4.290   1.049 -0.2604 -2.3596 -1.6612
 1817TIP3    H229647   0.939   4.370   0.932 -0.6003 -0.3847 -0.1935
 1818TIP3   OH229648   0.740   1.197   9.132 -0.3730  0.1348  0.0718
 1818TIP3    H129649   0.761   1.116   9.085  0.6024 -0.5760  1.6781
 1818TIP3    H229650   0.650   1.185   9.161 -0.1087 -0.5442  0.6280
 1819TIP3   OH229651   6.713   3.041   0.981  0.0044 -0.2271  0.2761
 1819TIP3    H129652   6.798   3.059   0.943  0.2114  1.7574  1.5557
 1819TIP3    H229653   6.732   3.018   1.072 -0.7616 -0.8681  0.2854
 1820TIP3   OH229654   3.395   7.370   6.520  0.0934 -0.2517  0.9706
 1820TIP3    H129655   3.385   7.460   6.553 -3.4383  0.0878 -0.6186
 1820TIP3    H229656   3.456   7.378   6.446 -0.9338  1.0532  0.2343
 1821TIP3   OH229657   0.683   7.149   9.048  0.1032 -0.2489 -0.1831
 1821TIP3    H129658   0.712   7.177   9.135 -0.6891 -1.6410  0.5757
 1821TIP3    H229659   0.669   7.230   9.000  0.4018  0.5613  1.0396
 1822TIP3   OH229660   4.101   0.853   0.388  0.1372  0.3019 -0.9073
 1822TIP3    H129661   4.147   0.869   0.470  1.2658  1.8676 -1.8023
 1822TIP3    H229662   4.087   0.758   0.387  0.8715  0.1426  0.6712
 1823TIP3   OH229663   0.416   4.412   1.207 -0.4585 -0.2139  0.5576
 1823TIP3    H129664   0.396   4.319   1.222  0.0049 -0.1112  1.9550
 1823TIP3    H229665   0.493   4.410   1.151  0.4223 -0.7307  1.7243
 1824TIP3   OH229666   2.236   3.143   2.171  0.5919 -0.2041 -0.0286
 1824TIP3    H129667   2.304   3.085   2.137  0.9941 -0.1923  0.7318
 1824TIP3    H229668   2.240   3.132   2.266  0.6573  1.0382  0.1392
 1825TIP3   OH229669   6.117   3.362   0.960  0.3058  0.4981  0.3292
 1825TIP3    H129670   6.053   3.405   1.016  0.0032 -0.6193  0.8713
 1825TIP3    H229671   6.176   3.318   1.021 -0.0117 -0.7110 -0.2050
 1826TIP3   OH229672   1.098   3.665   0.101  0.4780 -0.4065  0.6949
 1826TIP3    H129673   1.098   3.649   0.195 -1.1825 -0.1536  0.7685
 1826TIP3    H229674   1.041   3.741   0.089  0.1356 -0.8340 -0.5709
 1827TIP3   OH229675   5.803   6.540   9.910 -0.3151  0.1136  0.0615
 1827TIP3    H129676   5.817   6.466   9.852  0.0601  0.5972 -0.4758
 1827TIP3    H229677   5.890   6.579   9.920 -0.2871 -0.2180  1.3036
 1828TIP3   OH229678   1.434   7.501   9.273 -0.8045  0.6492 -0.4223
 1828TIP3    H129679   1.435   7.529   9.365 -0.7338  1.6794 -0.7223
 1828TIP3    H229680   1.377   7.565   9.230 -0.0477  0.7668 -1.2735
 1829TIP3   OH229681   1.187   7.043   0.147 -0.4977  0.3309 -0.0541
 1829TIP3    H129682   1.263   7.015   0.095 -0.9181  1.0594 -1.0836
 1829TIP3    H229683   1.167   7.131   0.116 -2.2954 -0.1612 -0.4060
 1830TIP3   OH229684   4.652   3.074   2.001 -0.0358 -0.1910  0.7540
 1830TIP3    H129685   4.591   3.004   1.977 -0.3301 -0.6145  2.5886
 1830TIP3    H229686   4.725   3.028   2.042  1.1158  0.3899 -0.5720
 1831TIP3   OH229687   4.766   6.780   2.034  0.2707 -0.1729 -0.0478
 1831TIP3    H129688   4.720   6.696   2.043  0.6939 -0.6402 -1.8326
 1831TIP3    H229689   4.836   6.776   2.099  0.2886 -1.2082 -0.1085
 1832TIP3   OH229690   3.620   4.117   9.024 -0.7015  0.3677 -0.0891
 1832TIP3    H129691   3.600   4.209   9.037 -0.2647  0.5434 -0.6467
 1832TIP3    H229692   3.713   4.115   9.003 -0.5015 -0.2784  0.7831
 1833TIP3   OH229693   2.815   2.782   0.397  0.4791 -0.3297  0.4439
 1833TIP3    H129694   2.905   2.762   0.422  0.1727 -0.5042  1.4538
 1833TIP3    H229695   2.784   2.841   0.466 -0.3301 -0.6560  0.3668
 1834TIP3   OH229696   3.578   6.518   9.985 -0.4041 -0.4161 -0.2173
 1834TIP3    H129697   3.649   6.459  10.012  0.4334  1.0438  0.9194
 1834TIP3    H229698   3.606   6.552   9.900 -0.9996 -1.7697 -0.9910
 1835TIP3   OH229699   0.337   5.336   0.294 -0.7939 -0.1765  0.0052
 1835TIP3    H129700   0.322   5.344   0.388 -1.4917  0.5857 -0.1609
 1835TIP3    H229701   0.289   5.409   0.255 -2.5730 -1.8832 -1.1571
 1836TIP3   OH229702   4.280   6.561   1.312  0.1090  0.2706 -0.2381
 1836TIP3    H129703   4.215   6.619   1.272  0.2545 -0.4380 -1.5548
 1836TIP3    H229704   4.284   6.485   1.255 -1.1552 -1.8001  2.2109
 1837TIP3   OH229705   5.160   3.218   9.921 -0.2237 -0.2059 -0.3988
 1837TIP3    H129706   5.242   3.230   9.874 -0.4316 -0.4275 -0.8294
 1837TIP3    H229707   5.107   3.163   9.863 -0.3384 -0.8182  0.2761
 1838TIP3   OH229708   1.907   2.036   2.320  0.2559 -0.2596 -0.0808
 1838TIP3    H129709   1.894   2.082   2.403  1.9560  1.7162 -0.8239
 1838TIP3    H229710   1.919   1.944   2.345  0.3881  0.2399  1.8210
 1839TIP3   OH229711   5.049   7.048   8.207 -0.2006  0.1189 -0.0196
 1839TIP3    H129712   4.984   7.047   8.278  2.2385  0.3342  2.3530
 1839TIP3    H229713   5.098   6.967   8.218  2.5037  1.7415  0.9061
 1840TIP3   OH229714   6.415   3.480   8.389 -0.0167 -0.6578  0.0147
 1840TIP3    H129715   6.336   3.531   8.373 -1.3737 -1.1768  4.0007
 1840TIP3    H229716   6.428   3.430   8.308 -0.2767  3.5918 -2.9933
 1841TIP3   OH229717   5.250   4.138   7.444 -0.3021 -0.0455 -0.1824
 1841TIP3    H129718   5.170   4.103   7.406 -0.9334 -0.4646  1.4217
 1841TIP3    H229719   5.319   4.075   7.420 -0.6335 -0.1975 -0.7457
 1842TIP3   OH229720   0.312   0.626   9.028  0.3369  0.4663 -0.5642
 1842TIP3    H129721   0.338   0.588   9.111  0.5116  0.6026 -0.5560
 1842TIP3    H229722   0.375   0.591   8.965 -1.3389 -1.7336 -1.1155
 1843TIP3   OH229723   2.527   3.964   7.633 -1.0855 -0.2137 -0.4948
 1843TIP3    H129724   2.465   3.980   7.561 -0.7929  0.0643 -0.6907
 1843TIP3    H229725   2.558   3.875   7.619 -1.9813 -0.6248  0.0235
 1844TIP3   OH229726   7.527   0.185   8.469  0.1259  0.2883 -0.2628
 1844TIP3    H129727   7.448   0.139   8.443 -0.0926  0.1402  0.6337
 1844TIP3    H229728   7.591   0.116   8.485  0.6627  0.4315 -1.6366
 1845TIP3   OH229729   1.951   4.089   0.479  0.0524 -0.2425  0.1122
 1845TIP3    H129730   2.031   4.058   0.435 -0.2683 -0.6533 -0.1852
 1845TIP3    H229731   1.973   4.088   0.572  0.7153  0.5655 -0.0181
 1846TIP3   OH229732   2.556   3.869   0.127 -0.1564 -0.2657 -0.0572
 1846TIP3    H129733   2.633   3.916   0.095 -0.1088 -0.5459 -0.3651
 1846TIP3    H229734   2.507   3.933   0.177  1.2627 -0.5760  1.8278
 1847TIP3   OH229735   6.545   3.177   0.452 -0.3592 -0.1730  0.0030
 1847TIP3    H129736   6.613   3.216   0.507  0.9092  1.4946 -2.5890
 1847TIP3    H229737   6.464   3.219   0.481 -0.1063 -0.9410  1.9866
 1848TIP3   OH229738   5.607   7.415   8.703 -0.4419  0.1032  0.3548
 1848TIP3    H129739   5.667   7.347   8.734  0.1492  0.8462  0.8634
 1848TIP3    H229740   5.557   7.439   8.781 -1.1716 -0.2651  0.0107
 1849TIP3   OH229741   7.526   0.146   1.869  0.6267  0.6034  0.2757
 1849TIP3    H129742   7.442   0.143   1.824  0.7222 -1.6090  0.0976
 1849TIP3    H229743   7.516   0.213   1.936 -1.5152 -0.0307  0.6505
 1850TIP3   OH229744   7.248   7.348   9.803  0.1374 -0.3210  0.1361
 1850TIP3    H129745   7.254   7.285   9.875  2.3339 -0.4968 -0.1189
 1850TIP3    H229746   7.215   7.428   9.844 -2.6891 -1.5450  0.4638
 1851TIP3   OH229747   6.079   2.463   1.317 -0.1679  0.1404 -0.4915
 1851TIP3    H129748   6.029   2.544   1.320  1.5675  1.4333 -2.8996
 1851TIP3    H229749   6.026   2.404   1.264  0.8101  1.6048 -3.3000
 1852TIP3   OH229750   3.427   3.568   1.411  0.1257  0.1425  0.7347
 1852TIP3    H129751   3.440   3.663   1.416  0.2785  0.0662  1.8984
 1852TIP3    H229752   3.335   3.556   1.434  0.4107 -0.0851  1.7778
 1853TIP3   OH229753   6.862   3.034   1.529  0.0538 -0.2540 -0.3850
 1853TIP3    H129754   6.872   3.095   1.456  0.0445 -0.7557 -0.8068
 1853TIP3    H229755   6.905   3.078   1.603  1.1731 -0.3020 -0.9934
 1854TIP3   OH229756   7.679   6.685   2.126 -0.5661  0.1398  0.6034
 1854TIP3    H129757   7.695   6.774   2.159 -0.4262  0.1610  0.4794
 1854TIP3    H229758   7.734   6.678   2.048 -1.4561  0.3448 -0.0528
 1855TIP3   OH229759   3.447   6.100   6.853 -0.2384 -0.4409  0.3823
 1855TIP3    H129760   3.478   6.190   6.864 -1.1915  0.0677 -0.8052
 1855TIP3    H229761   3.503   6.064   6.784 -1.3135  0.0356 -0.7925
 1856TIP3   OH229762   4.443   4.175   2.708  0.8519 -0.1815  0.6152
 1856TIP3    H129763   4.473   4.266   2.715  0.3708 -0.0465  0.9648
 1856TIP3    H229764   4.355   4.176   2.747  0.6510 -0.6976  0.1753
 1857TIP3   OH229765   7.298   1.405   0.226 -0.1165 -0.5498 -0.1699
 1857TIP3    H129766   7.279   1.472   0.292 -1.4115  1.3226 -2.2883
 1857TIP3    H229767   7.394   1.405   0.219 -0.0720  1.1182 -0.0886
 1858TIP3   OH229768   2.993   2.253   9.407 -0.2801 -0.1307  0.1356
 1858TIP3    H129769   2.979   2.171   9.360  0.7390  1.0699 -2.4872
 1858TIP3    H229770   2.905   2.280   9.435 -0.8397 -1.3055 -0.4159
 1859TIP3   OH229771   3.277   0.489   6.871 -0.5019 -0.0394  0.2429
 1859TIP3    H129772   3.273   0.396   6.850  0.0863 -0.4466  1.8088
 1859TIP3    H229773   3.192   0.508   6.911  0.0022 -0.3557  1.5287
 1860TIP3   OH229774   7.005   1.996   0.188  0.2867  0.0533  0.0683
 1860TIP3    H129775   7.009   2.037   0.274 -1.0451 -1.3244  0.8196
 1860TIP3    H229776   6.923   2.027   0.150  0.2613 -0.3456 -0.2008
 1861TIP3   OH229777   7.082   5.326   8.085 -0.0080 -0.1926  0.2980
 1861TIP3    H129778   7.110   5.385   8.015  0.6695  0.1002  0.8020
 1861TIP3    H229779   7.116   5.241   8.058 -0.2132 -0.1859  0.0092
 1862TIP3   OH229780   3.153   6.442   0.697  0.4308 -0.0515  0.1422
 1862TIP3    H129781   3.232   6.388   0.688  0.0396 -0.8444  1.3675
 1862TIP3    H229782   3.177   6.525   0.655  1.1317 -1.0478 -1.5091
 1863TIP3   OH229783   5.605   2.626   9.788  0.3762 -0.6255  0.7881
 1863TIP3    H129784   5.624   2.684   9.862 -0.1549  0.0769  0.3978
 1863TIP3    H229785   5.586   2.686   9.716 -0.7638 -1.2794  0.5211
 1864TIP3   OH229786   0.007   4.728   8.657 -0.7785  0.1849 -0.1646
 1864TIP3    H129787  -0.024   4.663   8.722 -2.4490  1.5877  0.5188
 1864TIP3    H229788   0.078   4.773   8.701 -1.2748  0.4844  0.3464
 1865TIP3   OH229789   4.190   3.226   8.140 -0.1980 -0.3016 -0.5185
 1865TIP3    H129790   4.240   3.269   8.071  1.1362 -1.6751 -0.4563
 1865TIP3    H229791   4.128   3.292   8.170  0.9619  1.1617 -1.2447
 1866TIP3   OH229792   3.819   6.866   8.911  0.3642 -0.4761 -0.7914
 1866TIP3    H129793   3.808   6.883   9.005 -0.2254  3.5542 -1.3945
 1866TIP3    H229794   3.903   6.821   8.905  0.8038 -0.1398  1.6596
 1867TIP3   OH229795   2.498   6.938   0.772 -0.3113 -0.0162 -0.2541
 1867TIP3    H129796   2.431   7.002   0.749 -1.0920  0.7586  3.4967
 1867TIP3    H229797   2.581   6.982   0.752 -0.8600  0.3203 -1.9045
 1868TIP3   OH229798   0.724   2.112   0.486 -0.0886 -0.8314 -0.1476
 1868TIP3    H129799   0.631   2.092   0.470  0.5238 -1.9095 -3.0399
 1868TIP3    H229800   0.736   2.200   0.451  0.3675 -1.5517 -1.9373
 1869TIP3   OH229801   3.256   2.839   1.859  0.4171  0.1548  0.4231
 1869TIP3    H129802   3.268   2.757   1.906  0.1170  1.1223  2.2863
 1869TIP3    H229803   3.318   2.900   1.900  1.1810  0.7063 -1.4199
 1870TIP3   OH229804   2.738   3.545   2.959 -0.1510 -0.1165 -0.3202
 1870TIP3    H129805   2.810   3.487   2.934  0.7965  0.4596  0.9579
 1870TIP3    H229806   2.781   3.629   2.978 -1.3545  0.6821 -0.9975
 1871TIP3   OH229807   2.097   4.875   1.783 -0.4824 -0.0896  0.1596
 1871TIP3    H129808   2.030   4.810   1.761 -2.2768  2.0128 -0.8590
 1871TIP3    H229809   2.131   4.903   1.698 -1.4837  2.0224  0.3978
 1872TIP3   OH229810   0.024   5.800   1.564  0.3303  0.0307  0.7305
 1872TIP3    H129811  -0.025   5.859   1.620 -0.2731 -0.5590  0.8278
 1872TIP3    H229812   0.040   5.850   1.484  2.7941  1.5625  2.0519
 1873TIP3   OH229813   5.773   0.660   2.338  0.1867 -0.6508  1.4159
 1873TIP3    H129814   5.763   0.610   2.256  1.1242  0.7725  0.3921
 1873TIP3    H229815   5.683   0.673   2.369 -0.4711  1.2463 -0.9754
 1874TIP3   OH229816   4.675   1.049   8.684  0.0388  0.1384  0.0602
 1874TIP3    H129817   4.623   1.016   8.759  1.5135 -0.4785  0.8564
 1874TIP3    H229818   4.635   1.006   8.608 -0.7402 -0.1746  0.6210
 1875TIP3   OH229819   0.606   5.604   8.445 -0.3386  0.1948 -0.0657
 1875TIP3    H129820   0.591   5.519   8.485 -1.0101  0.6210  0.6149
 1875TIP3    H229821   0.540   5.609   8.375  0.2447 -0.1732 -0.6625
 1876TIP3   OH229822   1.156   0.786   0.889  0.4016  0.3388  0.1004
 1876TIP3    H129823   1.151   0.693   0.911 -0.3027  0.0821 -1.0298
 1876TIP3    H229824   1.066   0.818   0.900  0.0139  0.2100 -2.1338
 1877TIP3   OH229825   7.448   5.291   8.260 -0.0683  0.1540 -0.0647
 1877TIP3    H129826   7.445   5.362   8.197 -0.8602  0.7342  0.6064
 1877TIP3    H229827   7.475   5.332   8.342  0.2852 -0.4697  0.1463
 1878TIP3   OH229828   4.440   5.625   1.621  0.2243  0.1108  0.0226
 1878TIP3    H129829   4.398   5.705   1.652  0.9610  1.0327 -1.2496
 1878TIP3    H229830   4.506   5.605   1.687  0.3489  0.8214  0.1201
 1879TIP3   OH229831   1.569   3.396   1.784  0.5244  0.2516 -0.2441
 1879TIP3    H129832   1.658   3.373   1.810  0.2757 -1.2356 -0.6329
 1879TIP3    H229833   1.578   3.477   1.734  1.9860 -1.2171 -2.4794
 1880TIP3   OH229834   5.057   5.890   2.383  1.1058 -0.6235 -0.1021
 1880TIP3    H129835   5.003   5.831   2.437  0.8074  0.5623  0.9463
 1880TIP3    H229836   5.008   5.899   2.302 -0.4902  0.6756  0.9450
 1881TIP3   OH229837   6.299   1.202   9.463 -0.1563 -0.0796  0.0863
 1881TIP3    H129838   6.245   1.127   9.439 -0.9717  0.7561 -0.8233
 1881TIP3    H229839   6.262   1.275   9.412  1.3684  0.6807  0.0028
 1882TIP3   OH229840   0.941   1.812   9.050 -0.1782  0.2135 -0.0245
 1882TIP3    H129841   0.870   1.869   9.020 -1.5164 -1.6617 -0.6419
 1882TIP3    H229842   0.964   1.846   9.136 -2.0619  0.7029  0.3336
 1883TIP3   OH229843   4.326   5.113   2.678 -0.8355  0.0671  0.3494
 1883TIP3    H129844   4.392   5.072   2.622 -0.2484  1.3378  0.0505
 1883TIP3    H229845   4.329   5.064   2.760  0.1436 -0.2077  0.1603
 1884TIP3   OH229846   2.625   6.915   7.932 -0.3997  0.7403  0.0232
 1884TIP3    H129847   2.572   6.938   7.856 -0.8468  1.0790  0.4344
 1884TIP3    H229848   2.688   6.851   7.899 -1.6786 -0.4107 -0.2708
 1885TIP3   OH229849   6.592   5.298   9.745  0.3216  0.5783 -0.6199
 1885TIP3    H129850   6.518   5.356   9.763  0.8152  1.1618 -0.4341
 1885TIP3    H229851   6.553   5.211   9.739  0.1230  0.0141  4.4286
 1886TIP3   OH229852   6.841   0.919   9.595  0.0239 -0.0827 -0.5041
 1886TIP3    H129853   6.881   0.835   9.573  2.4633  0.5628  1.1047
 1886TIP3    H229854   6.900   0.984   9.558  0.6624  0.9211  2.0745
 1887TIP3   OH229855   5.200   5.906   9.567  0.1321  0.5860  0.4099
 1887TIP3    H129856   5.216   6.001   9.567  0.8077  0.5153 -1.5407
 1887TIP3    H229857   5.166   5.887   9.480  0.1119 -0.9964  0.7272
 1888TIP3   OH229858   0.360   0.077   1.687  0.3108 -0.1747  0.6451
 1888TIP3    H129859   0.266   0.058   1.697 -0.1241  1.6491  0.3528
 1888TIP3    H229860   0.403  -0.006   1.708 -1.4562 -1.8970 -1.9426
 1889TIP3   OH229861   1.095   2.926   9.498 -0.2869  0.6805  0.1307
 1889TIP3    H129862   1.152   2.881   9.436  0.6978  0.5848  1.0604
 1889TIP3    H229863   1.021   2.957   9.446  1.5298  2.5127 -1.5353
 1890TIP3   OH229864   7.121   6.126   1.951  0.3705 -0.0571  0.2745
 1890TIP3    H129865   7.210   6.152   1.977  0.2885  0.8982 -0.3403
 1890TIP3    H229866   7.064   6.186   1.998  0.0447 -0.5954  0.5756
 1891TIP3   OH229867   6.630   6.973   2.354  0.4896  0.4927  0.6339
 1891TIP3    H129868   6.662   6.882   2.358  3.5147  1.4664  1.6804
 1891TIP3    H229869   6.698   7.023   2.399  0.1201  3.6032 -1.9474
 1892TIP3   OH229870   5.925   3.666   0.064  0.5639  0.1346 -0.3149
 1892TIP3    H129871   5.976   3.714  -0.002 -0.5793 -0.5471 -1.7638
 1892TIP3    H229872   5.920   3.576   0.029 -2.3600  0.3741 -0.7398
 1893TIP3   OH229873   0.995   6.918   8.309  0.4958  0.1793  0.0196
 1893TIP3    H129874   1.035   6.983   8.367  0.3115  0.0992  0.2395
 1893TIP3    H229875   0.988   6.839   8.363 -1.1643  0.5540  0.4198
 1894TIP3   OH229876   3.646   2.549   1.124  0.7235 -0.4041 -0.0585
 1894TIP3    H129877   3.555   2.575   1.138  0.1262 -1.6856 -1.2742
 1894TIP3    H229878   3.695   2.632   1.124 -1.0363  0.8497 -3.3724
 1895TIP3   OH229879   1.125   4.573   1.660  0.1405 -0.8478  0.7161
 1895TIP3    H129880   1.045   4.623   1.675 -0.3680 -1.3173 -0.3429
 1895TIP3    H229881   1.185   4.636   1.618 -0.0330 -0.7744  0.5783
 1896TIP3   OH229882   6.450   5.427   9.241  0.2924 -0.1706  0.7280
 1896TIP3    H129883   6.511   5.455   9.172 -0.2783  0.4294  0.4567
 1896TIP3    H229884   6.364   5.456   9.210  0.0292  0.1317  1.7056
 1897TIP3   OH229885   0.061   2.577   1.227  0.3025 -0.1125  0.9214
 1897TIP3    H129886   0.002   2.643   1.263  1.2266  0.3342  1.6524
 1897TIP3    H229887   0.071   2.600   1.135  0.4006  0.6015  1.1088
 1898TIP3   OH229888   5.395   5.222   9.724  0.3478  0.0575 -0.3419
 1898TIP3    H129889   5.383   5.298   9.667  2.8853  0.4103 -0.5421
 1898TIP3    H229890   5.310   5.178   9.724 -1.2264  2.8447 -0.2440
 1899TIP3   OH229891   2.067   3.892   7.404 -0.7238  0.2499 -0.5054
 1899TIP3    H129892   2.045   3.965   7.347  0.7201  2.2337  1.3231
 1899TIP3    H229893   2.034   3.917   7.490  2.7741  0.4992  0.9540
 1900TIP3   OH229894   2.964   5.252   9.146  0.3097  0.2195 -0.0515
 1900TIP3    H129895   2.920   5.169   9.164  1.8380 -0.7984 -0.7843
 1900TIP3    H229896   3.020   5.266   9.223  1.1994 -0.2482 -0.5960
 1901TIP3   OH229897   0.710   4.350   8.527  0.1543  0.0176  0.0327
 1901TIP3    H129898   0.689   4.337   8.619  1.0024  1.5606  0.4960
 1901TIP3    H229899   0.805   4.359   8.526  0.0837  0.8545 -0.8498
 1902TIP3   OH229900   2.797   7.497   0.364 -0.7654 -0.4403  0.1787
 1902TIP3    H129901   2.794   7.542   0.280 -2.3506 -0.1466  0.3505
 1902TIP3    H229902   2.772   7.407   0.344 -2.3585 -0.0918  0.4631
 1903TIP3   OH229903   2.624   1.024   1.741  0.1898  0.1289  0.2727
 1903TIP3    H129904   2.546   0.971   1.757 -2.0302  2.9369 -0.2941
 1903TIP3    H229905   2.621   1.092   1.809  0.9776  1.4798 -0.9820
 1904TIP3   OH229906   4.131   3.992   9.680  0.3213 -0.1206 -0.2172
 1904TIP3    H129907   4.135   3.985   9.585 -1.4737 -1.2917 -0.2623
 1904TIP3    H229908   4.206   3.942   9.712 -0.3319 -1.7009 -1.0217
 1905TIP3   OH229909   4.686   2.417   1.366 -0.0194  0.3462 -0.1476
 1905TIP3    H129910   4.591   2.411   1.378 -0.2316  2.0609 -0.6960
 1905TIP3    H229911   4.699   2.501   1.322  1.8355  0.5785  0.7609
 1906TIP3   OH229912   2.697   3.885   2.745 -0.0549 -0.0372 -0.4942
 1906TIP3    H129913   2.618   3.848   2.706  0.5656 -0.5411 -1.3092
 1906TIP3    H229914   2.709   3.969   2.702 -0.8745  0.6543  0.5925
 1907TIP3   OH229915   1.783   4.184   7.626  0.5486  0.0877  0.0697
 1907TIP3    H129916   1.808   4.259   7.680 -0.4655  0.2063  0.3993
 1907TIP3    H229917   1.699   4.210   7.587  0.4954 -0.6291 -0.3073
 1908TIP3   OH229918   2.825   0.123   1.580 -0.0474 -0.5826 -0.0929
 1908TIP3    H129919   2.775   0.194   1.539 -0.5228 -0.0730  1.3173
 1908TIP3    H229920   2.758   0.063   1.613  0.2872 -0.3726  0.9855
 1909TIP3   OH229921   2.871   1.591   8.592 -0.1452 -0.2417  0.0984
 1909TIP3    H129922   2.839   1.601   8.503 -0.6211 -0.3860  0.2467
 1909TIP3    H229923   2.940   1.656   8.601  0.1612 -0.4803 -0.4931
 1910TIP3   OH229924   0.583   4.189   9.947  0.5949 -0.1421  0.5303
 1910TIP3    H129925   0.519   4.248   9.906 -0.2410 -0.7686  0.8939
 1910TIP3    H229926   0.628   4.244  10.011 -0.7722 -0.0707  1.4829
 1911TIP3   OH229927   4.529   0.135   0.515 -0.2119 -0.3942 -0.0010
 1911TIP3    H129928   4.552   0.080   0.441 -0.7598 -1.4635  0.5927
 1911TIP3    H229929   4.456   0.189   0.483  1.2867  1.1066 -1.0479
 1912TIP3   OH229930   3.170   6.233   7.653  0.3017 -0.5915 -0.2394
 1912TIP3    H129931   3.249   6.279   7.625 -0.1530 -0.0418 -0.6311
 1912TIP3    H229932   3.127   6.207   7.571 -0.5004  0.0963 -0.0436
 1913TIP3   OH229933   2.567   1.368   3.070 -0.0490 -0.0559  0.9810
 1913TIP3    H129934   2.544   1.436   3.006 -1.5323 -0.5708  0.9301
 1913TIP3    H229935   2.658   1.346   3.050 -0.3136  0.1765 -0.5931
 1914TIP3   OH229936   6.001   6.026   8.704 -0.4653  0.1997 -0.4336
 1914TIP3    H129937   5.932   6.034   8.638 -0.9376 -2.4490 -0.3505
 1914TIP3    H229938   6.080   6.010   8.653 -0.7640 -1.4540 -0.4333
 1915TIP3   OH229939   2.288   6.969   0.549  0.1380 -0.2501  0.0881
 1915TIP3    H129940   2.231   7.033   0.591  0.3832 -0.0068  0.0559
 1915TIP3    H229941   2.229   6.914   0.498  0.0533  0.9635 -1.2131
 1916TIP3   OH229942   1.430   0.162   7.573  0.0169  0.0388 -0.3121
 1916TIP3    H129943   1.365   0.120   7.517  0.4540 -1.1263  0.0272
 1916TIP3    H229944   1.432   0.253   7.543 -0.7934 -0.2188 -1.2116
 1917TIP3   OH229945   0.516   5.264   1.238 -0.0059 -0.1821 -0.0592
 1917TIP3    H129946   0.602   5.258   1.198  0.4390 -0.5309  0.9203
 1917TIP3    H229947   0.468   5.189   1.204  0.9888 -1.5698  1.4685
 1918TIP3   OH229948   2.864   1.793   8.334  0.5262 -0.3977 -0.1723
 1918TIP3    H129949   2.888   1.836   8.252  1.3830 -2.0278 -0.8312
 1918TIP3    H229950   2.815   1.716   8.306 -0.7215 -0.0281  0.9487
 1919TIP3   OH229951   2.083   0.069   1.586  0.5268 -0.0784  0.0563
 1919TIP3    H129952   2.078   0.158   1.622  1.1743  0.1717 -0.4432
 1919TIP3    H229953   2.001   0.058   1.538  1.3980  1.1423 -1.8347
 1920TIP3   OH229954   0.632   5.064   7.365 -0.1737 -0.3461  0.0791
 1920TIP3    H129955   0.652   5.126   7.294 -1.9825 -0.7736 -0.8691
 1920TIP3    H229956   0.696   4.994   7.354 -0.9192 -0.8053 -1.6979
 1921TIP3   OH229957   3.692   3.456   9.147 -0.3201  0.0148 -0.5486
 1921TIP3    H129958   3.657   3.383   9.096 -0.1819  0.5810 -1.4693
 1921TIP3    H229959   3.618   3.515   9.160  0.0648  0.8026 -1.7717
 1922TIP3   OH229960   5.064   6.310   0.526 -0.3672  0.1604 -0.1759
 1922TIP3    H129961   5.157   6.326   0.538 -0.3143  0.6784 -1.1165
 1922TIP3    H229962   5.058   6.216   0.505  0.0564  0.3225 -1.0621
 1923TIP3   OH229963   6.747   5.188   9.197  0.6344  0.1258  0.5114
 1923TIP3    H129964   6.652   5.174   9.196  0.9391 -2.7759  1.8775
 1923TIP3    H229965   6.760   5.259   9.259 -0.6257  0.6665  0.1973
 1924TIP3   OH229966   4.766   0.503   7.490  0.4926 -0.2075 -0.6303
 1924TIP3    H129967   4.828   0.442   7.529  0.0099  0.0135  0.5236
 1924TIP3    H229968   4.772   0.487   7.395  0.7621 -1.6412 -0.3855
 1925TIP3   OH229969   1.844   0.146   1.436 -0.3087 -0.1556  0.0272
 1925TIP3    H129970   1.758   0.125   1.399 -0.2487 -1.0136  0.3702
 1925TIP3    H229971   1.827   0.220   1.495 -0.4170  1.2223 -1.6266
 1926TIP3   OH229972   1.786   6.898   2.594 -0.7195  0.7228  0.1378
 1926TIP3    H129973   1.744   6.956   2.657  1.4857  1.6046  0.9200
 1926TIP3    H229974   1.826   6.829   2.648 -1.4610 -0.3223 -0.6025
 1927TIP3   OH229975   6.879   1.543   0.478 -0.3428 -0.0706  0.5671
 1927TIP3    H129976   6.807   1.484   0.499 -2.9786  2.5787 -0.3354
 1927TIP3    H229977   6.877   1.550   0.382  1.7991 -0.6191  0.4235
 1928TIP3   OH229978   5.904   4.575   0.599  0.5052 -0.3779  0.0379
 1928TIP3    H129979   5.914   4.567   0.504  0.2586 -1.6531  0.0976
 1928TIP3    H229980   5.989   4.546   0.634 -0.7401 -4.2879  0.3041
 1929TIP3   OH229981   4.615   0.853   1.190 -0.3085 -0.1511  0.3310
 1929TIP3    H129982   4.686   0.909   1.161 -1.7017  1.0424 -0.9379
 1929TIP3    H229983   4.541   0.875   1.133 -1.9716 -0.6933  2.1231
 1930TIP3   OH229984   6.904   3.900   8.586  0.2156  0.5080  0.1144
 1930TIP3    H129985   6.872   3.963   8.522  0.8792  1.6822  0.9143
 1930TIP3    H229986   6.994   3.882   8.559 -0.5548 -1.7134 -1.3037
 1931TIP3   OH229987   0.085   1.811   8.646 -0.0333  0.6390 -0.0961
 1931TIP3    H129988   0.086   1.761   8.728  2.0029 -0.0869 -0.5105
 1931TIP3    H229989   0.087   1.903   8.674 -0.3390  0.4233  0.6596
 1932TIP3   OH229990   0.212   2.189   8.379  0.1134 -0.1432  0.6376
 1932TIP3    H129991   0.175   2.269   8.416 -1.7666 -0.7495  0.1645
 1932TIP3    H229992   0.285   2.219   8.326  0.0593  1.1627  1.2579
 1933TIP3   OH229993   4.651   1.477   0.329 -0.7676  0.5049 -0.8618
 1933TIP3    H129994   4.642   1.561   0.285  0.4249 -0.0010 -2.1380
 1933TIP3    H229995   4.713   1.494   0.400 -1.1151  0.8490 -0.6292
 1934TIP3   OH229996   3.463   6.933   7.134 -0.1724  1.0035  0.2258
 1934TIP3    H129997   3.558   6.944   7.140 -0.2505  1.6484  0.3958
 1934TIP3    H229998   3.433   7.012   7.088 -0.6485  0.9179  0.3872
 1935TIP3   OH229999   0.719   0.447   7.352 -0.1334 -0.2723 -0.1181
 1935TIP3    H130000   0.690   0.388   7.282 -2.3765  0.9672 -0.3572
 1935TIP3    H230001   0.812   0.430   7.361 -0.3833 -2.6747 -1.2686
 1936TIP3   OH230002   3.260   3.790   1.212 -0.2772  0.4833  0.4651
 1936TIP3    H130003   3.254   3.742   1.129 -0.5714  0.7522  0.3298
 1936TIP3    H230004   3.170   3.812   1.233 -0.0639  1.9343 -0.0419
 1937TIP3   OH230005   0.953   2.945   7.344 -0.6238  0.4403 -0.3113
 1937TIP3    H130006   0.990   2.858   7.361  0.7744  0.9828 -0.4377
 1937TIP3    H230007   0.899   2.964   7.420 -0.7357 -0.4295 -0.1631
 1938TIP3   OH230008   7.420   2.832   0.691 -0.1453 -0.3400  0.0969
 1938TIP3    H130009   7.394   2.872   0.608 -0.9833  0.2887  0.6377
 1938TIP3    H230010   7.393   2.896   0.757  0.3208 -0.9229  0.8662
 1939TIP3   OH230011   3.248   2.418   1.939  0.1874  0.0016 -0.0113
 1939TIP3    H130012   3.285   2.505   1.952  0.8686 -0.4015  0.8281
 1939TIP3    H230013   3.156   2.427   1.963  0.8126 -0.1047  2.7671
 1940TIP3   OH230014   1.946   4.914   1.193 -0.0795 -0.5872 -0.0450
 1940TIP3    H130015   2.032   4.890   1.157  0.9116  1.4063  0.8145
 1940TIP3    H230016   1.935   4.858   1.269 -0.0207 -1.5507 -0.7263
 1941TIP3   OH230017   3.604   6.148   0.628  0.0835 -0.0325  0.3182
 1941TIP3    H130018   3.620   6.074   0.569  1.6718  0.5735 -0.0578
 1941TIP3    H230019   3.691   6.185   0.644 -0.7310  2.2689 -0.1785
 1942TIP3   OH230020   1.363   5.050   0.418 -0.2482 -0.3338  0.2420
 1942TIP3    H130021   1.351   5.073   0.510  2.5768 -1.9863  1.1426
 1942TIP3    H230022   1.316   4.967   0.408  1.0608 -1.1643  0.7746
 1943TIP3   OH230023   3.218   1.333   0.238 -0.0624  0.2927  0.5228
 1943TIP3    H130024   3.285   1.321   0.306  0.9582  1.0129 -0.3275
 1943TIP3    H230025   3.245   1.412   0.191 -1.1403  0.2083 -0.2825
 1944TIP3   OH230026   3.997   2.237   2.084  0.3335  0.0109  0.1301
 1944TIP3    H130027   3.995   2.296   2.159 -1.4633  1.6644 -1.1274
 1944TIP3    H230028   3.984   2.150   2.121 -0.1994  0.7545  1.7450
 1945TIP3   OH230029   2.828   1.384   7.937 -0.3094 -0.0911  0.2152
 1945TIP3    H130030   2.886   1.364   8.010 -0.4133 -1.8365 -0.1477
 1945TIP3    H230031   2.809   1.299   7.897 -2.9514  0.4270  0.1910
 1946TIP3   OH230032   6.568   4.594   1.533  0.2939  0.4538 -0.4088
 1946TIP3    H130033   6.506   4.658   1.568  0.9119  1.3341 -0.9068
 1946TIP3    H230034   6.614   4.561   1.610 -1.2767 -0.7675  0.0644
 1947TIP3   OH230035   0.542   3.923   7.878  0.8166 -0.2270  0.1302
 1947TIP3    H130036   0.538   3.862   7.805  0.0734 -0.0734  0.0354
 1947TIP3    H230037   0.525   4.009   7.839  0.6306 -0.1172  0.4441
 1948TIP3   OH230038   5.480   6.548   9.329 -0.8632  0.2513 -0.8290
 1948TIP3    H130039   5.456   6.459   9.354 -0.1542  0.4090  0.4994
 1948TIP3    H230040   5.487   6.595   9.413  3.2828  0.3983 -1.0970
 1949TIP3   OH230041   5.552   2.468   8.132 -0.3009  0.0868  0.3097
 1949TIP3    H130042   5.629   2.458   8.076 -0.4914 -0.0470  0.0716
 1949TIP3    H230043   5.478   2.468   8.071 -0.6124 -1.3891  0.6446
 1950TIP3   OH230044   1.618   1.138   9.925 -0.2072 -0.0715 -0.6379
 1950TIP3    H130045   1.692   1.078   9.912 -0.0739 -0.3445  1.1585
 1950TIP3    H230046   1.652   1.224   9.901  0.4173 -0.3297 -0.6970
 1951TIP3   OH230047   3.581   6.860   7.528 -0.2598 -0.7604 -0.3876
 1951TIP3    H130048   3.581   6.790   7.593  2.4440 -0.8016 -0.3246
 1951TIP3    H230049   3.588   6.941   7.579 -0.9886 -0.5802 -0.5554
 1952TIP3   OH230050   2.437   0.770   7.955  0.5701  0.1149 -0.1140
 1952TIP3    H130051   2.376   0.743   8.024 -1.6824 -0.1345 -2.0680
 1952TIP3    H230052   2.421   0.864   7.945  0.2045 -0.0166 -0.8603
 1953TIP3   OH230053   4.141   7.095   0.855 -0.0390 -0.1162 -0.2068
 1953TIP3    H130054   4.231   7.090   0.888  0.1371  0.0989 -0.6422
 1953TIP3    H230055   4.139   7.034   0.782  0.2274  1.0875 -1.2520
 1954TIP3   OH230056   4.486   2.741   7.830 -0.0295 -0.0577 -0.0689
 1954TIP3    H130057   4.409   2.696   7.864 -0.3797 -1.0972 -2.0682
 1954TIP3    H230058   4.519   2.683   7.761  0.7104  1.8281 -1.3832
 1955TIP3   OH230059   1.731   1.538   2.426  0.2352  0.0593 -0.0833
 1955TIP3    H130060   1.691   1.537   2.512  0.3503 -0.6795 -0.0342
 1955TIP3    H230061   1.679   1.477   2.374  2.9536 -3.2639  0.7636
 1956TIP3   OH230062   7.167   1.374   8.417 -0.3184  0.5222 -0.5489
 1956TIP3    H130063   7.195   1.462   8.395  0.6322  0.2959 -0.3131
 1956TIP3    H230064   7.247   1.330   8.445 -0.7284 -0.4993 -0.9333
 1957TIP3   OH230065   7.550   0.049   8.839 -0.2061  0.0772  0.1290
 1957TIP3    H130066   7.576   0.141   8.842 -2.0532  0.6955 -1.1307
 1957TIP3    H230067   7.476   0.043   8.900 -1.7617  0.0817 -1.6598
 1958TIP3   OH230068   2.384   6.351   7.537  0.1902 -0.2752  0.8888
 1958TIP3    H130069   2.292   6.373   7.547  0.4434  1.7827 -0.6017
 1958TIP3    H230070   2.418   6.346   7.626 -1.0115  0.6219  1.4245
 1959TIP3   OH230071   3.091   1.417   9.801  0.0430 -0.0887  0.0696
 1959TIP3    H130072   3.061   1.502   9.832 -0.9441 -0.3457 -0.1429
 1959TIP3    H230073   3.060   1.355   9.867  2.6559 -0.1103  1.4150
 1960TIP3   OH230074   1.520   5.942   8.217  0.4807 -0.1315 -0.1689
 1960TIP3    H130075   1.545   5.893   8.295  2.9183 -0.1099 -0.8327
 1960TIP3    H230076   1.425   5.946   8.219  0.3096 -2.8939  1.1151
 1961TIP3   OH230077   6.662   6.088   9.176 -0.0544 -0.1393  0.1573
 1961TIP3    H130078   6.704   6.133   9.103 -0.1393 -0.6199 -0.1974
 1961TIP3    H230079   6.734   6.055   9.229  0.1390 -2.6859 -1.5015
 1962TIP3   OH230080   1.139   3.557   1.295 -0.3084  0.3069  0.2462
 1962TIP3    H130081   1.151   3.620   1.223 -0.3652  0.1595  0.1083
 1962TIP3    H230082   1.046   3.560   1.315 -0.1941  0.7988  0.7256
 1963TIP3   OH230083   7.297   2.717   0.158 -0.2245 -1.0963 -0.5027
 1963TIP3    H130084   7.218   2.665   0.145 -3.0818  2.5068  0.6305
 1963TIP3    H230085   7.295   2.783   0.088  1.2167 -0.2889  0.1474
 1964TIP3   OH230086   1.095   5.001   7.498  0.3436  0.4379 -0.1579
 1964TIP3    H130087   1.190   4.989   7.508  0.3168  0.5837  0.2639
 1964TIP3    H230088   1.082   5.095   7.502  0.2604  0.4655 -0.9507
 1965TIP3   OH230089   7.527   0.695   8.967  0.3910  0.3530  0.8510
 1965TIP3    H130090   7.579   0.704   8.887 -2.3616 -1.5965 -1.3748
 1965TIP3    H230091   7.445   0.742   8.948 -0.6811 -0.8831  2.1399
 1966TIP3   OH230092   2.656   0.704   7.175 -0.0222 -0.1203 -0.1471
 1966TIP3    H130093   2.734   0.723   7.123  1.4805 -0.1648  1.9612
 1966TIP3    H230094   2.604   0.645   7.120  1.3084  0.0931 -1.7067
 1967TIP3   OH230095   5.315   5.838   8.099  0.2595 -0.2870  0.2055
 1967TIP3    H130096   5.362   5.769   8.052  0.9116 -0.8745  1.6720
 1967TIP3    H230097   5.284   5.796   8.179 -0.3678  0.8252  0.5696
 1968TIP3   OH230098   2.844   0.892   7.035 -0.0005  0.0980  0.2737
 1968TIP3    H130099   2.931   0.926   7.059  0.7585 -0.1774 -1.8429
 1968TIP3    H230100   2.791   0.970   7.018 -0.1184  0.2656  1.3740
 1969TIP3   OH230101   2.956   6.554   2.813 -0.3027 -0.3479 -0.5222
 1969TIP3    H130102   3.017   6.627   2.828  0.9451 -1.3368 -0.5882
 1969TIP3    H230103   3.010   6.486   2.773 -1.4024 -1.3749 -0.3162
 1970TIP3   OH230104   2.076   6.404   0.946  0.3804  0.3297 -0.9601
 1970TIP3    H130105   2.141   6.473   0.933 -0.3684  1.5295  1.0798
 1970TIP3    H230106   2.097   6.366   1.032 -1.3579  0.5386 -0.3900
 1971TIP3   OH230107   4.326   0.275   2.076  0.6028  0.0284 -0.2918
 1971TIP3    H130108   4.339   0.349   2.016 -0.8683  0.1948 -0.4427
 1971TIP3    H230109   4.367   0.201   2.032  2.5853  0.8218  0.1047
 1972TIP3   OH230110   5.893   6.029   0.590  0.0926  0.1776  0.1693
 1972TIP3    H130111   5.988   6.013   0.585 -0.1244 -1.3797  0.7503
 1972TIP3    H230112   5.886   6.104   0.650  0.8957 -0.6696  1.3804
 1973TIP3   OH230113   4.052   7.526   0.916  0.1729  0.1948 -0.4113
 1973TIP3    H130114   4.141   7.533   0.951  0.3621 -1.0966 -0.6077
 1973TIP3    H230115   4.056   7.455   0.853 -0.4448  1.7022 -2.2472
 1974TIP3   OH230116   7.191   3.454   2.453 -0.7184  0.3308 -0.0129
 1974TIP3    H130117   7.262   3.391   2.444  0.6751  1.8832 -0.2444
 1974TIP3    H230118   7.124   3.423   2.392  1.6453  1.2974 -3.4244
 1975TIP3   OH230119   1.910   0.887   1.721 -0.7301  0.4412  0.2289
 1975TIP3    H130120   1.857   0.896   1.800 -1.6712  1.3088 -0.4778
 1975TIP3    H230121   1.944   0.975   1.704  2.5639 -0.3726  1.6889
 1976TIP3   OH230122   6.330   0.487   2.072  0.5285  0.4324 -0.3413
 1976TIP3    H130123   6.366   0.402   2.096  1.2201 -0.0445 -2.8169
 1976TIP3    H230124   6.374   0.549   2.130  1.1006 -0.7351  0.5123
 1977TIP3   OH230125   2.387   5.695   8.954 -0.0934 -0.3498  0.2120
 1977TIP3    H130126   2.378   5.781   8.914 -3.9159 -1.5282 -1.8765
 1977TIP3    H230127   2.403   5.635   8.881  0.2664 -1.7063  1.3507
 1978TIP3   OH230128   5.652   4.178   2.402  0.1654 -0.4779 -0.0867
 1978TIP3    H130129   5.619   4.260   2.365 -2.1405 -1.1051  0.3754
 1978TIP3    H230130   5.595   4.161   2.477  1.0507 -2.1338  0.2662
 1979TIP3   OH230131   5.038   3.076   0.123 -0.5785  0.0721  0.3754
 1979TIP3    H130132   4.957   3.113   0.158 -0.4063  0.7289  0.1125
 1979TIP3    H230133   5.074   3.146   0.069  0.7568  0.2200  1.3986
 1980TIP3   OH230134   3.889   0.421   1.978 -0.1524 -0.0485  0.2185
 1980TIP3    H130135   3.810   0.403   1.927  0.3328 -1.2712 -0.1271
 1980TIP3    H230136   3.874   0.509   2.015 -0.6964  0.6808 -1.6374
 1981TIP3   OH230137   5.822   0.560   0.008 -0.0604 -0.6749  0.8540
 1981TIP3    H130138   5.864   0.601  -0.068 -0.2534  2.5419  2.3038
 1981TIP3    H230139   5.857   0.471   0.011  1.8714 -0.0904 -1.5121
 1982TIP3   OH230140   2.158   5.169   9.201  0.1227 -0.1108  0.1326
 1982TIP3    H130141   2.085   5.125   9.157  0.1026  0.3976 -0.3562
 1982TIP3    H230142   2.181   5.111   9.274 -1.5245  0.2715  1.0047
 1983TIP3   OH230143   0.449   4.724   9.652  0.4051 -0.1288 -0.2888
 1983TIP3    H130144   0.539   4.750   9.634  1.0712 -1.3718  1.0788
 1983TIP3    H230145   0.438   4.640   9.606  1.2457 -1.9350  2.5371
 1984TIP3   OH230146   1.680   5.887   7.710 -0.0410  0.4900  0.7160
 1984TIP3    H130147   1.649   5.872   7.800 -0.7891 -0.3144  0.3275
 1984TIP3    H230148   1.769   5.853   7.710 -0.3199 -0.2680  0.9422
 1985TIP3   OH230149   7.305   6.837   2.321  0.3791 -0.3072 -0.0168
 1985TIP3    H130150   7.232   6.886   2.283 -1.0783 -1.5723  1.0385
 1985TIP3    H230151   7.368   6.905   2.347  0.3785  0.7100 -2.4546
 1986TIP3   OH230152   2.210   1.219   3.179 -0.6522 -0.3612 -0.0518
 1986TIP3    H130153   2.297   1.178   3.187 -1.0803 -1.2246  0.3666
 1986TIP3    H230154   2.150   1.153   3.214 -1.2489  1.1945  2.0334
 1987TIP3   OH230155   5.333   2.822   2.537 -0.4260 -0.4855 -0.2665
 1987TIP3    H130156   5.263   2.874   2.576  0.9417  1.7445 -0.5891
 1987TIP3    H230157   5.322   2.734   2.573 -1.3050  0.6301  2.3988
 1988TIP3   OH230158   6.215   2.544   8.311  0.0437  0.0466  0.1863
 1988TIP3    H130159   6.235   2.606   8.381  1.6908  0.7033 -0.8214
 1988TIP3    H230160   6.290   2.485   8.308 -1.0916 -1.4820  0.5278
 1989TIP3   OH230161   4.056   1.075   0.800  0.4972 -0.4059  0.2014
 1989TIP3    H130162   4.067   1.010   0.869  0.8861  0.8796  1.4007
 1989TIP3    H230163   3.966   1.107   0.810  0.7547  0.2287  0.5250
 1990TIP3   OH230164   0.531   3.603   1.315  0.1400 -0.6227 -0.3588
 1990TIP3    H130165   0.523   3.670   1.383 -2.0561 -1.1042 -0.0541
 1990TIP3    H230166   0.555   3.651   1.236  1.4540  0.1090  0.4530
 1991TIP3   OH230167   4.757   4.006   1.958 -0.6377 -0.3224 -0.6380
 1991TIP3    H130168   4.820   4.062   1.912 -0.3294 -0.0434  0.1031
 1991TIP3    H230169   4.809   3.963   2.026 -1.0696 -0.7854 -0.5982
 1992TIP3   OH230170   7.265   2.000   2.544 -0.5327 -0.4273  0.9838
 1992TIP3    H130171   7.258   2.067   2.476 -0.4535 -0.6209  0.7824
 1992TIP3    H230172   7.220   2.037   2.620 -1.2652 -0.5106  0.5961
 1993TIP3   OH230173   2.794   6.233   7.825 -0.2973  0.7226  0.2621
 1993TIP3    H130174   2.762   6.311   7.779 -2.5721 -0.9446 -1.1617
 1993TIP3    H230175   2.718   6.201   7.873  0.4808 -0.8362  0.5107
 1994TIP3   OH230176   2.395   1.194   2.897  0.0502  0.2657  0.1358
 1994TIP3    H130177   2.466   1.239   2.941  0.4457 -1.1031  0.9761
 1994TIP3    H230178   2.437   1.121   2.851 -0.6622  0.1740 -0.3904
 1995TIP3   OH230179   7.671   3.043   8.839 -0.5662  0.3407  0.6481
 1995TIP3    H130180   7.636   3.004   8.919  1.2166  0.3902  1.5111
 1995TIP3    H230181   7.736   2.980   8.808 -1.0668  0.4302 -0.6714
 1996TIP3   OH230182   4.985   4.147   2.798  0.4961  0.2668  0.3905
 1996TIP3    H130183   4.980   4.242   2.796  0.8695  0.2908  0.7904
 1996TIP3    H230184   4.893   4.119   2.805  0.3580  0.5826 -0.0695
 1997TIP3   OH230185   2.182   5.648   8.061  0.4594 -0.0599 -0.4447
 1997TIP3    H130186   2.121   5.683   8.125  2.0698  0.2655  0.9887
 1997TIP3    H230187   2.213   5.724   8.012  1.7263  0.1790  0.6741
 1998TIP3   OH230188   2.115   3.763   8.100 -0.2818  0.5552 -0.4071
 1998TIP3    H130189   2.096   3.828   8.033 -0.8511 -0.2366 -1.0339
 1998TIP3    H230190   2.145   3.685   8.052  0.9972  0.5391  0.3604
 1999TIP3   OH230191   4.715   7.155   2.441  0.4893  0.6013 -0.1432
 1999TIP3    H130192   4.631   7.157   2.486  1.1752  0.0767  1.2485
 1999TIP3    H230193   4.762   7.231   2.475  0.0097  1.8626 -2.1667
 2000TIP3   OH230194   3.012   1.561   7.734 -0.0831 -0.0170 -0.0322
 2000TIP3    H130195   2.923   1.535   7.713 -0.1663  0.0488  0.2451
 2000TIP3    H230196   3.060   1.552   7.651 -0.0746 -1.1685  0.0830
 2001TIP3   OH230197   6.095   1.057   0.301  0.7355  0.2034  0.0723
 2001TIP3    H130198   6.011   1.099   0.282  0.4198  0.1606  1.3003
 2001TIP3    H230199   6.075   0.963   0.304  0.2034  0.3232  3.0664
 2002TIP3   OH230200   4.560   7.660   0.292  0.3759  0.5284 -0.5728
 2002TIP3    H130201   4.555   7.701   0.206  0.1871 -2.7138 -2.2401
 2002TIP3    H230202   4.637   7.603   0.287 -0.2110 -0.4677  1.0414
 2003TIP3   OH230203   6.413   1.189   9.090 -0.3578 -0.1352  0.0604
 2003TIP3    H130204   6.351   1.151   9.028 -0.4025  1.4842 -0.9176
 2003TIP3    H230205   6.365   1.258   9.134  0.4900  0.5590 -0.0747
 2004TIP3   OH230206   5.560   7.207   1.887 -0.2419 -0.1924 -0.1941
 2004TIP3    H130207   5.496   7.194   1.816 -0.3173  0.6226 -0.2776
 2004TIP3    H230208   5.547   7.297   1.915  1.6452  0.3704 -0.9735
 2005TIP3   OH230209   3.544   3.101   0.328  0.2722  0.1659 -0.1534
 2005TIP3    H130210   3.590   3.103   0.245 -0.2080 -0.3993 -0.4389
 2005TIP3    H230211   3.514   3.011   0.338 -2.6264  0.9166 -1.0402
 2006TIP3   OH230212   3.313   0.620   1.301 -0.1678  0.4233  0.1025
 2006TIP3    H130213   3.248   0.646   1.236 -0.6943 -0.6625  0.1670
 2006TIP3    H230214   3.380   0.573   1.252  0.3553  1.1414  0.1050
 2007TIP3   OH230215   6.956   0.512   9.260  0.0688  0.3519  1.2503
 2007TIP3    H130216   6.993   0.431   9.225 -0.9951 -0.2462  1.4990
 2007TIP3    H230217   6.880   0.529   9.205 -1.0787 -0.0950  2.6661
 2008TIP3   OH230218   7.520   2.028   9.762  0.5825  0.3397  0.4868
 2008TIP3    H130219   7.458   1.957   9.783  1.2473 -0.1463  0.8451
 2008TIP3    H230220   7.507   2.092   9.831 -0.3424  0.7967 -0.0837
 2009TIP3   OH230221   3.273   7.345   2.472  1.0457  0.3053  0.5305
 2009TIP3    H130222   3.240   7.419   2.523  0.7560  0.5671 -0.0266
 2009TIP3    H230223   3.199   7.320   2.416  1.2894 -0.1116  0.3920
 2010TIP3   OH230224   0.741   2.761   0.315 -0.7584  0.5341  0.3326
 2010TIP3    H130225   0.695   2.736   0.395 -1.5044  2.5875  0.6128
 2010TIP3    H230226   0.823   2.800   0.345 -0.9592  1.1495  0.0891
 2011TIP3   OH230227   7.289   1.344   8.884  0.0402  0.1248  0.2885
 2011TIP3    H130228   7.375   1.377   8.910  0.4631 -0.9467  0.3007
 2011TIP3    H230229   7.267   1.395   8.805  1.1925 -0.3339 -0.3598
 2012TIP3   OH230230   4.113   7.676   8.186 -0.2674  0.4290  0.3982
 2012TIP3    H130231   4.075   7.764   8.193 -1.6116 -0.0497 -0.4644
 2012TIP3    H230232   4.119   7.660   8.092  2.2930  0.5138  0.4722
 2013TIP3   OH230233   5.585   7.196   2.275 -0.6747  0.0872  0.5119
 2013TIP3    H130234   5.556   7.131   2.339 -0.7505 -1.0565 -0.6337
 2013TIP3    H230235   5.668   7.162   2.242 -0.5820  0.7076  0.0899
 2014TIP3   OH230236   0.078   4.738   7.856  0.2417 -0.2532 -0.4328
 2014TIP3    H130237   0.068   4.706   7.946  1.5802  0.5648  0.0401
 2014TIP3    H230238   0.136   4.675   7.814 -1.4278 -1.3719 -1.1685
 2015TIP3   OH230239   5.675   3.338   0.773 -0.0420  0.1102 -0.1434
 2015TIP3    H130240   5.590   3.298   0.793 -0.0075 -0.7827 -1.6291
 2015TIP3    H230241   5.654   3.422   0.733 -0.2321  0.0082 -0.2601
 2016TIP3   OH230242   5.173   0.911   0.903  0.0217 -0.1775  0.1978
 2016TIP3    H130243   5.186   0.829   0.951 -0.8163 -0.5811 -0.2466
 2016TIP3    H230244   5.245   0.967   0.932 -0.6656 -0.2522  2.2062
 2017TIP3   OH230245   3.866   1.427   1.495  0.2183 -0.4141  0.5209
 2017TIP3    H130246   3.785   1.438   1.445  0.3831 -0.9687  0.1265
 2017TIP3    H230247   3.913   1.357   1.450  1.7479  1.0807 -0.2956
 2018TIP3   OH230248   0.615   4.030   1.669 -0.1858  0.6312  0.0613
 2018TIP3    H130249   0.620   3.944   1.710 -1.8344 -0.1952 -1.3382
 2018TIP3    H230250   0.694   4.036   1.615  1.5735  1.3818  2.5582
 2019TIP3   OH230251   5.358   0.526   7.027 -0.3695  0.1982  1.0485
 2019TIP3    H130252   5.358   0.594   6.959 -0.4186  0.8213  1.6638
 2019TIP3    H230253   5.318   0.450   6.985  1.2685 -0.0211 -0.2002
 2020TIP3   OH230254   0.979   4.601   8.540  0.3549 -0.5753 -0.0163
 2020TIP3    H130255   0.938   4.539   8.600  2.3177 -2.6103 -0.6118
 2020TIP3    H230256   0.933   4.683   8.555 -2.4964 -2.1621  0.7406
 2021TIP3   OH230257   6.971   6.053   8.764  0.0031  0.2064  0.2509
 2021TIP3    H130258   7.025   6.020   8.692 -0.0615 -1.8949  1.0905
 2021TIP3    H230259   7.031   6.108   8.815  0.5981  0.0954 -0.3049
 2022TIP3   OH230260   4.015   1.783   9.964 -0.1179  0.1048 -0.2507
 2022TIP3    H130261   4.085   1.839   9.933 -0.5825  0.6772 -0.2829
 2022TIP3    H230262   4.026   1.701   9.916  0.8737 -0.0264  0.1716
 2023TIP3   OH230263   4.618   5.973   8.341 -0.7249  0.2260  0.5185
 2023TIP3    H130264   4.531   5.966   8.381 -0.3357 -1.2847  1.1908
 2023TIP3    H230265   4.617   6.057   8.296 -2.9159 -0.2034 -0.3941
 2024TIP3   OH230266   2.277   1.937   1.909 -0.0243  0.6397  0.0143
 2024TIP3    H130267   2.373   1.934   1.903  0.1766  1.1300  2.1730
 2024TIP3    H230268   2.257   2.030   1.921 -0.6235  0.3664  1.1986
 2025TIP3   OH230269   7.680   2.246   1.533 -0.1945  0.7424 -0.1389
 2025TIP3    H130270   7.716   2.168   1.490  0.4852  1.3887 -0.7937
 2025TIP3    H230271   7.654   2.302   1.460 -0.2293  1.3208  0.3167
 2026TIP3   OH230272   3.789   7.500   8.271 -0.4195 -0.4578 -0.0188
 2026TIP3    H130273   3.819   7.552   8.346  0.9793  1.1599 -1.6286
 2026TIP3    H230274   3.694   7.493   8.284 -0.6949  2.5198  0.3171
 2027TIP3   OH230275   0.944   6.399   9.629  0.3405 -0.6849  0.2184
 2027TIP3    H130276   0.935   6.304   9.616 -3.4439 -0.3800 -0.5292
 2027TIP3    H230277   0.961   6.409   9.722  1.8838 -2.1074  0.1271
 2028TIP3   OH230278   2.663   5.955   2.087 -0.0889 -0.1179  0.0814
 2028TIP3    H130279   2.595   5.894   2.116 -1.8749  1.5215 -0.4761
 2028TIP3    H230280   2.645   6.036   2.135  1.5604  0.3358 -0.0086
 2029TIP3   OH230281   1.477   6.387   2.341  0.2578  0.9050 -0.0158
 2029TIP3    H130282   1.413   6.356   2.405 -0.1242  1.0766 -0.3117
 2029TIP3    H230283   1.559   6.344   2.366 -0.2383 -0.2757 -0.3716
 2030TIP3   OH230284   0.464   0.611   1.665  0.1748  0.1115 -0.1267
 2030TIP3    H130285   0.369   0.617   1.661  0.2635  1.2900 -1.2889
 2030TIP3    H230286   0.482   0.529   1.710 -1.3856 -0.6283 -0.8159
 2031TIP3   OH230287   1.043   5.720   0.891  0.0876 -0.9026  0.6516
 2031TIP3    H130288   1.069   5.773   0.816 -1.7495 -0.0974  0.5121
 2031TIP3    H230289   1.113   5.733   0.955  0.1523  0.9980  0.2733
 2032TIP3   OH230290   3.126   7.115   9.215  0.3325  0.0497  0.3000
 2032TIP3    H130291   3.206   7.118   9.161  1.3518  1.5734  1.7769
 2032TIP3    H230292   3.157   7.090   9.302 -0.7819  0.8218  0.9423
 2033TIP3   OH230293   5.232   1.326   9.233 -0.0985  0.1135 -0.6103
 2033TIP3    H130294   5.181   1.400   9.201 -0.7522 -0.2730 -0.4804
 2033TIP3    H230295   5.241   1.268   9.158 -1.1029 -0.4994 -0.2806
 2034TIP3   OH230296   3.611   3.952   8.725 -0.0825  0.1010  0.3088
 2034TIP3    H130297   3.585   3.894   8.797 -1.4794  1.7327  1.2213
 2034TIP3    H230298   3.706   3.944   8.720 -0.0731 -0.8860  1.6127
 2035TIP3   OH230299   3.512   0.401   9.381 -0.1535  0.2312  0.1313
 2035TIP3    H130300   3.517   0.451   9.300 -0.1489  1.6743  0.9817
 2035TIP3    H230301   3.419   0.402   9.404 -0.2182 -0.5588 -0.0809
 2036TIP3   OH230302   2.378   5.512   0.628 -0.1806  0.8839 -0.0328
 2036TIP3    H130303   2.416   5.477   0.709  0.9350 -1.1564 -1.3541
 2036TIP3    H230304   2.450   5.509   0.565 -1.5276  0.5646 -1.6249
 2037TIP3   OH230305   3.661   4.556   0.908 -0.1636  0.1841  0.4843
 2037TIP3    H130306   3.568   4.555   0.888 -0.2801  0.4836  0.9980
 2037TIP3    H230307   3.678   4.472   0.952 -0.1310  0.0115  0.1483
 2038TIP3   OH230308   5.810   0.271   0.537  0.6876  0.4714  0.3253
 2038TIP3    H130309   5.886   0.284   0.480  0.8172 -0.4498  0.2751
 2038TIP3    H230310   5.770   0.358   0.543  1.8760  1.0240  0.5440
 2039TIP3   OH230311   3.875   0.353   8.618  0.5507  1.0721  0.2795
 2039TIP3    H130312   3.890   0.446   8.600  1.1395  0.9507  0.1459
 2039TIP3    H230313   3.909   0.307   8.542 -0.5946  0.7865 -0.0925
 2040TIP3   OH230314   1.287   0.769   9.093 -0.7057 -0.2320 -0.5192
 2040TIP3    H130315   1.267   0.711   9.166 -1.5147 -0.2869 -0.7638
 2040TIP3    H230316   1.251   0.854   9.119  1.0766  0.3600  0.1271
 2041TIP3   OH230317   5.106   6.003   8.125  0.0448  0.2047  0.1999
 2041TIP3    H130318   5.046   5.928   8.132 -0.8545  0.8150 -0.5801
 2041TIP3    H230319   5.190   5.964   8.099 -0.6311 -0.4760 -1.0977
 2042TIP3   OH230320   2.244   4.000   8.659 -0.0048  0.0508  0.2136
 2042TIP3    H130321   2.288   4.040   8.583 -0.0000 -1.5079 -0.6421
 2042TIP3    H230322   2.315   3.981   8.720  0.3937 -1.2348 -0.6013
 2043TIP3   OH230323   3.710   3.893   0.647  0.2466 -0.4351 -0.1587
 2043TIP3    H130324   3.683   3.966   0.702  2.3234  0.0439  0.3017
 2043TIP3    H230325   3.800   3.913   0.622  0.1523 -1.7968 -1.8094
 2044TIP3   OH230326   0.874   1.020   0.356  0.1851  0.0761 -0.2789
 2044TIP3    H130327   0.844   1.047   0.269 -1.0600 -1.0585 -0.2276
 2044TIP3    H230328   0.796   1.024   0.411  0.2590 -2.1733  0.0560
 2045TIP3   OH230329   0.360   6.158   9.938  0.5721 -0.0385 -0.2719
 2045TIP3    H130330   0.284   6.201   9.976  0.9433  0.0906  0.3209
 2045TIP3    H230331   0.354   6.067   9.968 -0.0917 -0.3787 -1.3461
 2046TIP3   OH230332   4.955   3.901   9.738  0.3376  0.0215  0.5137
 2046TIP3    H130333   4.924   3.823   9.692 -2.0508  0.8569  0.5528
 2046TIP3    H230334   5.046   3.882   9.760 -0.1491 -2.7323  0.4916
 2047TIP3   OH230335   2.828   1.913   2.779  0.3543 -0.2002 -0.0160
 2047TIP3    H130336   2.746   1.900   2.826  0.0057  0.0846 -0.5402
 2047TIP3    H230337   2.891   1.937   2.847 -0.2985  0.8590  0.2259
 2048TIP3   OH230338   0.378   6.935   9.378 -0.2702  0.1069 -0.4690
 2048TIP3    H130339   0.474   6.939   9.381 -0.2987  0.4866  1.5503
 2048TIP3    H230340   0.357   6.842   9.378  0.0917  0.0237 -0.4494
 2049TIP3   OH230341   6.713   1.634   8.600 -0.0848  0.3295 -0.5117
 2049TIP3    H130342   6.767   1.565   8.562  0.5796  0.2458  0.5321
 2049TIP3    H230343   6.625   1.617   8.566  0.4682  0.2946 -2.0096
 2050TIP3   OH230344   3.535   6.672   7.036  0.5367  0.2823 -0.4322
 2050TIP3    H130345   3.531   6.765   7.061 -0.1929  0.3857 -0.8883
 2050TIP3    H230346   3.496   6.670   6.949 -1.1217 -0.7122  0.2952
 2051TIP3   OH230347   5.048   5.891   1.040 -0.4808  0.1540  0.0724
 2051TIP3    H130348   5.098   5.831   0.984 -0.3855 -0.5021  0.8323
 2051TIP3    H230349   5.098   5.973   1.038  0.8568 -0.5761  1.0607
 2052TIP3   OH230350   3.107   4.502   7.652 -0.1199 -0.7911 -0.5790
 2052TIP3    H130351   3.135   4.573   7.595 -1.0609  0.4304  0.4163
 2052TIP3    H230352   3.014   4.519   7.667  0.7159  1.1229  4.1563
 2053TIP3   OH230353   6.755   2.141   0.176  0.2017 -0.3690 -0.4079
 2053TIP3    H130354   6.703   2.164   0.099  0.5059 -0.0201 -0.5082
 2053TIP3    H230355   6.762   2.222   0.226 -0.4942 -0.7183  0.2949
 2054TIP3   OH230356   4.822   4.087   8.256 -0.2763 -0.1380  0.1229
 2054TIP3    H130357   4.732   4.076   8.288 -0.1926 -0.0108  0.4112
 2054TIP3    H230358   4.860   4.000   8.264 -0.2854 -0.1285  0.2865
 2055TIP3   OH230359   2.821   5.415   1.540 -0.2009 -0.2203 -0.2656
 2055TIP3    H130360   2.899   5.431   1.592  0.3447 -1.5679 -0.6355
 2055TIP3    H230361   2.845   5.343   1.481 -1.8227 -0.9093 -0.1408
 2056TIP3   OH230362   3.476   0.331   7.743  0.0865 -0.2133 -0.0731
 2056TIP3    H130363   3.386   0.313   7.714 -0.7854 -0.2606  2.4021
 2056TIP3    H230364   3.489   0.424   7.726 -0.5872 -0.1158 -0.0958
 2057TIP3   OH230365   5.757   5.782   1.836  0.2381 -0.5804  0.4540
 2057TIP3    H130366   5.706   5.769   1.756 -0.8257 -0.4994  1.0863
 2057TIP3    H230367   5.710   5.730   1.902 -0.5193  1.5077  1.6419
 2058TIP3   OH230368   2.267   7.521   7.084 -0.1377  1.0363  0.0543
 2058TIP3    H130369   2.302   7.463   7.016 -0.1705  1.6046 -0.4543
 2058TIP3    H230370   2.307   7.489   7.165 -0.9722 -0.3632 -0.0521
 2059TIP3   OH230371   1.376   5.046   8.255  0.0563 -0.4826  0.0952
 2059TIP3    H130372   1.353   4.996   8.333  2.6932 -0.1497  1.1939
 2059TIP3    H230373   1.415   4.982   8.196  1.8827 -0.0741  0.8104
 2060TIP3   OH230374   6.662   4.985   1.551 -0.5345 -0.5224  0.1799
 2060TIP3    H130375   6.624   4.960   1.635 -0.2718  1.0919  0.8028
 2060TIP3    H230376   6.753   4.954   1.556 -0.2627  0.3561  0.8683
 2061TIP3   OH230377   4.945   2.311   0.650  0.3953  0.3526  0.1229
 2061TIP3    H130378   5.031   2.298   0.610  0.8598 -0.0382  1.2291
 2061TIP3    H230379   4.964   2.325   0.743 -0.7754 -0.2352  0.4590
 2062TIP3   OH230380   3.802   1.116   0.852 -0.1924  0.3014  0.5093
 2062TIP3    H130381   3.732   1.180   0.862 -0.7547 -0.2497  0.2009
 2062TIP3    H230382   3.772   1.040   0.904  0.2180  0.0953  0.4482
 2063TIP3   OH230383   1.806   4.055   8.615 -0.9517 -0.1142 -0.3032
 2063TIP3    H130384   1.856   4.072   8.535 -1.4623 -0.2390 -0.6589
 2063TIP3    H230385   1.807   4.137   8.663  0.9797 -0.5437  0.5025
 2064TIP3   OH230386   3.175   0.504   2.081  0.3653  0.2923  0.5626
 2064TIP3    H130387   3.211   0.592   2.081  0.7139  0.1829 -1.3915
 2064TIP3    H230388   3.086   0.514   2.047 -0.5954  0.1995  2.8649
 2065TIP3   OH230389   5.405   5.472   8.194  0.1940  0.1151 -0.1426
 2065TIP3    H130390   5.493   5.436   8.197 -0.3263 -1.1814  1.8544
 2065TIP3    H230391   5.398   5.514   8.108  2.5400 -0.2178 -0.5504
 2066TIP3   OH230392   7.434   3.102   1.673 -0.5465 -0.5821  0.4614
 2066TIP3    H130393   7.394   3.189   1.684 -0.0550 -0.5292  2.0141
 2066TIP3    H230394   7.442   3.068   1.762  0.9443 -1.4591  0.0150
 2067TIP3   OH230395   2.864   5.834   9.135  0.0915 -0.6340  0.5962
 2067TIP3    H130396   2.946   5.819   9.090 -0.8028 -0.0273 -1.3136
 2067TIP3    H230397   2.864   5.927   9.156  0.3578 -0.8473  1.6122
 2068TIP3   OH230398   4.918   2.852   1.448  0.7253 -0.7470  0.7351
 2068TIP3    H130399   4.986   2.788   1.427  0.9226 -0.4302  0.3943
 2068TIP3    H230400   4.959   2.911   1.511  1.1761  0.1528 -0.3679
 2069TIP3   OH230401   5.968   7.158   0.675  0.4552 -0.1394 -0.1899
 2069TIP3    H130402   5.878   7.154   0.643 -0.1519  2.2330  1.0275
 2069TIP3    H230403   5.967   7.107   0.756  0.2247 -0.1566 -0.2037
 2070TIP3   OH230404   3.312   3.672   0.973  0.3460 -0.1572 -0.2704
 2070TIP3    H130405   3.406   3.670   0.955  0.2405 -1.2289 -0.7653
 2070TIP3    H230406   3.270   3.658   0.888 -0.2912  0.9266 -0.1627
 2071TIP3   OH230407   4.603   0.923   9.980 -0.0485  0.4697  0.4445
 2071TIP3    H130408   4.622   1.006   9.937  2.8746 -1.0976 -1.6099
 2071TIP3    H230409   4.539   0.880   9.923  0.9276 -0.0091 -0.3152
 2072TIP3   OH230410   0.817   4.100   7.992 -0.0178  0.4271  0.1166
 2072TIP3    H130411   0.851   4.143   8.070  0.1343  2.3609 -0.9505
 2072TIP3    H230412   0.722   4.109   7.999  0.0108  0.9714 -0.0797
 2073TIP3   OH230413   6.283   0.273   8.212  0.2561 -0.1205 -0.2799
 2073TIP3    H130414   6.208   0.316   8.171 -0.4756 -1.9716 -0.9786
 2073TIP3    H230415   6.322   0.221   8.142  0.1536 -1.8228  0.8806
 2074TIP3   OH230416   6.587   2.554   8.208  0.0933  0.1477 -0.6253
 2074TIP3    H130417   6.544   2.558   8.122  2.9867  1.2392 -2.1590
 2074TIP3    H230418   6.631   2.469   8.208  0.6263  0.4209 -0.5166
 2075TIP3   OH230419   4.121   7.004   9.161  0.2472  0.1012 -0.4101
 2075TIP3    H130420   4.175   6.943   9.110 -0.7002 -0.9061 -0.2380
 2075TIP3    H230421   4.082   6.950   9.230 -1.9309  0.5161 -1.2447
 2076TIP3   OH230422   2.950   1.269   8.181  0.1983 -0.0890  0.1548
 2076TIP3    H130423   2.991   1.218   8.111  0.6767 -0.2660  0.5588
 2076TIP3    H230424   2.885   1.210   8.219  0.8274 -0.4462  0.6939
 2077TIP3   OH230425   3.187   4.880   9.774  0.0267  0.0111 -0.3035
 2077TIP3    H130426   3.096   4.907   9.770 -0.1213 -0.0041  1.6827
 2077TIP3    H230427   3.234   4.957   9.806  0.2860 -0.6641  1.0601
 2078TIP3   OH230428   3.033   2.240   0.904  0.1853 -0.0444  0.0227
 2078TIP3    H130429   3.032   2.329   0.869 -2.8460 -0.8658 -2.4337
 2078TIP3    H230430   2.941   2.214   0.905  0.8966 -2.9325  1.3673
 2079TIP3   OH230431   5.864   1.878   8.649 -0.4304  0.8209 -0.2195
 2079TIP3    H130432   5.916   1.817   8.702 -0.5114  0.7201 -0.2564
 2079TIP3    H230433   5.874   1.847   8.559 -0.1646  1.0856 -0.2846
 2080TIP3   OH230434   1.382   6.474   7.720  0.0665  0.4250 -0.0538
 2080TIP3    H130435   1.409   6.513   7.803 -2.4499  1.9706  0.1523
 2080TIP3    H230436   1.315   6.410   7.744  1.0013 -0.8752 -0.7645
 2081TIP3   OH230437   0.326   7.312   2.038 -0.8365 -0.4970  0.0814
 2081TIP3    H130438   0.247   7.288   2.088 -0.5258  0.6640  1.1917
 2081TIP3    H230439   0.399   7.284   2.094 -0.4670 -0.7832 -0.5409
 2082TIP3   OH230440   2.463   4.970   8.982  0.0211 -0.1097 -0.5854
 2082TIP3    H130441   2.390   5.032   8.987 -0.5827 -0.8592  0.3954
 2082TIP3    H230442   2.531   5.007   9.037 -0.7003 -0.7447  0.7844
 2083TIP3   OH230443   2.034   2.852   2.344  0.5362 -0.0702 -0.0289
 2083TIP3    H130444   2.080   2.935   2.357  1.1975 -0.4492  0.1068
 2083TIP3    H230445   2.092   2.786   2.383  1.3925 -0.9710 -2.6293
 2084TIP3   OH230446   3.989   2.885   9.204 -0.5937  0.6818  0.0956
 2084TIP3    H130447   4.068   2.934   9.225 -0.3708  0.9231 -1.2207
 2084TIP3    H230448   3.987   2.814   9.268 -0.3167  1.7319  1.3155
 2085TIP3   OH230449   0.025   7.147   7.698 -0.2894  0.7920 -0.2999
 2085TIP3    H130450   0.019   7.191   7.613 -1.5053 -0.5382 -0.9392
 2085TIP3    H230451  -0.040   7.077   7.694  1.6048 -1.1397  0.6555
 2086TIP3   OH230452   2.361   6.125   9.696 -0.3608  0.2707  0.4298
 2086TIP3    H130453   2.423   6.181   9.651  0.1912 -1.9464 -1.7738
 2086TIP3    H230454   2.293   6.107   9.631 -0.5834 -1.4713  1.0862
 2087TIP3   OH230455   1.400   7.137   7.192  0.6833 -0.2596 -0.8929
 2087TIP3    H130456   1.464   7.186   7.141  1.9479  0.1486  0.9861
 2087TIP3    H230457   1.452   7.071   7.238 -0.2783 -0.1343  0.4194
 2088TIP3   OH230458   1.806   5.614   1.582  0.4066  0.0439 -0.2448
 2088TIP3    H130459   1.816   5.544   1.518  0.3158 -1.2847  1.1380
 2088TIP3    H230460   1.887   5.613   1.633  1.2292  2.2428 -1.3735
 2089TIP3   OH230461   4.013   3.519   0.765  0.4214  0.4389 -0.5251
 2089TIP3    H130462   3.946   3.555   0.708  0.9150 -0.1147 -1.4745
 2089TIP3    H230463   4.095   3.558   0.734  0.7615 -0.2709 -0.5348
 2090TIP3   OH230464   2.608   0.139   1.788  0.1323 -0.2775 -0.7665
 2090TIP3    H130465   2.609   0.046   1.763 -2.2189 -0.2216 -1.3654
 2090TIP3    H230466   2.558   0.181   1.719  0.1277  1.2424  0.1305
 2091TIP3   OH230467   1.409   6.026   0.933  0.2995  0.7066 -0.0263
 2091TIP3    H130468   1.316   6.006   0.947  0.4145 -0.0969 -0.3412
 2091TIP3    H230469   1.423   6.108   0.979 -0.1518 -0.0513  1.5128
 2092TIP3   OH230470   2.120   5.287   1.507  0.1465  0.4098  0.0066
 2092TIP3    H130471   2.079   5.256   1.588  0.1568 -1.3626 -0.6046
 2092TIP3    H230472   2.134   5.380   1.521 -0.6309  0.3164  1.7057
 2093TIP3   OH230473   1.665   0.264   1.072 -0.3851 -0.3993 -0.4894
 2093TIP3    H130474   1.593   0.280   1.134 -1.0023  1.3425 -1.5835
 2093TIP3    H230475   1.736   0.320   1.102  0.5330 -2.0266  0.5141
 2094TIP3   OH230476   1.190   0.428   8.696 -0.1416 -0.7575 -0.2581
 2094TIP3    H130477   1.222   0.455   8.782 -0.8184  1.6127 -0.6779
 2094TIP3    H230478   1.232   0.488   8.635 -1.0964 -1.1980 -1.3788
 2095TIP3   OH230479   1.126   1.931   9.762  0.1059 -0.3212  0.1731
 2095TIP3    H130480   1.136   2.009   9.815  0.6011 -0.2437 -0.0225
 2095TIP3    H230481   1.127   1.859   9.825 -1.8611 -0.1121  0.4977
 2096TIP3   OH230482   7.389   7.515   9.205 -0.9046 -0.1165 -0.2286
 2096TIP3    H130483   7.461   7.473   9.157 -0.3334  0.7369 -0.1589
 2096TIP3    H230484   7.419   7.517   9.296 -0.3538  1.5127 -0.4098
 2097TIP3   OH230485   5.559   6.305   0.185  0.0649 -0.8403 -0.2070
 2097TIP3    H130486   5.497   6.333   0.118  1.0708 -0.7079 -1.1020
 2097TIP3    H230487   5.567   6.380   0.244 -2.0384 -1.4963  1.0288
 2098TIP3   OH230488   4.879   3.202   7.580  0.3127 -0.0247 -0.1308
 2098TIP3    H130489   4.820   3.144   7.629 -0.1280  0.1480 -0.4518
 2098TIP3    H230490   4.834   3.217   7.497  1.1630 -0.5097 -0.6895
 2099TIP3   OH230491   5.449   5.921   0.491  0.0464 -0.4527 -0.0555
 2099TIP3    H130492   5.532   5.898   0.448  0.8959 -0.4331  1.5034
 2099TIP3    H230493   5.383   5.867   0.447  1.3283 -2.6296  0.5852
 2100TIP3   OH230494   0.991   2.175   8.220 -0.0117  0.0198 -0.3545
 2100TIP3    H130495   0.922   2.218   8.270 -0.5312 -0.8923 -0.2544
 2100TIP3    H230496   1.071   2.192   8.270 -0.4385 -0.4018  0.5066
 2101TIP3   OH230497   1.330   0.946   9.404  0.2852  0.6202 -0.6755
 2101TIP3    H130498   1.406   0.993   9.369  0.4997  0.5757 -0.2717
 2101TIP3    H230499   1.293   1.004   9.470  0.2756  0.4232 -0.5049
 2102TIP3   OH230500   0.305   3.855   9.429 -0.0411 -0.2628  0.6920
 2102TIP3    H130501   0.240   3.790   9.403 -0.4254  0.8536 -1.3922
 2102TIP3    H230502   0.388   3.822   9.394  0.2457 -0.8968  1.9394
 2103TIP3   OH230503   5.865   1.635   1.578 -0.1373  0.1542 -0.2627
 2103TIP3    H130504   5.873   1.578   1.501 -2.0898  0.8913 -1.0887
 2103TIP3    H230505   5.773   1.628   1.603 -0.5013  3.0048 -0.4920
 2104TIP3   OH230506   6.570   3.380   1.056  0.2078 -0.3714  0.3459
 2104TIP3    H130507   6.555   3.330   0.975 -0.3427  1.0788 -0.4891
 2104TIP3    H230508   6.660   3.410   1.049 -0.4770  1.5755 -0.8339
 2105TIP3   OH230509   0.070   4.702   1.512 -0.5139 -0.3862  0.9242
 2105TIP3    H130510   0.007   4.717   1.582 -0.1878 -0.0999  1.1607
 2105TIP3    H230511   0.016   4.684   1.435 -0.8845 -0.1579  1.1251
 2106TIP3   OH230512   6.873   7.570   9.171 -0.5873 -0.0555  0.6768
 2106TIP3    H130513   6.914   7.583   9.085 -0.5478 -0.6092  0.6101
 2106TIP3    H230514   6.810   7.642   9.177 -1.6550 -0.8411 -0.4692
 2107TIP3   OH230515   5.408   0.331   9.310 -0.6536 -0.3006  0.0375
 2107TIP3    H130516   5.423   0.418   9.270  0.0130 -0.5405 -0.2545
 2107TIP3    H230517   5.496   0.295   9.321 -0.9629 -1.5202 -1.1562
 2108TIP3   OH230518   3.611   6.850   1.420  0.3517  0.3620  0.2971
 2108TIP3    H130519   3.681   6.842   1.355 -1.8310 -0.6339 -2.0680
 2108TIP3    H230520   3.620   6.939   1.454  2.5575  0.3594 -0.1235
 2109TIP3   OH230521   1.833   3.530   7.159  0.5421  0.1105 -0.1109
 2109TIP3    H130522   1.805   3.473   7.087 -0.6785 -1.3217  1.4072
 2109TIP3    H230523   1.896   3.477   7.208  1.2107  0.9906 -0.0100
 2110TIP3   OH230524   2.191   3.561   9.845  0.0714  0.4527 -0.0005
 2110TIP3    H130525   2.105   3.557   9.887 -1.1036 -0.2183 -2.2702
 2110TIP3    H230526   2.183   3.632   9.781  0.7775 -0.3893 -1.0647
 2111TIP3   OH230527   3.344   2.246   8.430 -0.1647  0.9546 -0.6248
 2111TIP3    H130528   3.277   2.239   8.497 -0.2026 -1.8828 -0.8696
 2111TIP3    H230529   3.427   2.240   8.478 -0.0684  2.4087 -0.5437
 2112TIP3   OH230530   3.224   7.554   8.398  0.0203 -0.3328  0.2621
 2112TIP3    H130531   3.220   7.516   8.310  0.6784  1.7501 -0.7226
 2112TIP3    H230532   3.135   7.542   8.433 -0.4895 -0.4411 -1.0082
 2113TIP3   OH230533   7.624   5.196   9.074 -0.0969 -0.1168 -0.1403
 2113TIP3    H130534   7.602   5.280   9.115  0.0670  0.6779 -1.6074
 2113TIP3    H230535   7.718   5.186   9.089 -0.0651  0.0982 -0.1907
 2114TIP3   OH230536   5.525   6.538   9.831 -0.1462  0.1172  0.4719
 2114TIP3    H130537   5.478   6.456   9.846  0.1514  0.3374  3.1409
 2114TIP3    H230538   5.605   6.529   9.882  0.1815  1.8141  0.2968
 2115TIP3   OH230539   0.895   2.433   0.129  0.6450  0.3327 -0.0271
 2115TIP3    H130540   0.955   2.369   0.168 -0.1724  0.3544  1.3351
 2115TIP3    H230541   0.833   2.381   0.079  0.2792  0.0952  0.6672
 2116TIP3   OH230542   2.005   6.770   9.444  0.7815  0.7777 -0.3355
 2116TIP3    H130543   2.030   6.762   9.352 -0.8173  0.9232 -0.8254
 2116TIP3    H230544   1.914   6.800   9.441  0.4838  0.1457  1.2866
 2117TIP3   OH230545   1.702   0.525   7.506  0.2586  0.7047 -0.4311
 2117TIP3    H130546   1.662   0.562   7.585 -0.0653  1.8763 -1.1190
 2117TIP3    H230547   1.628   0.488   7.457  0.0525  2.3462 -1.4224
 2118TIP3   OH230548   2.579   4.993   0.260 -0.3858  0.0875 -0.6189
 2118TIP3    H130549   2.597   5.041   0.179 -0.1777 -0.5376 -0.9458
 2118TIP3    H230550   2.646   5.023   0.321  0.5002 -0.6863 -1.1950
 2119TIP3   OH230551   0.380   0.531   8.511 -0.4325 -0.0419  0.2018
 2119TIP3    H130552   0.317   0.459   8.505 -0.4834 -0.2408  2.2864
 2119TIP3    H230553   0.464   0.491   8.486 -1.0676  0.2361 -2.6325
 2120TIP3   OH230554   3.774   2.509   9.664 -0.1893  0.1938  0.1564
 2120TIP3    H130555   3.748   2.417   9.664  1.1673 -0.2149  0.3708
 2120TIP3    H230556   3.693   2.557   9.681 -1.0017 -0.9244 -0.4353
 2121TIP3   OH230557   4.935   5.825   2.131 -0.5280  0.2558  0.2615
 2121TIP3    H130558   4.841   5.834   2.149 -0.6770 -0.3872 -0.1439
 2121TIP3    H230559   4.963   5.912   2.103 -1.1777  0.2709 -0.3589
 2122TIP3   OH230560   3.264   6.216   7.936  0.2409  0.0441 -0.1791
 2122TIP3    H130561   3.209   6.145   7.969  0.0029  0.3515  0.0978
 2122TIP3    H230562   3.211   6.295   7.948  0.8878  0.3998  0.4625
 2123TIP3   OH230563   3.183   2.344   0.420  0.1778  0.1912 -0.4628
 2123TIP3    H130564   3.236   2.312   0.346  0.4222  1.5459 -0.8922
 2123TIP3    H230565   3.247   2.356   0.491  0.1040 -0.1531 -0.3367
 2124TIP3   OH230566   3.023   1.657   9.915  0.2934  0.1973 -0.1193
 2124TIP3    H130567   2.940   1.703   9.929 -0.2347 -0.1824 -1.7396
 2124TIP3    H230568   3.081   1.690   9.983 -1.4032 -0.0690  1.5441
 2125TIP3   OH230569   2.989   2.702   1.999  0.0746 -0.2733  0.3878
 2125TIP3    H130570   2.903   2.732   2.030 -0.0596  0.2955 -0.4933
 2125TIP3    H230571   3.047   2.716   2.074 -0.3956  0.3117  0.6631
 2126TIP3   OH230572   7.408   1.730   9.650 -0.1788  0.1402 -0.4491
 2126TIP3    H130573   7.362   1.741   9.734 -1.6484 -1.9657 -0.9036
 2126TIP3    H230574   7.493   1.693   9.674  0.1087  1.1511  0.1885
 2127TIP3   OH230575   6.792   1.904   1.201  0.1082 -0.1288 -0.0526
 2127TIP3    H130576   6.715   1.849   1.187  0.1633  0.1233 -1.5012
 2127TIP3    H230577   6.757   1.993   1.204  0.4097  0.0889 -1.8021
 2128TIP3   OH230578   1.531   3.165   2.502  0.3571 -0.0489  0.1881
 2128TIP3    H130579   1.592   3.113   2.554 -1.1581 -1.9642  0.1587
 2128TIP3    H230580   1.459   3.185   2.563 -0.1078  0.1396 -0.4178
 2129TIP3   OH230581   1.776   2.850   9.866  0.4434 -0.3192 -0.3211
 2129TIP3    H130582   1.776   2.939   9.902 -2.0197 -0.4308  0.0892
 2129TIP3    H230583   1.819   2.797   9.933  0.0569  0.2342  0.3734
 2130TIP3   OH230584   0.402   5.661   1.017  0.1511 -0.6275  0.2596
 2130TIP3    H130585   0.313   5.695   1.018  0.5193  0.3648  1.4686
 2130TIP3    H230586   0.434   5.679   0.929 -0.7197 -0.6694 -0.0698
 2131TIP3   OH230587   2.290   7.540   1.015 -0.0728  0.1436  0.7452
 2131TIP3    H130588   2.318   7.631   1.007 -0.9213  0.4968  1.6582
 2131TIP3    H230589   2.350   7.501   1.079  1.8003 -0.6198 -1.3247
 2132TIP3   OH230590   5.170   0.558   7.515 -0.5403 -0.2537 -0.0102
 2132TIP3    H130591   5.111   0.590   7.583  0.4228 -0.6377  1.0367
 2132TIP3    H230592   5.219   0.487   7.557  0.6866  0.0720 -0.8309
 2133TIP3   OH230593   3.000   6.779   9.290  0.1092 -0.0996 -0.0848
 2133TIP3    H130594   3.039   6.836   9.224  0.5251 -1.0294 -0.6600
 2133TIP3    H230595   3.069   6.717   9.313 -0.3387 -0.3947  0.5061
 2134TIP3   OH230596   0.385   6.003   2.310 -0.4606  0.1347  0.1503
 2134TIP3    H130597   0.346   6.090   2.302 -0.0102  0.3443  0.1530
 2134TIP3    H230598   0.336   5.961   2.380 -0.8733  0.2815 -0.0502
 2135TIP3   OH230599   0.119   6.135   1.124  0.7913 -0.6063  0.6749
 2135TIP3    H130600   0.105   6.228   1.144  0.8865 -0.0816 -1.4334
 2135TIP3    H230601   0.035   6.105   1.090  0.7137 -1.3521  1.5008
 2136TIP3   OH230602   1.160   7.479   1.907 -0.2232  0.3649 -0.5339
 2136TIP3    H130603   1.236   7.423   1.886 -1.1028 -1.2094  0.2934
 2136TIP3    H230604   1.190   7.568   1.888  2.3533 -0.0366  1.1217
 2137TIP3   OH230605   7.106   0.098   9.763  0.5192 -0.0015  0.0126
 2137TIP3    H130606   7.059   0.034   9.709  2.0083  0.0847 -1.4324
 2137TIP3    H230607   7.111   0.057   9.849 -2.5894  0.1887  0.4045
 2138TIP3   OH230608   2.671   4.356   9.409 -0.6796  0.2065 -0.3400
 2138TIP3    H130609   2.718   4.393   9.335 -0.8372 -0.0418 -0.5659
 2138TIP3    H230610   2.738   4.312   9.461 -0.5326  0.5742 -0.2082
 2139TIP3   OH230611   5.826   6.646   0.637  0.2523 -0.3454  0.2993
 2139TIP3    H130612   5.783   6.575   0.588 -2.4158 -0.3059  2.3900
 2139TIP3    H230613   5.775   6.724   0.616  0.5028  0.1173  1.3617
 2140TIP3   OH230614   0.175   0.014   0.851 -0.1074 -0.1096 -0.5488
 2140TIP3    H130615   0.132   0.004   0.936 -1.2309 -0.3684 -1.1246
 2140TIP3    H230616   0.235  -0.060   0.844 -0.4263 -0.3971 -0.2201
 2141TIP3   OH230617   4.203   1.149   1.124 -0.0750  0.2136 -0.1357
 2141TIP3    H130618   4.208   1.244   1.113  0.1972  0.4035  1.4534
 2141TIP3    H230619   4.116   1.133   1.161  0.5990  0.0847  1.4914
 2142TIP3   OH230620   1.791   5.813   8.477  0.4422 -1.0119  0.0271
 2142TIP3    H130621   1.807   5.825   8.383  1.7045 -1.0880  0.2258
 2142TIP3    H230622   1.826   5.727   8.497 -0.2776 -1.2120  0.4868
 2143TIP3   OH230623   4.812   6.350   2.821  0.0130 -0.2618 -0.0997
 2143TIP3    H130624   4.808   6.267   2.868 -0.9210  0.1281  0.5519
 2143TIP3    H230625   4.768   6.333   2.738  2.0134 -1.0595 -1.0583
 2144TIP3   OH230626   0.444   0.434   9.908 -0.2381  0.2796 -0.2446
 2144TIP3    H130627   0.494   0.464   9.832 -1.0815 -0.2183 -1.0155
 2144TIP3    H230628   0.397   0.512   9.938  0.6247  0.6461  0.2185
 2145TIP3   OH230629   3.589   7.169   7.654 -0.1435 -0.1100 -0.3408
 2145TIP3    H130630   3.509   7.216   7.629  0.0261 -0.4563 -1.5704
 2145TIP3    H230631   3.632   7.147   7.572  0.9029 -0.5021  0.2836
 2146TIP3   OH230632   4.384   7.074   8.809  0.1936 -0.4397 -0.9492
 2146TIP3    H130633   4.462   7.084   8.864 -0.1719  2.8765 -0.8273
 2146TIP3    H230634   4.322   7.138   8.843 -0.9873  0.0168 -3.6643
 2147TIP3   OH230635   0.501   2.933   8.629 -0.0718  0.3096  0.1359
 2147TIP3    H130636   0.525   2.964   8.717  2.0331 -0.2000 -0.2103
 2147TIP3    H230637   0.530   2.841   8.628 -1.8983 -0.3023 -0.4447
 2148TIP3   OH230638   1.707   7.179   8.194  0.1599 -0.0414  0.0880
 2148TIP3    H130639   1.688   7.130   8.274 -0.2198 -0.4117 -0.2190
 2148TIP3    H230640   1.711   7.270   8.221 -0.7820 -0.0786  0.3963
 2149TIP3   OH230641   7.394   5.465   8.945  0.2329 -0.2115 -0.4756
 2149TIP3    H130642   7.319   5.413   8.971  0.3108 -0.5141 -0.8417
 2149TIP3    H230643   7.457   5.454   9.016  0.0308 -0.1600 -0.2874
 2150TIP3   OH230644   1.597   6.701   8.271 -0.0897  0.6121  0.3649
 2150TIP3    H130645   1.541   6.671   8.200  0.8062  2.0943 -1.0420
 2150TIP3    H230646   1.543   6.692   8.350 -2.3246  1.9210 -0.8935
 2151TIP3   OH230647   2.488   1.527   0.187 -1.0381  0.5210  0.5250
 2151TIP3    H130648   2.459   1.558   0.101 -0.2504  1.8894  0.7124
 2151TIP3    H230649   2.505   1.434   0.175  1.9612  1.1952 -1.6861
 2152TIP3   OH230650   4.457   7.338   9.844 -0.3079  0.3311  0.3203
 2152TIP3    H130651   4.448   7.365   9.753  0.7101  1.2183  0.4536
 2152TIP3    H230652   4.446   7.243   9.843 -2.0139  0.5096 -0.4600
 2153TIP3   OH230653   1.073   5.820   6.965 -0.5093 -0.0974  0.1404
 2153TIP3    H130654   1.033   5.884   6.905 -2.1409 -1.1328  0.0534
 2153TIP3    H230655   1.145   5.782   6.916  1.1825  2.3661  0.5603
 2154TIP3   OH230656   6.422   0.434   8.428 -0.0196 -0.1851 -0.0619
 2154TIP3    H130657   6.431   0.507   8.367 -0.1063  0.5869  0.8271
 2154TIP3    H230658   6.394   0.361   8.373  0.7917  0.2457 -1.0849
 2155TIP3   OH230659   7.063   1.678   8.504 -0.0153 -0.5903 -0.0198
 2155TIP3    H130660   7.066   1.737   8.429 -2.3771  1.2777  1.1843
 2155TIP3    H230661   6.989   1.620   8.486 -0.1963 -0.5498  0.5725
 2156TIP3   OH230662   2.068   2.667   1.999 -0.3663 -0.0561  0.1543
 2156TIP3    H130663   1.976   2.688   1.982 -0.2785  0.6483  0.5292
 2156TIP3    H230664   2.109   2.751   2.017  0.5671 -0.2551 -0.9471
 2157TIP3   OH230665   6.422   2.005   9.930 -0.0908 -0.4216 -0.7341
 2157TIP3    H130666   6.398   2.062   9.857  0.7520 -0.1157 -0.7803
 2157TIP3    H230667   6.497   1.955   9.898  0.4638 -0.0884  0.0064
 2158TIP3   OH230668   6.893   6.569   7.928 -0.1501 -0.2117 -0.1932
 2158TIP3    H130669   6.893   6.494   7.869 -0.4018  0.9042 -1.6599
 2158TIP3    H230670   6.982   6.602   7.925 -0.3234  0.2318 -0.4551
 2159TIP3   OH230671   7.268   3.801   0.696  0.1527  0.2506 -0.9357
 2159TIP3    H130672   7.202   3.799   0.765  0.6012  0.1826 -0.5070
 2159TIP3    H230673   7.217   3.798   0.614 -0.3719  0.2004 -0.6105
 2160TIP3   OH230674   2.124   3.622   0.680 -0.8144  0.1468 -0.7454
 2160TIP3    H130675   2.067   3.570   0.624  1.5127 -1.0346 -2.2061
 2160TIP3    H230676   2.213   3.600   0.651  0.5904 -0.3254  3.2772
 2161TIP3   OH230677   7.202   3.245   1.056  0.4098  0.4472 -0.0226
 2161TIP3    H130678   7.174   3.334   1.035  0.0417  0.2308 -0.4523
 2161TIP3    H230679   7.228   3.250   1.148  2.1384  1.4311 -0.5049
 2162TIP3   OH230680   5.209   0.156   0.700  0.2084  0.7588 -0.2319
 2162TIP3    H130681   5.186   0.214   0.628 -1.2967  0.5635  0.0643
 2162TIP3    H230682   5.156   0.187   0.773  1.3144  0.6159  0.6624
 2163TIP3   OH230683   4.455   6.299   1.300  0.2993  0.1297  0.2334
 2163TIP3    H130684   4.545   6.270   1.315  1.2711  2.6164 -0.2765
 2163TIP3    H230685   4.429   6.339   1.384 -0.5242 -0.9269  0.5102
 2164TIP3   OH230686   3.681   3.557   1.824 -0.5996  0.1073 -0.1102
 2164TIP3    H130687   3.650   3.470   1.799 -0.8601 -0.4538  1.9618
 2164TIP3    H230688   3.604   3.599   1.865  0.0960  0.4589  0.8900
 2165TIP3   OH230689   1.288   0.643   9.341  0.6300  0.0038  0.0296
 2165TIP3    H130690   1.302   0.726   9.386  0.0977 -1.2328  2.6523
 2165TIP3    H230691   1.376   0.605   9.334  0.6252 -0.1892  0.8952
 2166TIP3   OH230692   0.613   6.784   2.424 -1.2288  0.0347 -0.2166
 2166TIP3    H130693   0.566   6.706   2.394  0.1291 -0.8282 -0.2286
 2166TIP3    H230694   0.705   6.757   2.424 -0.8549  1.2190  1.1069
 2167TIP3   OH230695   3.531   7.175   6.668  0.1298  0.0362  0.1994
 2167TIP3    H130696   3.509   7.255   6.620 -1.0741 -0.6045 -0.3562
 2167TIP3    H230697   3.577   7.206   6.746  1.1491  1.1610 -0.8099
 2168TIP3   OH230698   0.280   5.891   0.228 -0.1720 -0.1056  0.2915
 2168TIP3    H130699   0.294   5.901   0.134  0.7421 -0.3255  0.3992
 2168TIP3    H230700   0.185   5.883   0.237 -0.2800  0.0753 -0.5942
 2169TIP3   OH230701   4.943   1.459   9.848  0.2875  0.0377 -0.1807
 2169TIP3    H130702   4.850   1.440   9.856  0.2373  0.0718 -0.6336
 2169TIP3    H230703   4.981   1.377   9.815  0.8098 -0.7866  2.2495
 2170TIP3   OH230704   0.605   1.282   2.859 -0.2249  0.0816 -0.0729
 2170TIP3    H130705   0.691   1.240   2.850  0.2688  1.2689 -1.1114
 2170TIP3    H230706   0.565   1.273   2.773 -0.7966  0.3088  0.1680
 2171TIP3   OH230707   5.219   4.554   2.221  0.2143 -0.0212  0.4245
 2171TIP3    H130708   5.206   4.569   2.127  1.7688 -1.4425 -0.0729
 2171TIP3    H230709   5.135   4.520   2.252  0.1155 -0.9659 -0.7982
 2172TIP3   OH230710   7.484   2.018   9.465  0.2044 -0.4354 -0.2752
 2172TIP3    H130711   7.548   1.990   9.399  1.3531  1.7490 -0.1686
 2172TIP3    H230712   7.515   1.977   9.546  0.3866 -0.8885 -0.5646
 2173TIP3   OH230713   6.863   6.895   8.334  0.2147 -0.4058  0.0297
 2173TIP3    H130714   6.788   6.947   8.307  1.2200  1.0036 -0.1825
 2173TIP3    H230715   6.919   6.893   8.256 -0.1596 -2.5335 -0.2284
 2174TIP3   OH230716   3.103   6.955   9.677 -0.3352 -0.0886  0.1299
 2174TIP3    H130717   3.195   6.980   9.675 -0.3543 -0.0213  0.0893
 2174TIP3    H230718   3.102   6.871   9.723 -0.3064  0.1219  0.5144
 2175TIP3   OH230719   3.677   7.400   1.731 -0.1024  0.5349 -0.3944
 2175TIP3    H130720   3.698   7.477   1.784 -0.6153  0.0597  0.5245
 2175TIP3    H230721   3.605   7.357   1.778 -1.7089  0.9737 -2.3296
 2176TIP3   OH230722   2.045   5.252   8.005  0.2128  0.3300  0.3105
 2176TIP3    H130723   2.111   5.303   8.053  1.7393 -0.7866 -0.5084
 2176TIP3    H230724   2.054   5.280   7.914  1.2861 -1.5121 -0.2104
 2177TIP3   OH230725   0.828   0.684   8.082  0.7521  0.1064  0.1195
 2177TIP3    H130726   0.811   0.641   7.998  0.7317  0.1618  0.0963
 2177TIP3    H230727   0.743   0.687   8.125  0.9306 -0.8322  0.5682
 2178TIP3   OH230728   1.604   5.112   0.309 -0.0028  0.2772 -0.0168
 2178TIP3    H130729   1.538   5.070   0.364  0.5927 -0.8607 -0.1501
 2178TIP3    H230730   1.556   5.178   0.260 -0.6529  0.9111  1.4257
 2179TIP3   OH230731   1.437   5.982   2.211 -0.2157 -0.1146 -0.1484
 2179TIP3    H130732   1.342   5.990   2.223 -0.4070  0.0211 -1.5668
 2179TIP3    H230733   1.448   5.964   2.117  1.1993  0.5728 -0.1457
 2180TIP3   OH230734   0.110   6.371   9.368  0.9337 -0.0668 -0.3530
 2180TIP3    H130735   0.061   6.291   9.351  2.4117 -1.0084 -0.2991
 2180TIP3    H230736   0.108   6.419   9.285 -1.6052  0.8249  0.1300
 2181TIP3   OH230737   5.523   5.558   2.313  0.1750 -0.2321 -0.0972
 2181TIP3    H130738   5.464   5.625   2.347 -0.1489  0.2848 -1.5800
 2181TIP3    H230739   5.585   5.541   2.384  0.0081  1.3365  0.4532
 2182TIP3   OH230740   5.227   3.299   1.340 -0.8993  0.1311 -0.0550
 2182TIP3    H130741   5.294   3.244   1.380 -1.5635 -0.4024  0.3476
 2182TIP3    H230742   5.267   3.386   1.334  0.2352 -0.4178 -0.8507
 2183TIP3   OH230743   4.528   3.290   7.482 -0.2420  0.6274  0.7417
 2183TIP3    H130744   4.587   3.233   7.433  0.6532  2.6134 -0.6124
 2183TIP3    H230745   4.555   3.378   7.459 -1.2280  1.6616  3.1591
 2184TIP3   OH230746   1.832   0.987   9.818 -0.2477 -0.3317 -0.4370
 2184TIP3    H130747   1.855   0.894   9.808 -0.0232 -0.2117 -1.1208
 2184TIP3    H230748   1.908   1.033   9.781  0.3290  0.1583  1.2823
 2185TIP3   OH230749   0.436   4.454   0.098 -0.8185 -0.1821  0.4080
 2185TIP3    H130750   0.494   4.464   0.174  0.1674  1.0234 -0.4767
 2185TIP3    H230751   0.352   4.490   0.127 -0.0421  1.6702  0.4736
 2186TIP3   OH230752   1.615   6.889   0.044 -0.3139  0.2451 -0.2585
 2186TIP3    H130753   1.659   6.819  -0.003 -2.4920 -0.3680 -1.5345
 2186TIP3    H230754   1.683   6.955   0.058  1.7615 -1.9813  0.8523
 2187TIP3   OH230755   3.305   4.190   0.614 -0.0044 -0.2404 -0.2461
 2187TIP3    H130756   3.234   4.186   0.550  0.4349 -0.9906 -0.6914
 2187TIP3    H230757   3.326   4.099   0.632  1.2374 -0.0151 -0.5334
 2188TIP3   OH230758   4.425   1.146   9.635 -0.7429  0.0414 -0.2697
 2188TIP3    H130759   4.387   1.214   9.579 -2.4891  1.0211  1.9303
 2188TIP3    H230760   4.379   1.066   9.608 -0.5765  0.2248 -1.1298
 2189TIP3   OH230761   4.764   1.520   0.826 -0.2394  0.2427  0.0189
 2189TIP3    H130762   4.744   1.507   0.733 -2.5032 -0.3709  0.5380
 2189TIP3    H230763   4.838   1.461   0.842  0.0023  0.1329 -1.3139
 2190TIP3   OH230764   5.149   2.331   1.248  0.4033  1.1574  0.2287
 2190TIP3    H130765   5.170   2.375   1.330  3.5540  2.7215 -1.2648
 2190TIP3    H230766   5.205   2.372   1.183  0.1096 -1.9252 -2.2331
 2191TIP3   OH230767   6.198   4.592   8.793  0.2425  0.2305  0.4126
 2191TIP3    H130768   6.110   4.555   8.806 -0.3799  1.5699  0.2291
 2191TIP3    H230769   6.256   4.516   8.792 -0.8516 -0.6514  1.0329
 2192TIP3   OH230770   4.637   5.047   7.957 -0.1919 -0.3660 -0.0937
 2192TIP3    H130771   4.695   4.971   7.968  0.1078 -0.0851  0.3137
 2192TIP3    H230772   4.647   5.072   7.865  1.4470  0.5561  0.3021
 2193TIP3   OH230773   3.194   6.804   7.138 -0.4264  0.3041  0.2630
 2193TIP3    H130774   3.290   6.802   7.130 -0.3183  0.3410  1.3418
 2193TIP3    H230775   3.165   6.723   7.097 -0.2981  2.0469 -3.6806
 2194TIP3   OH230776   1.914   3.572   9.824 -0.2736 -0.2907  0.3608
 2194TIP3    H130777   1.834   3.603   9.865  0.3319  0.0512  1.3088
 2194TIP3    H230778   1.884   3.524   9.747 -1.3027  2.1404 -0.8796
 2195TIP3   OH230779   3.565   4.624   1.721  0.2857  0.2608 -0.2417
 2195TIP3    H130780   3.480   4.656   1.691  0.3288  0.9429  0.3386
 2195TIP3    H230781   3.561   4.529   1.709 -0.8955  0.1817  0.6263
 2196TIP3   OH230782   5.825   4.863   0.109 -0.1537  0.4113 -0.1621
 2196TIP3    H130783   5.816   4.869   0.014 -0.7756 -0.9068 -0.2031
 2196TIP3    H230784   5.920   4.857   0.123 -0.0807 -3.7022 -1.0781
 2197TIP3   OH230785   7.519   2.907   9.028 -0.1150  0.0190 -0.3200
 2197TIP3    H130786   7.490   2.817   9.044  3.0462 -0.8343  1.3028
 2197TIP3    H230787   7.438   2.953   9.004 -1.9302 -3.1125 -0.9076
 2198TIP3   OH230788   3.100   2.900   7.818  0.1730 -0.7788  0.1709
 2198TIP3    H130789   3.181   2.935   7.782 -0.4664 -0.2936 -0.8220
 2198TIP3    H230790   3.078   2.826   7.760 -2.2960  1.6300 -2.2733
 2199TIP3   OH230791   6.211   4.789   9.988  0.0897  1.0286 -0.3737
 2199TIP3    H130792   6.242   4.746  10.068 -1.6368 -0.4984 -0.4743
 2199TIP3    H230793   6.291   4.807   9.938  0.9826 -1.3803  0.0394
 2200TIP3   OH230794   2.760   3.419   7.066  0.0867 -0.1902 -0.1549
 2200TIP3    H130795   2.730   3.508   7.047 -1.9830 -0.9053 -0.5032
 2200TIP3    H230796   2.757   3.374   6.981  0.7467 -0.6940  0.0833
 2201TIP3   OH230797   1.154   4.650   8.813  0.5234 -0.2034 -0.4586
 2201TIP3    H130798   1.167   4.557   8.829 -0.3447 -0.0532  1.4421
 2201TIP3    H230799   1.241   4.684   8.793  0.7609 -1.4938 -1.7481
 2202TIP3   OH230800   5.888   4.467   9.961  0.1982 -0.1585 -0.4416
 2202TIP3    H130801   5.885   4.436  10.052  0.6779 -0.3814 -0.5028
 2202TIP3    H230802   5.981   4.469   9.939  0.0886 -0.0050 -0.8974
 2203TIP3   OH230803   1.310   4.666   0.910 -0.6191 -0.0694  0.1920
 2203TIP3    H130804   1.241   4.601   0.900 -0.6545 -0.0455  0.2780
 2203TIP3    H230805   1.375   4.624   0.966 -0.6485 -0.0253  0.2591
 2204TIP3   OH230806   5.426   3.579   8.565  0.0580  0.0918 -0.1429
 2204TIP3    H130807   5.381   3.633   8.500 -2.4593  1.4273  2.4787
 2204TIP3    H230808   5.462   3.641   8.628  1.6666 -1.1771  0.2668
 2205TIP3   OH230809   1.531   1.770   0.752 -0.1449  0.0179 -0.2908
 2205TIP3    H130810   1.492   1.749   0.836  1.6936  1.1589  0.9315
 2205TIP3    H230811   1.611   1.718   0.748  1.2155  1.9828 -0.0197
 2206TIP3   OH230812   6.876   2.872   8.831  0.0273 -0.3985  0.4452
 2206TIP3    H130813   6.816   2.802   8.855 -0.5558  0.5898  2.0619
 2206TIP3    H230814   6.856   2.891   8.739 -0.4828 -1.6563  0.2784
 2207TIP3   OH230815   3.292   5.894   2.533  0.1477  0.8841 -0.1279
 2207TIP3    H130816   3.307   5.902   2.439 -1.8714  1.6552 -0.4126
 2207TIP3    H230817   3.342   5.966   2.571 -1.3049  2.3729 -0.9014
 2208TIP3   OH230818   1.669   3.533   7.934 -0.5397 -0.0912  0.1794
 2208TIP3    H130819   1.689   3.489   7.852 -0.9255 -0.3997  0.2472
 2208TIP3    H230820   1.652   3.462   7.996 -0.4905  0.1424  0.4652
 2209TIP3   OH230821   5.924   7.375   7.215 -0.0788 -0.5674  0.5550
 2209TIP3    H130822   5.935   7.381   7.120 -2.5477  1.0291  0.2832
 2209TIP3    H230823   6.014   7.381   7.250  0.9429 -1.8748 -1.6413
 2210TIP3   OH230824   3.993   5.992   1.346  0.1462  0.1708  0.1115
 2210TIP3    H130825   3.925   5.963   1.285  0.6988  1.2129 -1.0295
 2210TIP3    H230826   3.954   5.980   1.432 -1.9865  1.8787 -0.5236
 2211TIP3   OH230827   5.831   6.351   7.695  0.0308 -0.2676  0.3737
 2211TIP3    H130828   5.896   6.359   7.625 -1.8352 -0.3632 -1.4987
 2211TIP3    H230829   5.867   6.285   7.754  1.4115 -0.6628 -0.8376
 2212TIP3   OH230830   4.632   2.932   1.462 -0.0803  0.3725  0.2601
 2212TIP3    H130831   4.657   2.846   1.496  1.0637  1.7374  3.2785
 2212TIP3    H230832   4.708   2.961   1.412 -0.3111 -0.2043 -0.4302
 2213TIP3   OH230833   0.349   5.743   1.499  0.2030 -0.2645  0.6029
 2213TIP3    H130834   0.257   5.737   1.525  0.2880  0.0031  0.9828
 2213TIP3    H230835   0.359   5.678   1.430  0.2943 -2.0352  2.1909
 2214TIP3   OH230836   5.212   3.790   0.818  0.2966 -0.2467  0.1996
 2214TIP3    H130837   5.304   3.780   0.794  1.2297  2.7164  1.9965
 2214TIP3    H230838   5.191   3.708   0.865  1.5355 -1.5470 -1.3993
 2215TIP3   OH230839   5.692   1.922   9.724 -0.1837  0.1338  0.3598
 2215TIP3    H130840   5.713   1.966   9.806 -0.0113  0.4738  0.1345
 2215TIP3    H230841   5.603   1.949   9.704  0.1118  0.8246 -0.0599
 2216TIP3   OH230842   2.790   5.232   7.900  0.5109 -0.6250 -0.2088
 2216TIP3    H130843   2.696   5.218   7.914 -0.1941  2.1739 -1.3923
 2216TIP3    H230844   2.806   5.198   7.812 -0.3507  2.1313 -1.5525
 2217TIP3   OH230845   4.240   6.422   0.706  0.1511  0.1873  0.4429
 2217TIP3    H130846   4.262   6.347   0.652 -2.6432 -0.2218 -0.2980
 2217TIP3    H230847   4.213   6.384   0.790 -0.4929  0.4020  0.3403
 2218TIP3   OH230848   4.003   2.638   0.405  0.2270 -0.3481  0.0469
 2218TIP3    H130849   3.913   2.657   0.377  0.3826 -0.2871 -0.4257
 2218TIP3    H230850   4.004   2.661   0.498 -0.2523 -0.3699  0.0631
 2219TIP3   OH230851   0.865   5.478   9.725  0.0589 -0.4482  0.4862
 2219TIP3    H130852   0.941   5.435   9.685  0.2304 -0.3073  0.6626
 2219TIP3    H230853   0.889   5.570   9.731 -0.4856 -0.2454 -0.3053
 2220TIP3   OH230854   3.497   0.567   9.930  0.2163 -0.3391  0.3605
 2220TIP3    H130855   3.439   0.502   9.970 -0.1872  0.2875  0.7970
 2220TIP3    H230856   3.441   0.616   9.870  0.6674 -0.8195 -0.4722
 2221TIP3   OH230857   2.640   2.608   8.909 -0.4553  0.3824  0.0794
 2221TIP3    H130858   2.654   2.673   8.978 -0.1177  1.5547 -1.0541
 2221TIP3    H230859   2.715   2.549   8.916  0.5150  1.5249 -0.3918
 2222TIP3   OH230860   6.166   5.971   8.465  0.1223 -0.0358 -0.2920
 2222TIP3    H130861   6.153   5.876   8.468 -1.2500  0.1740  1.1994
 2222TIP3    H230862   6.127   5.997   8.382 -1.9669 -0.4645  0.5040
 2223TIP3   OH230863   6.388   7.197   9.946  0.5228 -0.0536 -0.0554
 2223TIP3    H130864   6.414   7.169  10.034  1.4717 -0.0603 -0.3279
 2223TIP3    H230865   6.322   7.133   9.919  0.4445 -0.2256  0.5365
 2224TIP3   OH230866   4.257   5.167   9.597 -0.0366 -0.3143 -0.0813
 2224TIP3    H130867   4.209   5.122   9.527  0.1577 -0.3524 -0.1893
 2224TIP3    H230868   4.308   5.234   9.552  1.6168 -1.6002 -0.2181
 2225TIP3   OH230869   0.845   5.350   1.592  0.0088  0.4896 -0.1816
 2225TIP3    H130870   0.765   5.377   1.547 -0.7744 -0.1945  0.7352
 2225TIP3    H230871   0.898   5.430   1.596  0.0053  0.6252 -2.0395
 2226TIP3   OH230872   2.026   0.834   0.902  0.1528 -0.4963  0.0899
 2226TIP3    H130873   2.112   0.848   0.862  0.1172  0.1557  0.2372
 2226TIP3    H230874   1.964   0.873   0.841 -0.1310 -1.7082 -0.4360
 2227TIP3   OH230875   4.329   2.712   1.270  0.1294  0.4756  0.8789
 2227TIP3    H130876   4.331   2.789   1.326 -0.2183  0.3866  1.0150
 2227TIP3    H230877   4.374   2.739   1.190  0.1957  0.7521  1.0109
 2228TIP3   OH230878   0.937   3.205   1.466 -0.1696 -0.0962 -0.2567
 2228TIP3    H130879   0.895   3.219   1.551  2.7730 -0.1465  1.3489
 2228TIP3    H230880   0.892   3.129   1.429 -0.8938 -0.6956  1.7311
 2229TIP3   OH230881   6.665   2.435   1.215 -0.0207  0.5236 -0.1084
 2229TIP3    H130882   6.592   2.492   1.193  0.6067  1.4485  0.1857
 2229TIP3    H230883   6.630   2.346   1.202 -1.4560  0.9172  0.8954
 2230TIP3   OH230884   4.840   2.583   7.259  0.0872 -0.4165 -0.7801
 2230TIP3    H130885   4.791   2.602   7.179  0.6260  1.9611 -0.6354
 2230TIP3    H230886   4.913   2.529   7.231 -1.5232 -2.4542 -1.2946
 2231TIP3   OH230887   2.827   0.590   8.523 -0.5008 -0.0063 -0.0103
 2231TIP3    H130888   2.739   0.620   8.500 -0.9256  0.0305  1.5273
 2231TIP3    H230889   2.884   0.636   8.462 -1.3636  1.8915  0.5273
 2232TIP3   OH230890   2.318   3.734   7.789  0.2103  0.1404 -0.3852
 2232TIP3    H130891   2.395   3.699   7.743  0.3840  0.6728 -0.5037
 2232TIP3    H230892   2.244   3.702   7.738  0.3139 -0.8497  0.0460
 2233TIP3   OH230893   2.253   2.602   7.714 -0.9997 -0.0239 -0.1929
 2233TIP3    H130894   2.283   2.612   7.624 -0.3127 -0.0726  0.0233
 2233TIP3    H230895   2.292   2.520   7.744  0.1752  0.8244  0.6805
 2234TIP3   OH230896   5.288   6.144   0.775  0.0309 -0.6269  0.4904
 2234TIP3    H130897   5.361   6.109   0.825 -0.1536 -4.9085 -1.7661
 2234TIP3    H230898   5.324   6.158   0.687 -1.1657  0.2668  0.1170
 2235TIP3   OH230899   5.326   1.272   8.427 -0.1608  0.4750 -0.0389
 2235TIP3    H130900   5.260   1.302   8.365  0.5230  2.1928  0.0073
 2235TIP3    H230901   5.382   1.348   8.441  1.2765 -0.6608  0.6448
 2236TIP3   OH230902   6.685   3.208   1.841  0.8239  0.3992  0.0143
 2236TIP3    H130903   6.759   3.237   1.788  0.3297  1.2118 -0.2585
 2236TIP3    H230904   6.675   3.277   1.907 -0.2734  0.8090 -0.5433
 2237TIP3   OH230905   5.159   5.840   0.364 -0.4172 -0.1530  0.1825
 2237TIP3    H130906   5.205   5.871   0.286 -0.8557  2.9167  1.0107
 2237TIP3    H230907   5.173   5.745   0.364  1.6830  0.0451 -2.2519
 2238TIP3   OH230908   1.188   3.741   9.375  0.1290 -0.0810 -0.0637
 2238TIP3    H130909   1.154   3.786   9.452 -0.3772  1.7834 -1.3160
 2238TIP3    H230910   1.277   3.773   9.365  0.6103 -1.2206  0.3828
 2239TIP3   OH230911   6.211   0.063   2.160 -0.0709 -0.2743 -0.3091
 2239TIP3    H130912   6.304   0.080   2.144 -0.0108  0.0300  0.3259
 2239TIP3    H230913   6.211   0.006   2.237 -0.3993 -0.5135 -0.4877
 2240TIP3   OH230914   2.074   5.616   6.704  0.4029  1.4694 -0.2556
 2240TIP3    H130915   2.132   5.653   6.638  0.4212 -0.4963 -1.4227
 2240TIP3    H230916   1.986   5.636   6.673  0.3341 -1.0474 -2.0258
 2241TIP3   OH230917   7.002   7.152   8.400 -0.0133 -0.2655  0.9945
 2241TIP3    H130918   6.943   7.080   8.379  0.4657 -0.6880  1.0682
 2241TIP3    H230919   7.088   7.121   8.371  0.3613 -0.1356  1.9361
 2242TIP3   OH230920   4.591   6.542   9.351  0.0771 -0.0792 -0.3533
 2242TIP3    H130921   4.610   6.454   9.383 -0.3243  0.2344  0.8172
 2242TIP3    H230922   4.677   6.577   9.326  0.4047 -0.3715  0.3301
 2243TIP3   OH230923   1.704   2.253   7.691 -0.0182  0.0222  0.1308
 2243TIP3    H130924   1.757   2.204   7.754 -1.0724 -1.6977 -0.2557
 2243TIP3    H230925   1.676   2.331   7.739  1.5507  0.1792  0.8363
 2244TIP3   OH230926   0.517   0.267   2.778 -0.4613 -0.3129  0.0882
 2244TIP3    H130927   0.523   0.261   2.873 -0.4090  0.4002  0.1386
 2244TIP3    H230928   0.444   0.326   2.762 -0.2524 -0.1529 -0.3035
 2245TIP3   OH230929   2.736   7.031   2.538 -0.0856 -0.1597  0.2167
 2245TIP3    H130930   2.744   6.954   2.595 -0.6045 -0.2537  0.1604
 2245TIP3    H230931   2.786   7.099   2.583  1.4499 -0.8626 -0.3344
 2246TIP3   OH230932   6.938   4.272   1.230  0.3230 -0.4970  0.3036
 2246TIP3    H130933   7.008   4.207   1.225  0.5197 -0.2350 -0.4976
 2246TIP3    H230934   6.895   4.255   1.314  0.4610 -1.5686  0.1724
 2247TIP3   OH230935   0.113   2.134   1.786  0.3748 -0.2924  0.1109
 2247TIP3    H130936   0.080   2.168   1.703  0.5150  0.9486  0.5415
 2247TIP3    H230937   0.208   2.127   1.773  0.3970 -0.0963  0.1646
 2248TIP3   OH230938   5.349   1.061   9.902 -0.1982 -0.4534  0.3612
 2248TIP3    H130939   5.434   1.071   9.944  0.6142  0.7043 -1.4228
 2248TIP3    H230940   5.342   0.967   9.885  2.2824 -0.3178 -2.2864
 2249TIP3   OH230941   3.965   4.218   1.416 -0.1844 -0.0418  0.0368
 2249TIP3    H130942   4.027   4.203   1.344 -0.2840  0.6335 -0.1884
 2249TIP3    H230943   3.925   4.132   1.431 -0.4690 -0.1006 -0.9997
 2250TIP3   OH230944   3.780   0.362   1.250 -0.3683  0.0627  0.5130
 2250TIP3    H130945   3.785   0.395   1.160 -0.0818  0.9206  0.8298
 2250TIP3    H230946   3.849   0.410   1.297  0.6797 -1.6522  0.8156
 2251TIP3   OH230947   5.528   3.710   9.660  0.0295  0.3273  0.6527
 2251TIP3    H130948   5.502   3.761   9.737  1.0521 -0.6674  1.7012
 2251TIP3    H230949   5.450   3.710   9.604 -0.4384  1.8313  1.2571
 2252TIP3   OH230950   2.123   6.971   7.330  0.2891 -0.0956  0.2108
 2252TIP3    H130951   2.214   6.951   7.354  0.5556  1.8918  1.0808
 2252TIP3    H230952   2.123   6.977   7.235  0.6509 -1.8065  0.0682
 2253TIP3   OH230953   5.674   0.541   8.837  0.2880  0.1838  0.1225
 2253TIP3    H130954   5.742   0.575   8.779  0.7621 -2.1678 -0.7871
 2253TIP3    H230955   5.592   0.559   8.791  0.5649 -0.3584 -0.5913
 2254TIP3   OH230956   6.841   4.032   0.982 -0.1537 -0.6506 -0.0377
 2254TIP3    H130957   6.828   4.058   0.891 -0.6929 -0.0260  0.2119
 2254TIP3    H230958   6.765   4.067   1.028  1.6722  1.9852  1.2626
 2255TIP3   OH230959   3.482   5.348   2.283  0.0002  0.1100  0.0948
 2255TIP3    H130960   3.570   5.318   2.258  0.8556  1.6132  1.0926
 2255TIP3    H230961   3.476   5.327   2.376  0.3253  2.1854  0.6373
 2256TIP3   OH230962   3.643   1.895   1.596 -0.2274 -0.4379  0.3635
 2256TIP3    H130963   3.695   1.852   1.664  0.8472 -0.4260 -0.4254
 2256TIP3    H230964   3.653   1.840   1.519  0.6234  0.8372 -0.4826
 2257TIP3   OH230965   4.893   6.617   2.858  0.0274  0.7407  0.5684
 2257TIP3    H130966   4.858   6.529   2.861  0.7082  0.5015  2.2557
 2257TIP3    H230967   4.817   6.673   2.844 -0.3737 -0.0900 -0.8587
 2258TIP3   OH230968   2.472   5.885   1.439  0.4531 -0.2346 -0.0240
 2258TIP3    H130969   2.502   5.819   1.501 -1.3863 -0.6994  0.4075
 2258TIP3    H230970   2.552   5.933   1.416  1.0564  0.8547  3.7104
 2259TIP3   OH230971   1.377   5.493   1.902 -0.1939 -0.1469  0.7311
 2259TIP3    H130972   1.349   5.583   1.882  0.1297  0.2489  1.9731
 2259TIP3    H230973   1.384   5.451   1.816 -1.5543  0.6409  0.2013
 2260TIP3   OH230974   2.277   4.103   6.403 -0.3844  0.4126 -0.0718
 2260TIP3    H130975   2.301   4.039   6.336  1.2288  0.6959  0.1945
 2260TIP3    H230976   2.193   4.072   6.437  0.3449 -1.5653  0.0456
 2261TIP3   OH230977   4.352   4.917   1.427 -1.2461  0.3175  0.6077
 2261TIP3    H130978   4.291   4.891   1.358  0.1891 -1.6663 -0.0075
 2261TIP3    H230979   4.358   4.841   1.484  1.3498  0.0468  0.0998
 2262TIP3   OH230980   4.059   1.370   1.059  0.1635 -0.0026 -0.1869
 2262TIP3    H130981   4.092   1.354   0.970  0.1643 -0.4608 -0.1072
 2262TIP3    H230982   3.967   1.343   1.055  0.3717 -0.8076  0.1591
 2263TIP3   OH230983   0.087   3.662   8.361  0.0280  0.0222 -0.5081
 2263TIP3    H130984   0.114   3.722   8.291  0.4966 -0.1316 -0.4575
 2263TIP3    H230985   0.169   3.631   8.399 -0.1831 -1.4829 -1.2247
 2264TIP3   OH230986   4.217   5.919   7.399  0.2178  0.1916  0.4991
 2264TIP3    H130987   4.142   5.871   7.364  0.2072  2.5718 -3.2156
 2264TIP3    H230988   4.284   5.852   7.412 -1.6899 -1.6273  1.6113
 2265TIP3   OH230989   5.989   7.642   1.758 -0.5011 -0.6157 -0.0088
 2265TIP3    H130990   5.899   7.631   1.788 -0.0685  0.4053  1.8640
 2265TIP3    H230991   6.004   7.737   1.765  0.8272 -0.8221  0.1097
 2266TIP3   OH230992   2.732   5.584   9.300 -0.2358 -0.4794 -0.0377
 2266TIP3    H130993   2.654   5.635   9.325 -0.3516 -1.5011  1.9488
 2266TIP3    H230994   2.732   5.586   9.205 -1.6686  1.0694 -0.0696
 2267TIP3   OH230995   5.667   2.416   8.372  0.0283 -0.0629  0.2308
 2267TIP3    H130996   5.631   2.455   8.293 -1.4350  0.6040  1.1719
 2267TIP3    H230997   5.711   2.489   8.416 -0.9250  0.0649  0.9993
 2268TIP3   OH230998   5.087   1.124   9.888 -0.0082  0.1554  0.4338
 2268TIP3    H130999   5.173   1.095   9.920 -0.6389  0.6049  2.7423
 2268TIP3    H231000   5.033   1.128   9.967 -1.7978  1.1268 -0.7892
 2269TIP3   OH231001   2.242   7.088   1.837 -0.5318 -0.2150 -0.4666
 2269TIP3    H131002   2.170   7.027   1.823 -1.3678  0.4563  0.7369
 2269TIP3    H231003   2.204   7.174   1.818 -0.4929  0.2889  1.5090
 2270TIP3   OH231004   5.429   7.502   7.845 -0.1881  0.3282 -0.1026
 2270TIP3    H131005   5.516   7.461   7.842 -2.2715 -4.9602 -0.3503
 2270TIP3    H231006   5.402   7.508   7.754 -0.4966  0.9421  0.0259
 2271TIP3   OH231007   4.659   7.326   1.440  0.1627  0.4421 -0.2656
 2271TIP3    H131008   4.567   7.300   1.436  0.0609  0.8170 -0.3456
 2271TIP3    H231009   4.673   7.378   1.361  0.2519  1.0078  0.1140
 2272TIP3   OH231010   7.038   5.768   0.733 -0.8772  0.1430 -0.1836
 2272TIP3    H131011   7.036   5.838   0.667 -0.9448  0.3418  0.0307
 2272TIP3    H231012   6.946   5.744   0.744 -0.8402 -0.0951 -0.3779
 2273TIP3   OH231013   4.843   7.297   0.551 -0.1299  0.9934 -0.1689
 2273TIP3    H131014   4.756   7.266   0.528  0.5460  0.6183 -2.4862
 2273TIP3    H231015   4.867   7.357   0.480  0.3968  3.4198  1.8979
 2274TIP3   OH231016   4.095   2.414   9.515 -0.3117 -0.5764 -0.2775
 2274TIP3    H131017   4.163   2.349   9.496 -0.2366 -0.9032  1.0161
 2274TIP3    H231018   4.143   2.497   9.520 -0.3167 -0.5004 -1.3248
 2275TIP3   OH231019   1.332   4.963   1.056 -0.1056 -0.2064 -0.4950
 2275TIP3    H131020   1.333   4.871   1.083 -2.9400 -0.3189 -0.5775
 2275TIP3    H231021   1.326   4.960   0.961  0.7506  0.1020 -0.5655
 2276TIP3   OH231022   1.188   2.499   8.504  0.0141  0.0555  0.2747
 2276TIP3    H131023   1.240   2.545   8.438  0.1418 -0.8698 -0.2936
 2276TIP3    H231024   1.216   2.537   8.587  1.7400 -0.5162  0.0095
 2277TIP3   OH231025   2.347   6.629   8.017 -0.7185 -0.3524  0.3914
 2277TIP3    H131026   2.434   6.590   8.028  0.5424  2.0269 -0.4283
 2277TIP3    H231027   2.288   6.555   8.007  1.0749 -2.0741  1.8317
 2278TIP3   OH231028   0.311   7.092   9.739  0.9959  0.2025  0.1194
 2278TIP3    H131029   0.304   7.089   9.835  2.4615  0.0792  0.2514
 2278TIP3    H231030   0.272   7.011   9.709 -2.7686  1.7524  0.3096
 2279TIP3   OH231031   0.532   5.831   2.135  0.2620 -0.4302 -0.3799
 2279TIP3    H131032   0.624   5.858   2.126  0.9890 -2.0142  1.6651
 2279TIP3    H231033   0.496   5.889   2.202  0.2677 -0.9149  0.0484
 2280TIP3   OH231034   0.758   7.007   7.719  0.1072 -0.2071 -0.0395
 2280TIP3    H131035   0.666   7.009   7.743 -0.2375 -0.9384 -1.1928
 2280TIP3    H231036   0.765   7.069   7.645  0.8832  1.0686  1.0496
 2281TIP3   OH231037   6.465   1.276   8.089 -0.4848  0.6151  0.6815
 2281TIP3    H131038   6.533   1.242   8.031  0.5806 -0.2666  2.3664
 2281TIP3    H231039   6.390   1.291   8.032  0.3493 -0.6794 -0.8316
 2282TIP3   OH231040   3.760   2.973   8.734 -0.7125 -0.0315 -0.3792
 2282TIP3    H131041   3.844   3.008   8.764 -1.2774  1.1951 -0.1299
 2282TIP3    H231042   3.731   3.036   8.668 -0.7688 -1.2286 -1.5300
 2283TIP3   OH231043   5.032   6.159   8.347 -0.1778  0.8175  0.1330
 2283TIP3    H131044   5.029   6.114   8.263  0.5004 -0.1136  0.5901
 2283TIP3    H231045   4.958   6.124   8.396  0.0128  0.6168  0.2799
 2284TIP3   OH231046   6.909   6.698   0.340 -0.4380 -0.0558 -0.1021
 2284TIP3    H131047   6.832   6.640   0.340 -1.3985  1.1730 -0.3015
 2284TIP3    H231048   6.913   6.730   0.430 -0.3428  0.1299 -0.1745
 2285TIP3   OH231049   3.580   0.232   8.035  0.0050  0.8662 -0.4832
 2285TIP3    H131050   3.605   0.268   7.951 -0.8308  0.6338 -0.8419
 2285TIP3    H231051   3.639   0.274   8.098  0.5254  1.1607 -1.1545
 2286TIP3   OH231052   1.560   0.548   6.961  0.1690  0.2701 -0.3307
 2286TIP3    H131053   1.514   0.506   7.033  4.4257  0.0452  2.5447
 2286TIP3    H231054   1.576   0.477   6.898 -1.6006 -0.0149 -0.5211
 2287TIP3   OH231055   3.317   0.157   8.693  0.1882 -0.0917  0.2177
 2287TIP3    H131056   3.346   0.229   8.637  1.1613 -1.7433 -1.4646
 2287TIP3    H231057   3.236   0.190   8.733  1.2368  2.3793  0.4658
 2288TIP3   OH231058   3.366   0.052   9.096 -0.1318  0.4940 -0.4009
 2288TIP3    H131059   3.362  -0.026   9.041 -0.9058  0.3227 -0.1071
 2288TIP3    H231060   3.318   0.119   9.047  1.4892  1.1437 -1.1872
 2289TIP3   OH231061   1.530   4.875   2.770 -0.4808 -0.7107  0.4459
 2289TIP3    H131062   1.434   4.868   2.768 -0.7044  1.6119  0.5594
 2289TIP3    H231063   1.553   4.909   2.683  0.1629 -0.3693  0.7472
 2290TIP3   OH231064   0.640   2.756   1.754 -0.3467 -0.1857  0.6743
 2290TIP3    H131065   0.560   2.775   1.705 -0.6655 -0.5965  1.0264
 2290TIP3    H231066   0.638   2.661   1.768 -0.3612 -0.0597  1.6386
 2291TIP3   OH231067   4.023   5.492   9.609 -0.6406  0.4637 -0.2524
 2291TIP3    H131068   4.084   5.549   9.561  1.5680 -1.1289  0.4959
 2291TIP3    H231069   4.067   5.475   9.692 -1.9322 -1.1033  0.1610
 2292TIP3   OH231070   5.543   0.479   1.473  0.3227 -0.1149 -0.0093
 2292TIP3    H131071   5.479   0.435   1.529  0.9879  0.0356  0.8948
 2292TIP3    H231072   5.503   0.479   1.387 -0.1280 -1.5965  0.1689
 2293TIP3   OH231073   0.810   1.451   8.357  0.1230 -0.5058  0.5841
 2293TIP3    H131074   0.754   1.387   8.399 -2.0874  0.8540 -0.1100
 2293TIP3    H231075   0.829   1.515   8.426 -0.4908 -0.1689  0.4490
 2294TIP3   OH231076   5.770   4.023   0.038  0.2661 -0.1806 -0.1107
 2294TIP3    H131077   5.861   4.032   0.008 -0.2898  0.9629 -1.5717
 2294TIP3    H231078   5.718   4.054  -0.035 -1.3817 -1.9895  0.2292
 2295TIP3   OH231079   0.930   5.000   0.159  0.4505 -0.2737 -0.1864
 2295TIP3    H131080   0.946   5.047   0.241 -1.9760  1.3398 -0.5073
 2295TIP3    H231081   0.885   4.919   0.186  0.5683 -0.2303  0.1392
 2296TIP3   OH231082   6.261   2.030   8.289 -0.1000  0.1788 -0.1690
 2296TIP3    H131083   6.295   2.074   8.367 -0.0554 -0.0304 -0.0692
 2296TIP3    H231084   6.339   1.996   8.245 -0.0121  1.2954 -0.9238
 2297TIP3   OH231085   3.680   1.896   0.953 -0.6035 -0.4918 -0.8123
 2297TIP3    H131086   3.769   1.932   0.949 -0.2704 -1.0635  0.6371
 2297TIP3    H231087   3.684   1.815   0.902  0.7199 -2.3532  1.9660
 2298TIP3   OH231088   1.729   2.916   1.253  0.2730 -0.8106  0.5497
 2298TIP3    H131089   1.748   2.884   1.164  1.3669  1.3274 -0.0652
 2298TIP3    H231090   1.776   2.856   1.311  3.9852  0.6183 -0.6509
 2299TIP3   OH231091   4.283   6.915   0.167 -0.2540  0.1158  0.1809
 2299TIP3    H131092   4.288   6.997   0.119 -1.0732  0.3219  0.4250
 2299TIP3    H231093   4.261   6.850   0.100  1.7230 -0.1568 -0.2431
 2300TIP3   OH231094   2.363   5.886   1.159  0.4001  0.2282  0.1039
 2300TIP3    H131095   2.320   5.802   1.170  0.0295  0.5087  0.8355
 2300TIP3    H231096   2.394   5.910   1.246  0.4606  0.8695 -0.0826
 2301TIP3   OH231097   5.289   1.433   1.936 -0.2673 -0.5069  0.1562
 2301TIP3    H131098   5.256   1.349   1.966 -0.9768 -0.3656 -0.1974
 2301TIP3    H231099   5.267   1.495   2.006  0.0708 -0.5749  0.3249
 2302TIP3   OH231100   3.962   5.377   2.255  0.3849 -0.6433  0.0282
 2302TIP3    H131101   4.011   5.381   2.173 -0.4686  0.6248 -0.4612
 2302TIP3    H231102   4.028   5.381   2.323  0.9838  1.0850 -0.6107
 2303TIP3   OH231103   1.397   7.058   1.475  0.4166  0.0975 -0.2708
 2303TIP3    H131104   1.386   6.963   1.471  1.8025 -0.1307  0.5493
 2303TIP3    H231105   1.343   7.085   1.549 -1.0503  0.1616 -1.3261
 2304TIP3   OH231106   0.894   0.091   8.664  0.3385 -0.2542  0.1034
 2304TIP3    H131107   0.817   0.086   8.721  0.9868  1.9095  1.2673
 2304TIP3    H231108   0.920   0.183   8.666  2.4638 -0.7645 -0.9520
 2305TIP3   OH231109   0.571   4.155   8.411 -0.0183  0.0559 -0.0074
 2305TIP3    H131110   0.498   4.169   8.471 -0.4641 -0.5004 -0.4099
 2305TIP3    H231111   0.637   4.218   8.439 -0.9516  1.1236 -0.1430
 2306TIP3   OH231112   5.358   3.298   0.426  0.5825  0.5674  0.2037
 2306TIP3    H131113   5.320   3.227   0.373 -3.9247  2.3486  0.6193
 2306TIP3    H231114   5.353   3.375   0.369  0.2123  1.5915  1.5899
 2307TIP3   OH231115   0.503   0.263   8.293 -0.2205 -0.2844 -0.5716
 2307TIP3    H131116   0.510   0.175   8.256  1.1894 -1.2473  1.7035
 2307TIP3    H231117   0.465   0.316   8.224  0.7611 -2.2417 -2.7480
 2308TIP3   OH231118   4.573   7.114   8.175  0.1720 -0.5949 -0.0792
 2308TIP3    H131119   4.520   7.167   8.235 -0.1438 -0.6085 -0.3458
 2308TIP3    H231120   4.643   7.079   8.230  1.6613  1.7845 -0.2772
 2309TIP3   OH231121   4.404   7.430   8.615  0.3270  0.2087 -0.1047
 2309TIP3    H131122   4.311   7.450   8.613  0.4681  0.9264  0.3248
 2309TIP3    H231123   4.446   7.500   8.565  0.4440 -1.3688 -2.3593
 2310TIP3   OH231124   4.887   0.251   7.519  1.0235 -0.2331 -0.4459
 2310TIP3    H131125   4.797   0.226   7.540  0.8997  2.3687  2.9161
 2310TIP3    H231126   4.941   0.190   7.569  0.8970  1.2873  1.6719
 2311TIP3   OH231127   7.121   7.107   2.360  0.1359 -0.1237  0.0659
 2311TIP3    H131128   7.143   7.129   2.450 -2.5970 -0.7971  1.0218
 2311TIP3    H231129   7.131   7.188   2.311  2.7876 -0.0144  0.6632
 2312TIP3   OH231130   1.254   5.991   9.753 -0.2273  0.7908 -0.2720
 2312TIP3    H131131   1.231   6.019   9.842 -1.0279  0.5400 -0.3884
 2312TIP3    H231132   1.307   5.912   9.766 -1.9781 -0.4210 -0.0131
 2313TIP3   OH231133   4.919   5.231   2.202 -0.5869  0.2543 -0.2790
 2313TIP3    H131134   5.005   5.215   2.164 -1.0968  0.0367 -1.3686
 2313TIP3    H231135   4.933   5.302   2.265  0.5937 -0.5435  0.3875
 2314TIP3   OH231136   0.874   6.193   7.435  0.0292 -0.1033 -0.2189
 2314TIP3    H131137   0.877   6.183   7.339 -1.0611 -0.3842 -0.2342
 2314TIP3    H231138   0.820   6.270   7.449  1.0863  0.5896  0.1587
 2315TIP3   OH231139   7.617   1.477   9.209 -0.0915 -0.0759  0.2682
 2315TIP3    H131140   7.578   1.483   9.296 -1.0130 -1.1589 -0.0418
 2315TIP3    H231141   7.710   1.457   9.225  0.0591  1.1318  0.9958
 2316TIP3   OH231142   2.753   7.379   7.957 -0.5258  0.2461  0.3265
 2316TIP3    H131143   2.780   7.432   7.881  0.3888  0.0519  0.4969
 2316TIP3    H231144   2.742   7.442   8.028  0.0530  0.2756  0.3965
 2317TIP3   OH231145   2.025   2.257   1.148  0.5716 -0.4341 -0.4682
 2317TIP3    H131146   2.002   2.211   1.229  0.6050 -0.3941 -0.4358
 2317TIP3    H231147   2.006   2.194   1.078  0.8261 -0.5777 -0.4100
 2318TIP3   OH231148   3.954   3.705   0.520  0.2812 -0.4636 -0.1586
 2318TIP3    H131149   4.042   3.736   0.498  0.5596 -2.0818 -1.6364
 2318TIP3    H231150   3.895   3.772   0.485  0.9122  0.1718 -0.0193
 2319TIP3   OH231151   4.527   6.710   9.981 -0.1490 -0.5592 -0.3058
 2319TIP3    H131152   4.495   6.683  10.067 -0.3564 -0.1640 -0.2572
 2319TIP3    H231153   4.551   6.628   9.938 -1.5263 -0.9106 -0.4644
 2320TIP3   OH231154   6.869   5.471   7.606  0.0258  0.5905 -0.2889
 2320TIP3    H131155   6.910   5.513   7.683 -1.7122  1.2047  0.3432
 2320TIP3    H231156   6.820   5.542   7.564 -0.6782 -0.1978 -0.8143
 2321TIP3   OH231157   1.998   1.724   3.062  0.3371 -0.3168  0.2103
 2321TIP3    H131158   2.079   1.688   3.099  1.5715  0.7502 -1.3501
 2321TIP3    H231159   1.941   1.648   3.052  1.4596 -1.2288  0.5252
 2322TIP3   OH231160   2.988   5.186   7.437 -0.7724 -0.1169  0.0964
 2322TIP3    H131161   3.019   5.262   7.389 -0.7261 -0.3633 -0.2659
 2322TIP3    H231162   3.056   5.120   7.424 -1.3061 -0.5670 -0.4649
 2323TIP3   OH231163   7.171   4.115   8.370 -0.2822  0.0290 -0.0097
 2323TIP3    H131164   7.168   4.029   8.412  0.6475 -0.5742 -1.1079
 2323TIP3    H231165   7.255   4.152   8.398  0.1901 -0.2356 -1.0055
 2324TIP3   OH231166   4.401   1.932   1.652  0.0163  0.2663 -0.0630
 2324TIP3    H131167   4.375   1.848   1.688 -0.1658 -0.2297 -1.3117
 2324TIP3    H231168   4.322   1.986   1.656 -0.4872 -0.3401 -1.2679
 2325TIP3   OH231169   0.599   2.675   8.546 -0.4697  0.4136  0.3415
 2325TIP3    H131170   0.683   2.641   8.516 -1.3436 -0.9012 -0.7313
 2325TIP3    H231171   0.555   2.703   8.466 -2.1004 -1.4053  0.5439
 2326TIP3   OH231172   7.509   4.099   7.842 -0.3431 -0.6424  0.0283
 2326TIP3    H131173   7.584   4.046   7.819 -0.2557 -0.9330  0.9383
 2326TIP3    H231174   7.436   4.037   7.849 -0.5755 -0.4242 -0.4330
 2327TIP3   OH231175   2.491   0.854   8.347 -0.7169  0.3555 -0.8313
 2327TIP3    H131176   2.409   0.843   8.299 -0.5455 -0.7521 -0.9050
 2327TIP3    H231177   2.549   0.788   8.310  0.6288  1.9106 -1.6202
 2328TIP3   OH231178   3.564   5.139   8.201  0.3499  0.1621 -0.1566
 2328TIP3    H131179   3.627   5.123   8.130 -0.0107  1.1192 -0.7049
 2328TIP3    H231180   3.586   5.073   8.267  1.5286  0.0791 -0.6033
 2329TIP3   OH231181   5.138   1.602   9.176  0.9237  0.2285 -0.7830
 2329TIP3    H131182   5.076   1.647   9.234  0.8476  0.8263 -1.3155
 2329TIP3    H231183   5.222   1.645   9.192  1.1513 -0.3939 -0.2652
 2330TIP3   OH231184   0.807   6.051   1.930  0.3109 -0.0025  0.4084
 2330TIP3    H131185   0.837   5.997   1.857  0.5916 -1.3806  1.5149
 2330TIP3    H231186   0.808   5.993   2.005 -1.7161  0.9040  1.1919
 2331TIP3   OH231187   6.384   4.394   8.876  0.7902  0.3877 -0.1158
 2331TIP3    H131188   6.304   4.367   8.920 -0.1984  2.0347 -0.7920
 2331TIP3    H231189   6.448   4.404   8.946  0.3639 -0.7999  0.4521
 2332TIP3   OH231190   2.250   6.783   1.716  0.8854  0.2247 -0.2399
 2332TIP3    H131191   2.164   6.798   1.756  0.6350  0.6766 -0.9244
 2332TIP3    H231192   2.261   6.688   1.718  0.6742  0.2107  0.4678
 2333TIP3   OH231193   3.484   3.998   0.402  0.5578  0.2580  0.7660
 2333TIP3    H131194   3.543   3.924   0.387 -1.7663 -1.5798 -0.1081
 2333TIP3    H231195   3.516   4.039   0.482  2.1005 -1.5609  1.1657
 2334TIP3   OH231196   6.766   4.649   0.829  0.5857 -0.2208  0.5809
 2334TIP3    H131197   6.777   4.735   0.787  0.0123 -0.1577  0.5471
 2334TIP3    H231198   6.826   4.651   0.904  1.1388 -0.0850  0.1454
 2335TIP3   OH231199   5.192   2.513   9.029  0.4441  0.2397  1.3949
 2335TIP3    H131200   5.287   2.529   9.025  0.4709 -0.0807 -2.4083
 2335TIP3    H231201   5.182   2.424   8.997 -1.2361  0.7409  0.4527
 2336TIP3   OH231202   4.833   0.823   0.069 -0.1899 -0.7426 -0.4535
 2336TIP3    H131203   4.887   0.897   0.096 -1.2234 -0.2093  0.2257
 2336TIP3    H231204   4.751   0.862   0.039 -0.4794 -1.5726 -0.7849
 2337TIP3   OH231205   1.429   5.781   7.555 -0.0459  0.1070 -0.7346
 2337TIP3    H131206   1.427   5.767   7.649 -0.5810  0.3552 -0.7010
 2337TIP3    H231207   1.377   5.861   7.542 -0.0926 -0.0021 -1.2487
 2338TIP3   OH231208   3.766   7.042   0.592 -0.2790  0.5205 -0.2965
 2338TIP3    H131209   3.718   6.960   0.588  0.2069  0.2424 -0.5457
 2338TIP3    H231210   3.755   7.081   0.505 -1.6897  1.4179  0.2414
 2339TIP3   OH231211   4.615   2.586   7.653 -0.2862 -0.2266 -0.3305
 2339TIP3    H131212   4.635   2.492   7.661 -0.4098 -0.3793 -1.5494
 2339TIP3    H231213   4.598   2.598   7.559  2.1962  1.5215 -0.6311
 2340TIP3   OH231214   3.904   4.169   8.986  0.2158 -0.1077  0.0158
 2340TIP3    H131215   3.918   4.263   8.999  2.8111 -0.4575  0.3703
 2340TIP3    H231216   3.987   4.137   8.951 -0.5643 -2.3031 -0.0040
 2341TIP3   OH231217   0.866   4.680   8.818  0.5374 -0.6009  0.4681
 2341TIP3    H131218   0.960   4.696   8.807  0.6288 -1.0799  0.5317
 2341TIP3    H231219   0.856   4.654   8.910  0.3302 -0.5000  0.4770
 2342TIP3   OH231220   3.445   0.802   7.897 -0.1588  0.0266 -0.5683
 2342TIP3    H131221   3.392   0.765   7.968  2.0612 -0.6539  0.8460
 2342TIP3    H231222   3.416   0.893   7.891 -1.7542 -0.4292 -0.1523
 2343TIP3   OH231223   5.146   3.188   8.467  0.0772 -0.4378  0.5831
 2343TIP3    H131224   5.181   3.262   8.518 -1.0123 -1.4477  2.9766
 2343TIP3    H231225   5.164   3.210   8.376  2.1415  1.5251  1.3766
 2344TIP3   OH231226   2.700   4.244   7.495  0.1177  0.1137 -0.3866
 2344TIP3    H131227   2.731   4.153   7.495  0.1185  0.1011  0.8670
 2344TIP3    H231228   2.755   4.288   7.560  2.0809  1.7438 -2.9757
 2345TIP3   OH231229   1.967   4.384   0.515 -0.1035  0.6517 -0.2322
 2345TIP3    H131230   1.985   4.424   0.430  0.2817  1.9925  0.4477
 2345TIP3    H231231   1.930   4.298   0.494 -0.1091  0.9940 -1.7444
 2346TIP3   OH231232   4.546   5.988   1.101 -0.0866 -0.2352 -0.2683
 2346TIP3    H131233   4.539   6.081   1.082 -0.3256 -0.1080  0.4298
 2346TIP3    H231234   4.630   5.962   1.062  1.2698  0.8425  1.7894
 2347TIP3   OH231235   0.854   5.897   8.680 -0.1355  0.4538 -0.6443
 2347TIP3    H131236   0.941   5.916   8.643  0.2227  0.3148  0.1077
 2347TIP3    H231237   0.822   5.823   8.630  1.1608 -0.9695  0.5374
 2348TIP3   OH231238   2.952   3.945   2.438  0.1887  0.3094 -0.1521
 2348TIP3    H131239   2.865   3.942   2.398  0.1049 -1.2953  0.0619
 2348TIP3    H231240   2.943   3.895   2.519  1.1296  0.7880  0.2624
 2349TIP3   OH231241   4.262   0.323   9.882 -0.1722  0.1131  0.5215
 2349TIP3    H131242   4.268   0.409   9.922 -1.0809  0.4202  0.0228
 2349TIP3    H231243   4.216   0.338   9.799 -3.3781 -1.3098  1.8955
 2350TIP3   OH231244   3.214   3.846   2.344  0.2093  0.5920 -0.2493
 2350TIP3    H131245   3.121   3.867   2.346 -0.1473 -0.9207  0.8786
 2350TIP3    H231246   3.234   3.834   2.251 -0.8311  0.4568 -0.4683
 2351TIP3   OH231247   4.908   3.836   8.339 -0.3560  0.3487  0.0277
 2351TIP3    H131248   4.910   3.748   8.375 -1.9004  0.5114  0.5923
 2351TIP3    H231249   4.895   3.893   8.415 -1.0374  0.9130 -0.4913
 2352TIP3   OH231250   1.549   5.133   7.041 -0.0811 -0.1234 -0.2499
 2352TIP3    H131251   1.530   5.212   7.092  0.8876  0.5990 -0.9628
 2352TIP3    H231252   1.486   5.069   7.072 -1.0166  0.9832  0.2273
 2353TIP3   OH231253   5.361   6.856   0.868 -0.1666  0.2342 -0.2412
 2353TIP3    H131254   5.352   6.856   0.773 -1.2206  1.0082 -0.1577
 2353TIP3    H231255   5.434   6.796   0.885 -0.2056 -0.2043 -1.5047
 2354TIP3   OH231256   5.705   3.699   1.136  0.1061  0.3926  0.1455
 2354TIP3    H131257   5.691   3.794   1.142 -1.9003  0.1565  0.0732
 2354TIP3    H231258   5.714   3.682   1.043 -1.9041  0.2834 -0.0711
 2355TIP3   OH231259   4.781   0.452   9.256  0.1209 -0.1994  0.9372
 2355TIP3    H131260   4.844   0.523   9.239  0.0968 -0.3439  0.2185
 2355TIP3    H231261   4.695   0.493   9.244  0.0834 -0.1647  1.2890
 2356TIP3   OH231262   0.287   5.562   1.303 -0.5089 -0.9089  0.1951
 2356TIP3    H131263   0.196   5.585   1.289 -0.0267  2.6804  1.7355
 2356TIP3    H231264   0.332   5.590   1.223 -0.5059 -0.6337  0.2910
 2357TIP3   OH231265   4.222   0.442   0.924  0.0691 -0.2022  0.5383
 2357TIP3    H131266   4.236   0.403   1.010 -1.2669  1.5062  1.5927
 2357TIP3    H231267   4.235   0.370   0.863 -0.6116 -1.8837  2.2650
 2358TIP3   OH231268   2.922   5.538   8.411  0.3840  0.3652  0.2867
 2358TIP3    H131269   2.855   5.517   8.476  0.5707 -0.6725  0.1527
 2358TIP3    H231270   2.875   5.586   8.343 -0.2853 -0.5659  0.0744
 2359TIP3   OH231271   5.997   2.010   9.644  0.5401 -0.6192 -0.3440
 2359TIP3    H131272   5.991   1.993   9.738  1.3703  1.5451  0.1602
 2359TIP3    H231273   6.086   2.042   9.631  0.1820 -0.1071 -1.7219
 2360TIP3   OH231274   3.178   3.538   1.830 -0.7032  0.2989 -0.5230
 2360TIP3    H131275   3.215   3.457   1.865 -1.4291 -0.1091 -0.6760
 2360TIP3    H231276   3.249   3.601   1.835 -0.5663  0.0708  1.0505
 2361TIP3   OH231277   1.074   1.973   8.040 -0.1673  0.3995 -0.2299
 2361TIP3    H131278   1.054   2.027   7.963 -1.0406 -0.2553 -0.4814
 2361TIP3    H231279   1.040   2.022   8.114 -0.5754  0.3998 -0.4144
 2362TIP3   OH231280   2.814   0.285   9.771  0.0170 -0.6677  0.5299
 2362TIP3    H131281   2.732   0.265   9.725 -0.6861 -1.3604  2.0287
 2362TIP3    H231282   2.821   0.218   9.839  1.0897  0.2538  1.3747
 2363TIP3   OH231283   1.793   3.420   9.605  0.3611 -0.2348  0.2812
 2363TIP3    H131284   1.726   3.359   9.573 -1.9287  2.6254 -0.8266
 2363TIP3    H231285   1.826   3.462   9.525  0.5203  1.2650  1.1074
 2364TIP3   OH231286   0.378   5.626   2.037  0.5575  0.8301  0.7689
 2364TIP3    H131287   0.290   5.616   2.071  0.4721  0.6319  0.4954
 2364TIP3    H231288   0.419   5.691   2.094 -0.3444  2.3336 -0.2215
 2365TIP3   OH231289   5.978   5.177   0.113  0.4428  0.2985  0.5635
 2365TIP3    H131290   6.010   5.087   0.114 -0.7381 -0.1311  1.3874
 2365TIP3    H231291   5.929   5.186   0.194  0.7566  1.7758  0.6133
 2366TIP3   OH231292   4.303   1.849   0.418  0.2729 -0.8773 -0.1245
 2366TIP3    H131293   4.241   1.922   0.414 -0.3489 -1.4211 -0.5368
 2366TIP3    H231294   4.381   1.886   0.459  0.7712  0.6001 -2.2720
 2367TIP3   OH231295   0.031   5.179   8.351 -0.1526 -0.3479  0.3760
 2367TIP3    H131296  -0.028   5.176   8.426 -2.2392  1.0659 -1.0902
 2367TIP3    H231297  -0.017   5.135   8.281  0.7587  0.3757 -0.7369
 2368TIP3   OH231298   6.227   6.773   7.726 -0.6213 -0.2443  0.1287
 2368TIP3    H131299   6.166   6.704   7.701  0.1278 -0.6660 -0.5510
 2368TIP3    H231300   6.201   6.849   7.674 -1.4238 -0.0067  0.8526
 2369TIP3   OH231301   2.203   4.957   1.518 -0.2669  0.6257 -0.5521
 2369TIP3    H131302   2.200   5.007   1.437  0.1682 -1.4741 -1.9413
 2369TIP3    H231303   2.297   4.946   1.536 -0.2365 -1.8383 -1.7672
 2370TIP3   OH231304   5.253   0.588   6.783  0.5399  0.0461 -0.1712
 2370TIP3    H131305   5.217   0.594   6.694  0.4470  1.4260 -0.0711
 2370TIP3    H231306   5.178   0.565   6.838  0.5367 -0.5098 -0.3984
 2371TIP3   OH231307   4.895   1.270   1.786  0.0547  0.0659  0.2099
 2371TIP3    H131308   4.897   1.281   1.691  1.4960 -1.6978 -0.0197
 2371TIP3    H231309   4.983   1.295   1.815  0.7345 -2.4758  0.6093
 2372TIP3   OH231310   3.734   4.889   7.632  0.3555 -0.2778 -0.3004
 2372TIP3    H131311   3.773   4.959   7.580  1.9842 -1.3775 -0.6657
 2372TIP3    H231312   3.760   4.809   7.586  2.0684 -1.3300  2.2680
 2373TIP3   OH231313   5.389   4.411   7.781  0.3824  0.2519  0.5372
 2373TIP3    H131314   5.334   4.435   7.706  0.0729 -0.0287  0.6718
 2373TIP3    H231315   5.450   4.345   7.746  0.8725  0.8209  0.3018
 2374TIP3   OH231316   5.541   0.242   8.914 -0.2514 -0.5500 -0.1219
 2374TIP3    H131317   5.449   0.257   8.935 -0.0285  0.5453  0.1651
 2374TIP3    H231318   5.585   0.324   8.938  0.8667 -1.1971  0.1296
 2375TIP3   OH231319   0.449   2.259   1.022 -0.2155  0.0919 -0.4921
 2375TIP3    H131320   0.528   2.314   1.018  0.0922 -0.2908  0.2946
 2375TIP3    H231321   0.434   2.234   0.931 -0.4015  1.5262 -0.8877
 2376TIP3   OH231322   2.898   3.607   0.707  0.2342 -0.5203  0.2113
 2376TIP3    H131323   2.883   3.663   0.631  1.7796  0.3235  0.4808
 2376TIP3    H231324   2.812   3.569   0.726 -0.6300  0.8851 -0.6794
 2377TIP3   OH231325   1.639   4.644   2.242  0.6232  0.6718 -0.3359
 2377TIP3    H131326   1.545   4.629   2.252  1.0771 -0.7039  2.7176
 2377TIP3    H231327   1.658   4.717   2.302  1.5472  0.8563 -0.8335
 2378TIP3   OH231328   1.908   4.674   1.727  0.4474  0.4090 -0.1731
 2378TIP3    H131329   1.893   4.699   1.636 -0.2314  1.0698  0.1118
 2378TIP3    H231330   1.834   4.710   1.774 -0.3189 -1.7039  0.3494
 2379TIP3   OH231331   3.073   5.249   7.776 -0.2565 -0.1879  0.2870
 2379TIP3    H131332   2.987   5.287   7.792 -0.9885 -1.5012 -0.3186
 2379TIP3    H231333   3.105   5.293   7.698 -0.1964  0.5838  0.7406
 2380TIP3   OH231334   6.253   6.726   0.330  0.0326  0.1414  0.2751
 2380TIP3    H131335   6.220   6.759   0.246  0.2526  0.1839  0.2032
 2380TIP3    H231336   6.253   6.802   0.388  0.9100  0.3648 -0.0039
 2381TIP3   OH231337   6.652   4.253   0.238  0.6652 -0.0051  0.3078
 2381TIP3    H131338   6.619   4.164   0.247  1.8852 -0.4746  0.3882
 2381TIP3    H231339   6.580   4.302   0.199 -1.0189 -0.3789  2.6994
 2382TIP3   OH231340   0.275   6.710   0.532 -0.3353 -0.2905  0.4119
 2382TIP3    H131341   0.233   6.753   0.458  2.7606  0.0727 -1.3280
 2382TIP3    H231342   0.257   6.617   0.519 -1.4410 -0.0706  0.3219
 2383TIP3   OH231343   3.904   5.403   2.621 -0.2995 -0.0904 -0.2919
 2383TIP3    H131344   3.869   5.324   2.580  0.6707 -0.2329 -0.8804
 2383TIP3    H231345   3.997   5.402   2.599 -0.4920  1.8771 -1.4275
 2384TIP3   OH231346   6.886   2.017   0.826  0.4082  0.1374 -0.5170
 2384TIP3    H131347   6.895   2.085   0.892  0.6235 -0.1040 -0.2940
 2384TIP3    H231348   6.870   2.064   0.745 -0.2407  0.4304 -0.2309
 2385TIP3   OH231349   6.786   1.568   8.966 -0.0734 -0.2535  0.7142
 2385TIP3    H131350   6.711   1.519   8.933  1.1318 -1.8813  0.2150
 2385TIP3    H231351   6.799   1.638   8.902 -1.1927  0.0976  0.8533
 2386TIP3   OH231352   2.284   3.181   7.104 -0.1728  0.0734 -0.1305
 2386TIP3    H131353   2.234   3.261   7.087  1.6643  1.3111 -0.0308
 2386TIP3    H231354   2.336   3.167   7.024  0.7250 -0.0708  0.4561
 2387TIP3   OH231355   7.310   1.316   0.558 -0.0318  0.1075  0.3377
 2387TIP3    H131356   7.316   1.220   0.559  0.6644  0.0278 -2.3073
 2387TIP3    H231357   7.274   1.336   0.471 -1.2203  2.2418  1.2460
 2388TIP3   OH231358   2.249   0.779   9.369 -0.2484 -0.2727  0.5604
 2388TIP3    H131359   2.320   0.722   9.398  1.2242  1.0265 -0.3447
 2388TIP3    H231360   2.293   0.857   9.333 -2.1387  0.8173  0.4536
 2389TIP3   OH231361   5.287   7.031   7.698 -0.4019  0.4479 -0.0448
 2389TIP3    H131362   5.282   6.975   7.620  1.6449  1.3210 -0.8733
 2389TIP3    H231363   5.314   6.971   7.768  1.3481  0.2745 -0.8281
 2390TIP3   OH231364   3.709   7.063   7.086  0.3216  0.0439 -0.1884
 2390TIP3    H131365   3.795   7.023   7.077 -0.2346 -1.3070  0.1567
 2390TIP3    H231366   3.707   7.131   7.019  1.9008  0.5942  0.2823
 2391TIP3   OH231367   2.797   1.865   9.844  0.4246  0.6378 -0.6358
 2391TIP3    H131368   2.762   1.944   9.886 -2.3511 -0.7829 -0.0250
 2391TIP3    H231369   2.760   1.866   9.756 -0.7531 -0.5810 -0.1910
 2392TIP3   OH231370   0.458   6.848   2.150 -0.3523  0.0272 -0.3809
 2392TIP3    H131371   0.372   6.877   2.180  0.0751  0.2175  0.7276
 2392TIP3    H231372   0.500   6.813   2.229  0.3517 -0.6502 -1.0358
 2393TIP3   OH231373   2.083   0.661   7.714 -0.0443  0.5678 -0.4021
 2393TIP3    H131374   2.150   0.687   7.651  0.2383  0.5700 -0.1085
 2393TIP3    H231375   2.043   0.743   7.742  0.5323  0.6625  0.1801
 2394TIP3   OH231376   3.150   4.045   0.104  0.4037  0.0120 -0.5327
 2394TIP3    H131377   3.180   3.959   0.073 -0.4921  0.2076 -2.0238
 2394TIP3    H231378   3.223   4.078   0.156  1.5656 -0.8133 -1.5685
 2395TIP3   OH231379   5.028   0.793   8.519  0.0249 -0.2684  0.1558
 2395TIP3    H131380   5.111   0.810   8.473  0.8071 -0.0629  1.5790
 2395TIP3    H231381   5.017   0.868   8.577 -0.0161 -1.3325  1.5635
 2396TIP3   OH231382   6.798   4.484   8.794 -0.3425  0.3371  0.0956
 2396TIP3    H131383   6.805   4.389   8.803  2.3762  0.5528  1.5835
 2396TIP3    H231384   6.760   4.498   8.708 -0.3435 -2.1117 -0.3591
 2397TIP3   OH231385   5.953   7.327   1.904  0.4905  0.2072 -0.3896
 2397TIP3    H131386   6.010   7.400   1.929  2.8391 -1.9888  1.1098
 2397TIP3    H231387   5.889   7.321   1.975 -0.8993  1.8545 -1.4249
 2398TIP3   OH231388   0.817   7.545   0.615  0.4595  0.6401  0.5551
 2398TIP3    H131389   0.893   7.498   0.649  1.6877  2.1099  0.0008
 2398TIP3    H231390   0.802   7.507   0.528  2.3758  2.1297 -0.5190
 2399TIP3   OH231391   1.239   5.173   1.739 -0.1953  0.0462 -0.6019
 2399TIP3    H131392   1.179   5.210   1.674  0.4962  0.1942 -1.1647
 2399TIP3    H231393   1.312   5.235   1.741  0.3198 -0.5601 -0.5167
 2400TIP3   OH231394   2.628   7.555   1.955 -0.6563  0.1136  0.2153
 2400TIP3    H131395   2.700   7.515   1.906  0.5108  2.1556  0.1729
 2400TIP3    H231396   2.549   7.519   1.914  0.2876 -1.6990 -0.1486
 2401TIP3   OH231397   1.956   5.780   7.424 -0.2972  0.1147  0.0320
 2401TIP3    H131398   1.910   5.782   7.339  0.3215  0.1697 -0.3089
 2401TIP3    H231399   1.890   5.748   7.486 -0.5231 -0.7269 -0.6242
 2402TIP3   OH231400   4.710   3.719   8.664  0.8246  0.1329  0.5883
 2402TIP3    H131401   4.648   3.646   8.667 -0.3990  1.0997 -0.2022
 2402TIP3    H231402   4.737   3.724   8.573  0.1981  1.1970  0.4373
 2403TIP3   OH231403   7.531   2.485   0.386  0.2471 -0.0192  0.2499
 2403TIP3    H131404   7.598   2.552   0.375  0.3240  0.5192  3.2916
 2403TIP3    H231405   7.577   2.411   0.425 -0.2336 -1.1662 -1.2468
 2404TIP3   OH231406   0.770   6.272   2.386  0.9526  0.5928 -0.7251
 2404TIP3    H131407   0.831   6.335   2.346  2.6465 -0.4507  0.0729
 2404TIP3    H231408   0.803   6.187   2.358  0.9980 -0.0832  1.2362
 2405TIP3   OH231409   5.724   5.667   9.408 -0.3095  0.3726  0.7419
 2405TIP3    H131410   5.818   5.686   9.413 -0.3834  0.8083  0.5602
 2405TIP3    H231411   5.717   5.599   9.341 -0.0411 -0.2839  1.3746
 2406TIP3   OH231412   2.106   5.074   8.776  0.2626  0.1028 -0.0645
 2406TIP3    H131413   2.049   5.015   8.726  1.4641 -1.8561  0.7566
 2406TIP3    H231414   2.078   5.064   8.867  0.0927  1.2958  0.0300
 2407TIP3   OH231415   1.590   2.116   2.673  0.3322 -0.6259 -0.2943
 2407TIP3    H131416   1.605   2.116   2.767 -0.7929 -2.5057 -0.0723
 2407TIP3    H231417   1.660   2.062   2.638  2.2212  1.9870 -0.9059
 2408TIP3   OH231418   2.549   4.360   8.248  0.1450  0.8396 -0.4888
 2408TIP3    H131419   2.539   4.266   8.239 -1.2240  0.8989  0.1491
 2408TIP3    H231420   2.631   4.371   8.297  0.1182 -0.0292 -0.2310
 2409TIP3   OH231421   7.649   5.129   1.308 -0.5383 -0.4509 -0.0549
 2409TIP3    H131422   7.649   5.200   1.372 -1.7855 -1.3735  1.0197
 2409TIP3    H231423   7.609   5.056   1.354 -0.2155 -1.5534 -1.4722
 2410TIP3   OH231424   0.478   2.675   8.008  0.0321 -0.2634 -0.0393
 2410TIP3    H131425   0.504   2.630   7.928  1.0581 -0.2897  0.2909
 2410TIP3    H231426   0.383   2.678   8.005  0.0604 -0.3481 -1.2077
 2411TIP3   OH231427   0.290   3.239   0.168 -0.0874 -0.0060  0.4113
 2411TIP3    H131428   0.276   3.305   0.101 -1.8459 -1.2892 -0.5817
 2411TIP3    H231429   0.225   3.258   0.235 -1.0697 -1.0615 -0.1997
 2412TIP3   OH231430   6.229   6.062   2.426 -0.6815 -0.1760 -0.3147
 2412TIP3    H131431   6.179   6.109   2.493  1.2452  0.3436  0.8125
 2412TIP3    H231432   6.169   6.057   2.351 -1.1447  3.7890 -0.4095
 2413TIP3   OH231433   4.908   1.985   9.316 -0.1706  0.3201 -0.4859
 2413TIP3    H131434   4.928   1.965   9.224  0.9434  1.7484 -0.5846
 2413TIP3    H231435   4.931   1.904   9.363 -0.3418 -0.2789 -1.4022
 2414TIP3   OH231436   7.657   5.417   9.773 -0.3123  0.2060  0.2304
 2414TIP3    H131437   7.741   5.430   9.817 -0.4626  0.9200  0.3257
 2414TIP3    H231438   7.632   5.327   9.794  0.3074  0.0693  0.4082
 2415TIP3   OH231439   2.313   2.970   9.448  0.4255  0.3751  0.4998
 2415TIP3    H131440   2.272   2.898   9.496 -3.0967  1.7076 -0.2491
 2415TIP3    H231441   2.275   3.049   9.485  0.6024  1.6292 -1.8095
 2416TIP3   OH231442   2.544   0.522   1.653 -0.4432 -0.0555  0.5992
 2416TIP3    H131443   2.631   0.485   1.634 -0.5974  0.0477 -0.3235
 2416TIP3    H231444   2.559   0.580   1.728 -0.0955 -1.5518  1.7452
 2417TIP3   OH231445   2.775   6.759   7.715 -0.0278 -0.0857  0.2384
 2417TIP3    H131446   2.696   6.733   7.668  0.5902 -1.2498 -0.1884
 2417TIP3    H231447   2.813   6.829   7.662  0.9789 -1.7798 -1.3782
 2418TIP3   OH231448   3.540   0.554   6.882 -0.5991 -0.1666 -0.3740
 2418TIP3    H131449   3.543   0.641   6.921  1.0348 -1.2066  2.0247
 2418TIP3    H231450   3.446   0.536   6.872 -0.9774  1.5733 -0.2753
 2419TIP3   OH231451   4.532   4.113   0.499  0.4440  0.5831  0.0954
 2419TIP3    H131452   4.627   4.112   0.483  0.5549  1.0053  0.6670
 2419TIP3    H231453   4.509   4.206   0.494  0.2135  0.5669  0.7995
 2420TIP3   OH231454   6.596   6.836   1.143  0.1923  0.3198  0.2911
 2420TIP3    H131455   6.618   6.894   1.216 -3.1738  2.8779 -0.4955
 2420TIP3    H231456   6.626   6.883   1.065 -0.0674 -0.3489 -0.2240
 2421TIP3   OH231457   1.774   5.576   9.661 -0.0417  0.2848 -0.4027
 2421TIP3    H131458   1.703   5.521   9.628 -0.8795  1.5566 -0.7813
 2421TIP3    H231459   1.791   5.639   9.591  2.5113 -0.8658 -0.9592
 2422TIP3   OH231460   3.037   6.349   7.848 -0.1328 -0.5864 -0.1229
 2422TIP3    H131461   2.953   6.306   7.863  0.2229 -1.6708 -1.1008
 2422TIP3    H231462   3.079   6.298   7.778  1.5387 -0.3535  0.6568
 2423TIP3   OH231463   5.576   3.149   1.960  0.2959 -0.1712 -0.4561
 2423TIP3    H131464   5.499   3.185   2.005 -2.3590 -4.2751 -1.1380
 2423TIP3    H231465   5.636   3.126   2.031 -0.5582  0.1275  0.3896
 2424TIP3   OH231466   4.275   4.555   8.445 -0.0525 -0.5944  0.3222
 2424TIP3    H131467   4.277   4.498   8.523 -2.4160 -0.1396  0.7748
 2424TIP3    H231468   4.313   4.501   8.376 -2.0629 -2.7450  0.7670
 2425TIP3   OH231469   5.298   0.332   7.627 -0.0610  0.0669  0.2336
 2425TIP3    H131470   5.263   0.286   7.551 -0.0044 -2.3497  1.5580
 2425TIP3    H231471   5.392   0.339   7.610 -0.2063  0.5990 -0.4034
 2426TIP3   OH231472   6.085   0.263   1.429  0.3347 -0.1673  0.3954
 2426TIP3    H131473   6.140   0.221   1.495  2.5033  2.2100  0.2472
 2426TIP3    H231474   6.128   0.347   1.411 -2.0667  0.7839 -1.5387
 2427TIP3   OH231475   0.391   7.165   8.008  0.0149  0.7726 -0.8194
 2427TIP3    H131476   0.455   7.196   8.072 -1.8998  0.1486  1.5613
 2427TIP3    H231477   0.342   7.244   7.985 -0.3875  0.7320 -0.1445
 2428TIP3   OH231478   1.643   4.145   1.670 -0.2817 -0.7496  0.6635
 2428TIP3    H131479   1.643   4.173   1.761 -0.8626  0.0691  0.4359
 2428TIP3    H231480   1.719   4.189   1.631 -1.7683  1.5124  0.0649
 2429TIP3   OH231481   7.062   2.155   9.798 -0.3875 -0.6089 -0.0208
 2429TIP3    H131482   7.020   2.218   9.739 -0.1869 -0.5236 -0.0739
 2429TIP3    H231483   7.012   2.074   9.787 -1.7614  0.0108  1.3276
 2430TIP3   OH231484   4.350   6.755   1.519 -0.5650  0.3448 -0.0515
 2430TIP3    H131485   4.319   6.691   1.455 -0.8621  1.1407 -0.7132
 2430TIP3    H231486   4.443   6.734   1.531 -1.1466 -1.7077  1.5280
 2431TIP3   OH231487   4.414   5.611   1.345  0.5720 -0.4219 -0.8999
 2431TIP3    H131488   4.366   5.531   1.323 -3.4169  1.7205 -0.9156
 2431TIP3    H231489   4.427   5.605   1.440 -0.6982 -0.6820 -0.7150
 2432TIP3   OH231490   6.272   4.953   0.401 -0.2589 -0.6968 -0.4113
 2432TIP3    H131491   6.236   5.035   0.435  3.5562  1.3630 -0.7719
 2432TIP3    H231492   6.267   4.892   0.475 -2.0253  0.1799  0.2612
 2433TIP3   OH231493   1.631   1.044   8.508 -0.1071 -0.5843 -0.5577
 2433TIP3    H131494   1.573   1.112   8.473  0.1758 -0.4727 -0.8154
 2433TIP3    H231495   1.615   1.046   8.602  0.0722  0.0098 -0.5319
 2434TIP3   OH231496   3.902   5.164   9.023  0.0811  0.2091  0.3540
 2434TIP3    H131497   3.892   5.126   8.936  0.3353 -0.4019  0.5801
 2434TIP3    H231498   3.997   5.168   9.037  0.0726 -1.5807  1.3629
 2435TIP3   OH231499   7.217   0.114   0.229 -0.1315 -0.0996  0.0779
 2435TIP3    H131500   7.263   0.030   0.237  0.8731  0.5229  1.1178
 2435TIP3    H231501   7.144   0.107   0.291 -0.3852 -0.3886 -0.2404
 2436TIP3   OH231502   1.394   1.044   0.026  0.2605 -0.3682  0.2150
 2436TIP3    H131503   1.367   0.954   0.010  0.3334 -0.2815 -0.4214
 2436TIP3    H231504   1.478   1.053  -0.020 -0.3673  0.3892 -0.8159
 2437TIP3   OH231505   6.248   1.524   9.961 -0.3413 -0.5145  0.3042
 2437TIP3    H131506   6.159   1.560   9.959 -0.6972 -1.2607  1.6661
 2437TIP3    H231507   6.287   1.554   9.879 -1.8249 -0.1243 -0.2975
 2438TIP3   OH231508   1.925   5.674   2.029 -0.2048 -0.4299  0.2091
 2438TIP3    H131509   1.845   5.637   1.991 -0.3809 -1.1023  1.1829
 2438TIP3    H231510   1.912   5.666   2.124 -0.2838  2.2289  0.4913
 2439TIP3   OH231511   2.856   3.273   8.750 -0.5196  0.2113 -0.6957
 2439TIP3    H131512   2.929   3.248   8.806  0.2561  1.0740 -1.2848
 2439TIP3    H231513   2.778   3.238   8.794  0.3782 -2.2925 -0.9569
 2440TIP3   OH231514   2.476   3.640   2.377  0.5524  0.6483  0.3757
 2440TIP3    H131515   2.568   3.631   2.351  0.0896  1.0939 -1.5444
 2440TIP3    H231516   2.480   3.665   2.469  2.4025  1.6984  0.0700
 2441TIP3   OH231517   2.312   4.986   2.682 -0.2070  0.0117  0.8337
 2441TIP3    H131518   2.238   4.928   2.698 -1.0351  0.4892 -0.9922
 2441TIP3    H231519   2.276   5.054   2.624  1.0627  1.5929  1.8302
 2442TIP3   OH231520   5.769   1.838   0.897  0.6805  0.6188  0.0180
 2442TIP3    H131521   5.703   1.823   0.966  0.2456 -1.1790 -0.7222
 2442TIP3    H231522   5.817   1.915   0.927 -0.1115  0.4669  1.8624
 2443TIP3   OH231523   7.228   2.057   8.045 -0.2088  0.3252 -0.2456
 2443TIP3    H131524   7.189   2.144   8.033 -0.0965  0.3306 -0.5732
 2443TIP3    H231525   7.156   2.004   8.081 -0.2692  0.5582 -0.0158
 2444TIP3   OH231526   1.627   4.946   9.129  0.3298  0.1633  0.2682
 2444TIP3    H131527   1.713   4.983   9.113 -0.0159  0.5992 -0.6545
 2444TIP3    H231528   1.621   4.871   9.071  0.0475  0.2001  0.2482
 2445TIP3   OH231529   0.787   2.382   8.293  0.2545 -0.2904 -0.2176
 2445TIP3    H131530   0.738   2.334   8.360  1.0550 -0.7108  0.0794
 2445TIP3    H231531   0.828   2.454   8.341  1.4343 -1.0253 -0.1135
 2446TIP3   OH231532   7.086   6.521   9.702  0.1797  0.1720 -0.9008
 2446TIP3    H131533   7.007   6.561   9.667 -1.1515 -1.6168 -0.0578
 2446TIP3    H231534   7.135   6.595   9.740 -2.9475  0.9911  2.0606
 2447TIP3   OH231535   2.108   5.333   0.582 -0.8396 -0.0665 -0.6753
 2447TIP3    H131536   2.097   5.428   0.587  0.5618  0.0818  1.2754
 2447TIP3    H231537   2.052   5.305   0.510 -0.2850  2.3867 -2.1726
 2448TIP3   OH231538   3.780   4.393   0.075 -0.5389  0.2027  0.5722
 2448TIP3    H131539   3.766   4.443   0.156  1.1041  1.3757  0.1745
 2448TIP3    H231540   3.874   4.396   0.061 -0.7641 -0.1473 -1.2920
 2449TIP3   OH231541   3.480   1.339   1.767  0.2346  0.1065  0.0030
 2449TIP3    H131542   3.494   1.268   1.704  4.1166 -0.3691  1.1057
 2449TIP3    H231543   3.437   1.297   1.841 -0.5535 -0.2769 -0.6520
 2450TIP3   OH231544   6.159   6.881   8.753 -0.8311  0.5698  0.7787
 2450TIP3    H131545   6.244   6.841   8.771 -0.0365  1.7739 -0.1618
 2450TIP3    H231546   6.103   6.853   8.825  0.5745  0.3770  1.8235
 2451TIP3   OH231547   4.756   5.348   7.429 -0.1670  0.4727 -0.0628
 2451TIP3    H131548   4.719   5.417   7.374  0.4124  0.8936  0.0604
 2451TIP3    H231549   4.699   5.272   7.415 -2.1715  1.5913  1.5085
 2452TIP3   OH231550   5.958   5.518   0.089 -0.3177  0.2855  0.1041
 2452TIP3    H131551   5.902   5.456   0.135  1.1716 -1.0679  0.1732
 2452TIP3    H231552   5.939   5.602   0.129 -1.2099 -0.3906  1.1436
 2453TIP3   OH231553   0.286   2.010   9.305 -0.0968 -0.2356  0.5398
 2453TIP3    H131554   0.231   2.052   9.370  0.3474  1.2353  0.0081
 2453TIP3    H231555   0.282   2.068   9.228  1.5371 -0.4852  0.2195
 2454TIP3   OH231556   7.577   6.897   8.591  0.7394 -0.1134 -0.2339
 2454TIP3    H131557   7.569   6.861   8.679 -1.1997 -1.8068 -0.9921
 2454TIP3    H231558   7.497   6.947   8.578  0.5862 -0.5984 -1.3016
 2455TIP3   OH231559   4.526   2.021   8.902 -0.1746 -0.2805  0.1537
 2455TIP3    H131560   4.577   2.076   8.843 -0.2321  0.6592  0.9497
 2455TIP3    H231561   4.451   1.993   8.850 -1.2042  2.0375  0.2594
 2456TIP3   OH231562   4.792   4.586   9.590  0.0768  0.4031 -0.3766
 2456TIP3    H131563   4.882   4.562   9.614 -0.0947 -1.4114 -1.3924
 2456TIP3    H231564   4.768   4.655   9.653  1.9958  0.5948  0.2097
 2457TIP3   OH231565   6.151   3.211   1.720  0.0186 -0.2435 -0.8923
 2457TIP3    H131566   6.242   3.242   1.723  1.1694 -3.1898 -1.5800
 2457TIP3    H231567   6.134   3.181   1.809  0.0528 -0.5448 -0.9875
 2458TIP3   OH231568   2.118   4.233   7.643 -0.4000 -0.2013 -0.6223
 2458TIP3    H131569   2.200   4.209   7.686 -0.4887  1.9374  0.9020
 2458TIP3    H231570   2.071   4.150   7.634  1.5952 -1.3771 -0.8873
 2459TIP3   OH231571   1.317   1.382   8.201  0.0458 -0.4434 -0.2395
 2459TIP3    H131572   1.246   1.405   8.142  0.1096 -1.0454 -0.5540
 2459TIP3    H231573   1.340   1.292   8.179  0.3327 -0.5490  0.4371
 2460TIP3   OH231574   6.715   3.784   9.817 -0.4994  0.2070 -0.2305
 2460TIP3    H131575   6.744   3.865   9.774 -1.5266  0.6128 -0.1878
 2460TIP3    H231576   6.673   3.734   9.747 -0.5396  0.0523 -0.0946
 2461TIP3   OH231577   5.906   0.373   8.236  0.3399  0.2917  0.2516
 2461TIP3    H131578   5.829   0.324   8.206  0.1722 -0.2985  1.5766
 2461TIP3    H231579   5.970   0.362   8.166 -0.1282 -0.7984 -0.0233
 2462TIP3   OH231580   4.071   0.062   1.597 -0.1003 -0.0047 -0.0024
 2462TIP3    H131581   4.066   0.152   1.565 -0.5053  0.1974  0.6039
 2462TIP3    H231582   4.124   0.016   1.532 -1.1125  0.3170 -1.0967
 2463TIP3   OH231583   3.520   5.318   1.787  0.4519  0.1118  0.6988
 2463TIP3    H131584   3.477   5.286   1.867  0.3029 -1.6966 -0.0509
 2463TIP3    H231585   3.470   5.277   1.716  1.4705  0.5354 -0.2778
 2464TIP3   OH231586   4.676   5.168   1.458 -0.0627  0.0037 -0.0964
 2464TIP3    H131587   4.732   5.245   1.473 -1.1082  0.5548  1.2805
 2464TIP3    H231588   4.589   5.197   1.485 -0.3052 -1.9463  1.4269
 2465TIP3   OH231589   2.432   7.283   2.795 -0.2978 -0.2801  0.0690
 2465TIP3    H131590   2.456   7.351   2.858  2.4426 -0.5408 -0.5963
 2465TIP3    H231591   2.346   7.311   2.762 -0.3270  1.5718  1.5328
 2466TIP3   OH231592   5.376   5.193   1.676 -0.0604  0.1200 -0.2187
 2466TIP3    H131593   5.395   5.216   1.767  0.7893 -0.5018 -0.2262
 2466TIP3    H231594   5.403   5.270   1.625  1.7383 -0.4018 -0.1465
 2467TIP3   OH231595   4.903   6.152   9.393 -0.4922 -0.4780  0.0573
 2467TIP3    H131596   4.831   6.123   9.338  0.1449 -0.2677 -0.9131
 2467TIP3    H231597   4.942   6.225   9.345  2.2472 -2.4730 -0.9873
 2468TIP3   OH231598   0.783   2.737   7.232  0.2349 -0.4619 -0.2120
 2468TIP3    H131599   0.866   2.707   7.195  1.2253 -0.3874  1.8173
 2468TIP3    H231600   0.798   2.829   7.255 -0.2469 -0.5579  0.5574
 2469TIP3   OH231601   0.009   4.594   0.457  0.5635 -0.0151  0.9701
 2469TIP3    H131602  -0.032   4.612   0.542  1.0915 -0.7193  1.3895
 2469TIP3    H231603  -0.063   4.567   0.401  0.3889 -0.8549  1.5849
 2470TIP3   OH231604   5.663   7.126   8.068 -0.0216 -0.3054  0.3576
 2470TIP3    H131605   5.742   7.171   8.039 -0.4472  0.3270  0.1743
 2470TIP3    H231606   5.625   7.183   8.135 -1.0934  0.1208 -0.5729
 2471TIP3   OH231607   5.132   1.210   2.001 -0.2741  0.0961  0.4883
 2471TIP3    H131608   5.152   1.167   1.918  0.0184  1.9205 -0.4458
 2471TIP3    H231609   5.159   1.147   2.068 -1.2809 -1.7626 -0.7593
 2472TIP3   OH231610   4.089   0.508   7.616 -0.0088  0.4933  0.3084
 2472TIP3    H131611   4.005   0.543   7.645 -1.7569 -2.3663 -0.8382
 2472TIP3    H231612   4.093   0.529   7.523  0.1134 -0.1568  0.1620
 2473TIP3   OH231613   6.775   6.931   0.923 -0.2269  0.7332 -0.0301
 2473TIP3    H131614   6.783   7.023   0.948  1.0913  0.4383  0.7154
 2473TIP3    H231615   6.846   6.916   0.860 -0.9177  0.4050 -0.7563
 2474TIP3   OH231616   4.966   6.082   1.499 -0.2173  0.0556  0.1975
 2474TIP3    H131617   5.056   6.103   1.475  0.5442 -3.3592 -0.4515
 2474TIP3    H231618   4.959   6.107   1.591  1.1644  0.9658  0.0806
 2475TIP3   OH231619   5.073   5.611   1.912  0.3369 -0.8644  0.0217
 2475TIP3    H131620   5.168   5.605   1.901  0.5549  1.1666  0.3360
 2475TIP3    H231621   5.057   5.583   2.002  1.1005  1.8135  1.0863
 2476TIP3   OH231622   6.713   3.098   0.254 -0.0575  0.2234 -0.0783
 2476TIP3    H131623   6.645   3.112   0.320  1.2218  0.8150  1.1567
 2476TIP3    H231624   6.711   3.003   0.238 -1.5706  0.2979 -0.5602
 2477TIP3   OH231625   2.962   1.857   1.541  0.1321 -0.8420 -0.7050
 2477TIP3    H131626   3.019   1.928   1.514 -1.0912 -0.9183 -3.9545
 2477TIP3    H231627   2.940   1.877   1.632  2.6367  0.9219 -0.3921
 2478TIP3   OH231628   4.135   1.894   9.614  0.2142 -0.5603  0.7262
 2478TIP3    H131629   4.187   1.963   9.573  0.2086  0.0927  1.7603
 2478TIP3    H231630   4.170   1.889   9.703 -0.9113 -0.7202  1.1667
 2479TIP3   OH231631   6.636   7.572   1.780 -0.0838  0.3910  0.0057
 2479TIP3    H131632   6.629   7.657   1.736 -0.2811  0.1843 -0.3720
 2479TIP3    H231633   6.693   7.588   1.855  0.8585  0.6095 -0.7217
 2480TIP3   OH231634   3.986   2.695   9.687  0.5740  0.7083 -0.7014
 2480TIP3    H131635   3.928   2.620   9.674 -0.8874  1.3030  1.6047
 2480TIP3    H231636   4.062   2.659   9.733  0.1665  0.5112 -0.1646
 2481TIP3   OH231637   1.900   5.787   8.812  0.3617 -0.4311 -0.2377
 2481TIP3    H131638   1.822   5.841   8.796 -0.2891 -0.2378  2.8964
 2481TIP3    H231639   1.866   5.705   8.847  1.5206 -1.2848 -1.0282
 2482TIP3   OH231640   3.974   6.471   2.055 -0.4682  0.1049 -0.0171
 2482TIP3    H131641   4.024   6.472   2.137 -0.6635 -2.1568  0.1808
 2482TIP3    H231642   3.962   6.378   2.035 -0.8386  0.6007 -2.3753
 2483TIP3   OH231643   4.868   6.485   8.926 -0.0544 -0.0095  0.0886
 2483TIP3    H131644   4.900   6.472   8.837  0.3509 -0.9028  0.3536
 2483TIP3    H231645   4.782   6.443   8.927 -1.3964  2.5212 -0.6638
 2484TIP3   OH231646   5.119   5.431   9.732  0.7407  0.4170  0.0864
 2484TIP3    H131647   5.117   5.515   9.780 -0.1751  1.5155 -1.7652
 2484TIP3    H231648   5.192   5.440   9.671  1.0558 -0.4263  0.3276
 2485TIP3   OH231649   4.818   7.640   1.473 -0.8456 -0.4010  0.2073
 2485TIP3    H131650   4.823   7.648   1.378  2.4868  0.7056  0.3134
 2485TIP3    H231651   4.882   7.572   1.495  0.0401  0.8344  1.7163
 2486TIP3   OH231652   3.737   7.279   2.430 -0.3192 -0.5020 -0.1893
 2486TIP3    H131653   3.722   7.192   2.393 -1.1100 -0.2740 -0.4214
 2486TIP3    H231654   3.654   7.302   2.473  0.2990 -0.4076  1.0063
 2487TIP3   OH231655   1.967   3.392   3.090 -0.6461 -0.4905  0.2797
 2487TIP3    H131656   1.995   3.311   3.047  0.9940 -0.5646  1.3960
 2487TIP3    H231657   2.048   3.438   3.109 -1.5347  1.1757  0.1645
 2488TIP3   OH231658   6.302   3.069   9.789  0.9815 -0.3318  0.5332
 2488TIP3    H131659   6.313   3.141   9.727 -0.4569 -0.4193  0.1521
 2488TIP3    H231660   6.357   3.094   9.864 -1.3620  2.4643  1.5135
 2489TIP3   OH231661   6.519   6.046   8.787 -0.2446 -0.0896  0.1412
 2489TIP3    H131662   6.578   6.004   8.850 -2.2578 -1.3894  1.2668
 2489TIP3    H231663   6.487   5.974   8.733  0.8552  0.9043 -1.9634
 2490TIP3   OH231664   1.243   5.761   2.384 -0.0748  0.4603  0.3204
 2490TIP3    H131665   1.171   5.808   2.342  1.0571  1.4269 -0.6086
 2490TIP3    H231666   1.206   5.727   2.465 -2.2524 -1.1535 -1.2429
 2491TIP3   OH231667   0.435   4.102   8.825  0.2304 -0.4982 -0.7122
 2491TIP3    H131668   0.382   4.034   8.867 -0.0841 -0.5263 -1.1519
 2491TIP3    H231669   0.515   4.104   8.877 -0.3368 -0.2020  0.1819
 2492TIP3   OH231670   5.688   4.251   0.870 -0.0279 -0.0903  0.2761
 2492TIP3    H131671   5.597   4.279   0.871  0.0019 -0.0206  1.3634
 2492TIP3    H231672   5.719   4.275   0.782 -1.4705 -1.5165 -0.6830
 2493TIP3   OH231673   2.115   2.005   9.561  0.0097  0.4114 -0.3428
 2493TIP3    H131674   2.050   1.949   9.603  0.7252  0.9054  1.4917
 2493TIP3    H231675   2.128   1.965   9.474 -1.5514 -0.5979 -0.1538
 2494TIP3   OH231676   2.556   0.889   9.889 -0.4897  0.0540 -0.3312
 2494TIP3    H131677   2.491   0.931   9.832  0.0251  1.1602 -0.1188
 2494TIP3    H231678   2.596   0.822   9.834 -0.6079  0.5249 -1.0083
 2495TIP3   OH231679   0.024   1.412   8.746  0.3761 -0.7204  0.0601
 2495TIP3    H131680   0.109   1.445   8.773  0.5712 -1.5885  0.5319
 2495TIP3    H231681  -0.016   1.379   8.827 -0.7524  0.3987 -0.0020
 2496TIP3   OH231682   5.173   5.816   8.702  0.1859  0.2135  0.2232
 2496TIP3    H131683   5.109   5.821   8.631  0.3762  0.0509  0.0380
 2496TIP3    H231684   5.123   5.786   8.778  0.0775 -0.0962  0.0327
 2497TIP3   OH231685   6.976   3.412   8.515 -0.1787 -0.6085  0.0495
 2497TIP3    H131686   7.047   3.356   8.483 -0.4763 -1.2738  0.5181
 2497TIP3    H231687   6.958   3.472   8.443  2.1704  0.8988  0.6054
 2498TIP3   OH231688   0.296   2.441   1.627  0.2656  0.1225  0.4885
 2498TIP3    H131689   0.281   2.357   1.585  0.3938 -0.9905  2.5354
 2498TIP3    H231690   0.208   2.477   1.640 -0.0054 -0.9598  1.9481
 2499TIP3   OH231691   4.376   6.343   2.745 -0.0770  0.7412 -0.0398
 2499TIP3    H131692   4.346   6.406   2.679  0.9836  1.4337  0.1220
 2499TIP3    H231693   4.449   6.298   2.702 -0.6711 -0.2283 -0.0641
 2500TIP3   OH231694   6.051   1.434   8.875 -0.3128 -0.4868 -0.3216
 2500TIP3    H131695   6.027   1.391   8.957  0.2197 -0.8674 -0.3572
 2500TIP3    H231696   6.080   1.363   8.818 -2.1085 -0.4138 -1.3741
 2501TIP3   OH231697   1.506   7.161   2.463  0.1205 -0.7812  0.0598
 2501TIP3    H131698   1.576   7.203   2.513  0.2115 -1.0391  0.1467
 2501TIP3    H231699   1.550   7.112   2.394 -0.0090 -0.3418 -0.3446
 2502TIP3   OH231700   5.243   2.412   9.502 -0.0828 -0.5735  0.4024
 2502TIP3    H131701   5.310   2.382   9.441  0.4553 -0.3413  0.8603
 2502TIP3    H231702   5.292   2.458   9.570 -0.7246 -0.2736  0.6751
 2503TIP3   OH231703   3.462   2.629   8.898 -0.0307  0.2067  0.3513
 2503TIP3    H131704   3.473   2.583   8.982 -0.2097  0.8685  0.7491
 2503TIP3    H231705   3.474   2.561   8.832  0.4794 -0.2570  0.9011
 2504TIP3   OH231706   7.285   3.222   1.393 -0.3426 -0.0997 -0.1625
 2504TIP3    H131707   7.241   3.265   1.466  0.8650 -0.6773  0.9557
 2504TIP3    H231708   7.283   3.129   1.415 -0.2715 -0.3217 -1.0420
 2505TIP3   OH231709   1.995   5.152   1.696 -0.3332 -0.2079 -0.1672
 2505TIP3    H131710   2.062   5.087   1.716  0.5414 -0.2361 -2.7842
 2505TIP3    H231711   1.916   5.120   1.740  0.8319 -1.3512  1.1610
 2506TIP3   OH231712   6.822   2.445   8.660 -0.0775 -0.3503 -0.8670
 2506TIP3    H131713   6.749   2.394   8.626 -0.0234 -1.0206 -0.0250
 2506TIP3    H231714   6.900   2.404   8.621 -0.0102 -1.1660  0.0696
 2507TIP3   OH231715   1.446   2.435   2.208  0.0512 -0.0279 -0.5037
 2507TIP3    H131716   1.490   2.355   2.238  0.5244  0.7247  0.8651
 2507TIP3    H231717   1.354   2.410   2.203  0.2431 -0.7788 -0.5379
 2508TIP3   OH231718   4.946   6.425   0.985  0.0401  0.4179 -0.7399
 2508TIP3    H131719   4.909   6.402   1.070 -0.8859 -2.8358 -1.8730
 2508TIP3    H231720   5.034   6.455   1.005  0.1314 -1.0069  1.3709
 2509TIP3   OH231721   4.848   2.076   8.268 -0.5761  0.1336 -0.8336
 2509TIP3    H131722   4.915   2.139   8.294  1.9329 -2.2921 -0.9860
 2509TIP3    H231723   4.801   2.056   8.348 -0.3197  0.9357 -0.4717
 2510TIP3   OH231724   3.326   2.494   0.076 -0.3528  0.1189  0.6846
 2510TIP3    H131725   3.369   2.508  -0.008 -0.1893 -0.7053  0.6195
 2510TIP3    H231726   3.233   2.483   0.054 -0.5114  1.2392  0.7582
 2511TIP3   OH231727   1.905   4.847   9.360  0.2138  0.1850  0.0230
 2511TIP3    H131728   1.992   4.879   9.382 -0.6698  1.5909  1.7390
 2511TIP3    H231729   1.878   4.901   9.286  1.0149 -0.6887 -0.9331
 2512TIP3   OH231730   1.156   5.440   9.189 -0.0957 -0.0226  0.0834
 2512TIP3    H131731   1.137   5.355   9.228 -1.4716 -0.3231 -1.1645
 2512TIP3    H231732   1.092   5.499   9.226 -0.5065 -0.0048 -0.6408
 2513TIP3   OH231733   3.839   0.593   7.686 -0.0295 -0.1301 -0.8177
 2513TIP3    H131734   3.814   0.678   7.720  1.2390  0.5732 -1.5488
 2513TIP3    H231735   3.806   0.592   7.596  0.8537  0.0231 -1.1512
 2514TIP3   OH231736   1.725   7.385   2.240 -0.1922  0.3156 -0.1221
 2514TIP3    H131737   1.749   7.477   2.245 -1.1325  0.6648 -1.6106
 2514TIP3    H231738   1.695   7.372   2.151 -3.0741 -0.6973  0.8932
 2515TIP3   OH231739   3.692   4.991   8.420 -0.5078  0.0741  0.0882
 2515TIP3    H131740   3.774   4.946   8.443 -0.8835 -0.3810  0.5750
 2515TIP3    H231741   3.623   4.928   8.443 -0.9913  0.4154 -0.4059
 2516TIP3   OH231742   3.090   3.451   9.087  0.2541  0.0866  0.4362
 2516TIP3    H131743   3.154   3.379   9.093  0.6394  0.2778 -0.9723
 2516TIP3    H231744   3.126   3.509   9.020 -0.7195  0.9133  0.6120
 2517TIP3   OH231745   2.885   3.657   9.367 -0.4163  0.5632  0.6973
 2517TIP3    H131746   2.808   3.711   9.383 -1.2284 -0.1788 -0.5206
 2517TIP3    H231747   2.948   3.716   9.327 -0.0071  1.3735  2.4538
 2518TIP3   OH231748   2.996   0.198   2.447  0.6080  0.1553 -0.0700
 2518TIP3    H131749   3.026   0.195   2.537  3.6977 -0.3919 -1.0195
 2518TIP3    H231750   2.912   0.151   2.448  0.0110  1.1312  2.6407
 2519TIP3   OH231751   1.392   2.035   8.336 -0.4156  0.0115  0.0278
 2519TIP3    H131752   1.478   2.076   8.328 -0.6033  0.3737 -0.1861
 2519TIP3    H231753   1.401   1.973   8.407  0.5259 -1.2246 -1.1239
 2520TIP3   OH231754   3.799   0.428   7.928  0.3220  0.2518 -0.4454
 2520TIP3    H131755   3.803   0.479   7.848  1.4157  0.3823 -0.3128
 2520TIP3    H231756   3.792   0.493   7.998  0.9346  0.1993 -0.3304
 2521TIP3   OH231757   1.446   1.569   0.554  0.1431 -0.4715 -0.3064
 2521TIP3    H131758   1.385   1.503   0.589  1.0305 -0.6551  0.9492
 2521TIP3    H231759   1.474   1.619   0.631  0.3586  0.6493 -1.0902
 2522TIP3   OH231760   4.070   5.968   2.224  0.2334 -0.4595 -0.2886
 2522TIP3    H131761   4.162   5.941   2.213  0.1530 -1.2218  0.8051
 2522TIP3    H231762   4.020   5.890   2.202 -0.0665 -0.7441  1.3409
 2523TIP3   OH231763   4.816   3.695   8.036  0.2365 -0.4915 -0.4778
 2523TIP3    H131764   4.828   3.737   7.951 -0.1811 -1.8067 -1.2067
 2523TIP3    H231765   4.896   3.715   8.084  1.3765 -1.4375 -1.9250
 2524TIP3   OH231766   2.980   7.155   6.976 -0.0948 -0.3916 -0.3732
 2524TIP3    H131767   2.949   7.246   6.976 -0.3301 -0.4521  0.9708
 2524TIP3    H231768   2.914   7.107   7.025  0.6025 -1.0741 -0.0813
 2525TIP3   OH231769   5.938   3.054   1.659  0.5085 -0.2595  0.2304
 2525TIP3    H131770   5.989   3.135   1.653  0.3668 -0.1848 -0.0043
 2525TIP3    H231771   5.934   3.034   1.752  0.8389 -0.1843  0.2599
 2526TIP3   OH231772   2.257   6.003   7.713  0.1266  0.4634  0.4208
 2526TIP3    H131773   2.273   6.001   7.618  0.0924  0.8187  0.4052
 2526TIP3    H231774   2.250   5.911   7.738  1.7572  0.2727  0.3415
 2527TIP3   OH231775   3.463   5.789   0.154  0.1878 -0.3265  0.3045
 2527TIP3    H131776   3.374   5.820   0.167  0.0543 -1.2326  1.7787
 2527TIP3    H231777   3.482   5.736   0.231  1.7321 -0.7904 -0.3437
 2528TIP3   OH231778   3.888   7.121   8.831  0.5369  0.0095  0.2178
 2528TIP3    H131779   3.905   7.176   8.754 -1.4638 -0.3132 -0.5244
 2528TIP3    H231780   3.869   7.035   8.795 -2.0917  0.2235  0.8472
 2529TIP3   OH231781   1.701   4.054   0.744 -0.6121  0.1731  0.2740
 2529TIP3    H131782   1.662   4.126   0.693 -0.5958  0.2938  0.4312
 2529TIP3    H231783   1.794   4.074   0.745 -0.3662 -0.7731 -1.1546
 2530TIP3   OH231784   3.000   7.235   6.605  0.1692  0.1819  0.7188
 2530TIP3    H131785   2.921   7.247   6.553  0.9079 -1.5705 -0.9185
 2530TIP3    H231786   3.040   7.322   6.609 -1.4053  0.9267  0.9172
 2531TIP3   OH231787   1.348   1.435   1.636 -0.4844  0.5945  0.2153
 2531TIP3    H131788   1.254   1.421   1.641 -0.2342 -2.1982 -0.9260
 2531TIP3    H231789   1.384   1.386   1.710  0.1136  1.1118  0.2815
 2532TIP3   OH231790   4.087   2.987   6.895 -0.1874 -0.2585  0.0563
 2532TIP3    H131791   4.149   3.029   6.954 -0.0657 -0.3816  0.0171
 2532TIP3    H231792   4.035   3.059   6.859 -1.1570 -0.3013  1.3217
 2533TIP3   OH231793   0.594   3.026   8.876  0.5625 -0.1557 -0.3123
 2533TIP3    H131794   0.523   3.085   8.851 -1.8619 -3.1628 -1.1334
 2533TIP3    H231795   0.617   3.053   8.965 -1.7516  0.8487  0.0662
 2534TIP3   OH231796   3.114   6.220   8.590  0.0713 -0.2293 -0.0719
 2534TIP3    H131797   3.145   6.173   8.513  0.8769  0.4280 -0.1667
 2534TIP3    H231798   3.125   6.313   8.567  3.0563  0.0073  1.8746
 2535TIP3   OH231799   2.750   4.359   1.750 -0.4132  0.1100  0.2152
 2535TIP3    H131800   2.691   4.338   1.677  0.4193  0.4074 -0.5588
 2535TIP3    H231801   2.837   4.336   1.718  0.0074  0.6182  0.9698
 2536TIP3   OH231802   4.557   4.209   7.711  0.1564  0.3753 -0.5010
 2536TIP3    H131803   4.494   4.242   7.775 -0.1568 -0.7609 -0.2135
 2536TIP3    H231804   4.526   4.244   7.627 -1.7913 -1.3897 -0.5993
 2537TIP3   OH231805   3.505   2.339   8.222  0.4972  0.3462  0.0228
 2537TIP3    H131806   3.457   2.293   8.290  1.2566 -1.0209 -0.3056
 2537TIP3    H231807   3.487   2.432   8.236 -2.2705 -0.0880 -0.1568
 2538TIP3   OH231808   0.666   4.731   7.559 -0.6036  0.2734  0.0467
 2538TIP3    H131809   0.605   4.805   7.550  0.4979  1.1591 -0.3359
 2538TIP3    H231810   0.742   4.756   7.507  0.4016 -0.4873  1.1004
 2539TIP3   OH231811   0.872   4.100   0.895 -0.0670  0.0602  0.1351
 2539TIP3    H131812   0.861   4.164   0.966 -0.3544  0.7817 -0.5404
 2539TIP3    H231813   0.900   4.020   0.939 -1.5712  0.0808  1.2455
 2540TIP3   OH231814   0.652   2.634   0.529  0.1887 -0.0765  0.4594
 2540TIP3    H131815   0.720   2.584   0.574 -0.4855 -0.2564  1.3205
 2540TIP3    H231816   0.586   2.651   0.597  0.0073  1.2667 -0.0064
 2541TIP3   OH231817   2.782   4.451   8.340  0.0955  0.6018 -0.2226
 2541TIP3    H131818   2.745   4.517   8.399  0.0766  0.1093  0.3261
 2541TIP3    H231819   2.871   4.482   8.323 -0.6179  1.9521 -1.7909
 2542TIP3   OH231820   6.779   2.970   7.936  0.5366 -0.1005  0.3630
 2542TIP3    H131821   6.710   2.956   8.000  0.5954 -2.5022  0.0094
 2542TIP3    H231822   6.772   3.063   7.913 -1.8659 -0.0186  1.1067
 2543TIP3   OH231823   0.733   0.768   9.576 -0.2914 -0.0375  0.7945
 2543TIP3    H131824   0.739   0.784   9.670 -3.5373  0.4718  1.0287
 2543TIP3    H231825   0.712   0.853   9.538 -2.2775 -0.7861  0.0875
 2544TIP3   OH231826   4.732   1.764   2.227  0.0990  0.3210 -0.4774
 2544TIP3    H131827   4.687   1.734   2.148  0.5274  1.2524 -1.0821
 2544TIP3    H231828   4.816   1.718   2.225 -0.2993 -0.4550 -0.0014
 2545TIP3   OH231829   6.032   5.089   8.329 -0.3409  0.0753 -0.1346
 2545TIP3    H131830   6.101   5.023   8.329  0.7297  1.1634 -0.6254
 2545TIP3    H231831   5.952   5.039   8.314  0.0398 -1.4694  2.3271
 2546TIP3   OH231832   6.213   0.595   1.026 -0.4925  0.5909  0.3973
 2546TIP3    H131833   6.174   0.624   1.108  0.0549  0.7213  0.6204
 2546TIP3    H231834   6.177   0.653   0.959 -2.4681 -0.7553  0.2235
 2547TIP3   OH231835   3.804   0.060   1.940 -0.6171 -0.2077  0.1729
 2547TIP3    H131836   3.766   0.145   1.964 -0.5906  0.6411 -2.4355
 2547TIP3    H231837   3.746  -0.004   1.981 -1.3405  1.0673  1.2234
 2548TIP3   OH231838   5.870   0.577   1.243  0.5489 -0.3557  0.2153
 2548TIP3    H131839   5.807   0.556   1.312 -1.8878  1.0314 -1.4494
 2548TIP3    H231840   5.880   0.672   1.247  2.0245 -0.4727 -0.0310
 2549TIP3   OH231841   6.567   0.461   1.636 -0.4973 -0.2927 -0.2329
 2549TIP3    H131842   6.655   0.426   1.650  0.0392  0.2862 -1.8954
 2549TIP3    H231843   6.578   0.556   1.636 -1.2311 -0.1957  0.1377
 2550TIP3   OH231844   1.770   5.894   0.468 -0.5411  0.1170 -0.6852
 2550TIP3    H131845   1.746   5.907   0.560 -0.8219  3.0999 -1.0837
 2550TIP3    H231846   1.859   5.859   0.471 -0.0975  1.2593  0.7552
 2551TIP3   OH231847   4.310   2.060   2.297  0.3616 -0.2124 -0.0582
 2551TIP3    H131848   4.387   2.004   2.306 -0.9642 -2.0555  0.4529
 2551TIP3    H231849   4.238   2.008   2.332 -1.1898  1.3310 -0.7828
 2552TIP3   OH231850   0.839   4.748   9.751 -0.1469 -0.8066 -0.3324
 2552TIP3    H131851   0.929   4.745   9.783 -0.8507  0.2727  1.9636
 2552TIP3    H231852   0.790   4.790   9.821 -2.3176 -0.5978 -1.8736
 2553TIP3   OH231853   0.778   0.709   9.854  0.6971  0.3654 -0.4383
 2553TIP3    H131854   0.846   0.646   9.878  0.2597 -0.5123 -1.4518
 2553TIP3    H231855   0.723   0.716   9.933  0.0119 -1.4971 -0.7036
 2554TIP3   OH231856   0.229   1.073   9.800 -0.3475 -0.4600  0.4560
 2554TIP3    H131857   0.288   1.045   9.730 -1.5219 -0.2469 -0.6559
 2554TIP3    H231858   0.197   0.991   9.839 -2.0893 -0.7028 -1.3468
 2555TIP3   OH231859   0.995   2.579   8.010  0.1023  0.3142  0.0315
 2555TIP3    H131860   0.960   2.639   8.076 -1.3472  0.1745 -0.5778
 2555TIP3    H231861   0.951   2.496   8.027  1.0970 -0.2339  0.0245
 2556TIP3   OH231862   2.692   4.087   8.256 -0.3653 -0.1181  0.3168
 2556TIP3    H131863   2.665   4.006   8.213  2.2507 -0.9480  0.0987
 2556TIP3    H231864   2.758   4.060   8.320 -0.5252  1.6848  1.3056
 2557TIP3   OH231865   4.062   3.282   1.008 -0.0774 -0.0678 -0.1676
 2557TIP3    H131866   4.065   3.222   0.933  0.4485  0.6529 -0.7415
 2557TIP3    H231867   4.084   3.227   1.083 -1.7862 -1.0673 -0.3425
 2558TIP3   OH231868   6.342   3.220   1.079  0.4202 -0.2064  0.7625
 2558TIP3    H131869   6.340   3.155   1.150  1.6309 -0.4237  0.6243
 2558TIP3    H231870   6.411   3.281   1.105  1.1022 -0.4762 -0.3859
 2559TIP3   OH231871   0.378   3.219   9.443 -0.2555  0.0200 -0.7675
 2559TIP3    H131872   0.308   3.189   9.500  0.5168 -0.8879 -0.2765
 2559TIP3    H231873   0.452   3.234   9.501  0.2097  0.1834 -1.3865
 2560TIP3   OH231874   2.823   1.489   9.238 -0.0028 -0.4669 -0.3389
 2560TIP3    H131875   2.798   1.441   9.317  0.9079  1.8826  1.4697
 2560TIP3    H231876   2.909   1.524   9.257  0.6761 -0.6137 -2.7994
 2561TIP3   OH231877   1.948   2.360   0.605  0.5052 -0.1268  0.0094
 2561TIP3    H131878   1.919   2.269   0.614  0.3434 -0.0647  0.1103
 2561TIP3    H231879   1.868   2.410   0.592  0.6448 -0.0895 -0.8228
 2562TIP3   OH231880   4.022   1.815   8.700  0.0106 -0.1315  0.5699
 2562TIP3    H131881   3.984   1.758   8.767  1.0062 -0.0985  1.1691
 2562TIP3    H231882   3.972   1.793   8.621  0.5779 -2.1213  0.6894
 2563TIP3   OH231883   6.019   2.635   8.136  0.1965 -0.1789  0.7302
 2563TIP3    H131884   6.067   2.674   8.064  0.6204  0.1877  1.2027
 2563TIP3    H231885   6.087   2.613   8.201  0.0920 -2.4632  0.1551
 2564TIP3   OH231886   0.608   7.513   1.253 -0.2379  0.4616  0.0894
 2564TIP3    H131887   0.640   7.600   1.227 -0.1246  0.0428 -1.2631
 2564TIP3    H231888   0.513   7.518   1.241 -0.1560  0.1736 -0.7637
 2565TIP3   OH231889   5.438   5.678   9.423 -0.2064 -0.2029 -0.1273
 2565TIP3    H131890   5.405   5.725   9.346  0.1857  0.5534  0.1539
 2565TIP3    H231891   5.533   5.680   9.413 -0.1593 -0.2401  0.3023
 2566TIP3   OH231892   1.568   5.235   1.120 -0.3657  0.3499  0.3502
 2566TIP3    H131893   1.532   5.259   1.034  0.2576  1.2317  0.3223
 2566TIP3    H231894   1.591   5.142   1.112 -0.1634  0.4659 -0.4937
 2567TIP3   OH231895   4.991   6.512   8.076  0.3050  0.6604  0.1777
 2567TIP3    H131896   4.977   6.417   8.073 -0.4681  0.7760 -0.0112
 2567TIP3    H231897   4.946   6.540   8.155  0.1967  0.9270  0.0217
 2568TIP3   OH231898   0.312   3.087   0.788 -1.1255  0.2367  0.0029
 2568TIP3    H131899   0.242   3.102   0.852 -0.2254 -3.0092  2.0112
 2568TIP3    H231900   0.392   3.085   0.841  0.0422  0.2543 -1.6933
 2569TIP3   OH231901   7.657   4.304   7.759  0.3110  0.0538  0.1462
 2569TIP3    H131902   7.617   4.240   7.816  2.4877 -0.5816  1.0620
 2569TIP3    H231903   7.584   4.350   7.718 -1.3015 -0.4045  2.3898
 2570TIP3   OH231904   0.532   0.975   1.111 -0.2615  0.0546 -0.2336
 2570TIP3    H131905   0.440   0.983   1.084  0.1488 -1.0318 -2.1413
 2570TIP3    H231906   0.558   0.888   1.079  1.6582  0.6873 -0.4751
 2571TIP3   OH231907   1.657   1.820   7.863  0.3701 -0.1436 -0.2079
 2571TIP3    H131908   1.678   1.792   7.952 -1.1926  1.5367  0.7653
 2571TIP3    H231909   1.705   1.760   7.806  0.7038 -1.8233  1.7523
 2572TIP3   OH231910   5.814   2.614   8.509 -0.5425  0.1247  0.3261
 2572TIP3    H131911   5.762   2.663   8.572 -0.6931 -0.4728  0.6780
 2572TIP3    H231912   5.865   2.680   8.462 -1.5709  0.7183  0.0166
 2573TIP3   OH231913   6.054   4.006   0.726  0.0746 -0.0201  0.2740
 2573TIP3    H131914   6.069   3.948   0.652  0.2112 -0.1737  0.4221
 2573TIP3    H231915   6.011   4.083   0.688 -1.5219 -0.8502  0.2937
 2574TIP3   OH231916   6.366   6.011   9.924  0.6382 -0.3124  0.4279
 2574TIP3    H131917   6.318   5.941   9.967  1.3733 -0.9446  0.2264
 2574TIP3    H231918   6.304   6.084   9.920 -0.8488 -1.5915 -1.2008
 2575TIP3   OH231919   1.983   3.877   7.879 -0.2226 -0.2486 -0.4909
 2575TIP3    H131920   1.989   3.798   7.825 -1.1654 -1.5882  1.2464
 2575TIP3    H231921   1.902   3.866   7.929  0.9393  0.5386  1.7140
 2576TIP3   OH231922   1.401   5.069   9.240  0.1770  0.2844  0.0881
 2576TIP3    H131923   1.461   5.022   9.181 -0.0370  2.3227 -1.8912
 2576TIP3    H231924   1.451   5.144   9.271 -0.8583  1.2167 -0.4212
 2577TIP3   OH231925   0.606   4.356   0.929 -0.3105 -0.0137  0.3256
 2577TIP3    H131926   0.702   4.363   0.924 -0.3632  0.0693 -0.7063
 2577TIP3    H231927   0.587   4.265   0.910 -0.5207  0.2934 -0.9856
 2578TIP3   OH231928   3.445   5.217   9.915 -0.6723  0.2719  0.2514
 2578TIP3    H131929   3.526   5.169   9.897 -0.7740 -0.5789  1.8183
 2578TIP3    H231930   3.459   5.255  10.002 -1.6050  0.8803  0.1457
 2579TIP3   OH231931   5.636   0.091   0.356 -0.1247  0.0892 -0.1449
 2579TIP3    H131932   5.669   0.151   0.423  2.0845  1.8769 -2.6470
 2579TIP3    H231933   5.698   0.018   0.357 -0.5007 -0.2330  0.1886
 2580TIP3   OH231934   1.390   2.682   0.949  0.2005  0.0291  0.0697
 2580TIP3    H131935   1.301   2.715   0.962  0.6405  1.2972  0.0698
 2580TIP3    H231936   1.446   2.749   0.989  1.1322 -1.1487  0.8129
 2581TIP3   OH231937   2.716   5.868   9.574  0.3472  0.1858  0.1462
 2581TIP3    H131938   2.694   5.838   9.486  2.0001 -0.1356 -0.1721
 2581TIP3    H231939   2.717   5.964   9.567  0.5696  0.1581 -0.2111
 2582TIP3   OH231940   2.303   6.319   2.425  0.0222 -0.1881 -0.4160
 2582TIP3    H131941   2.340   6.243   2.381  0.7490  1.0069 -1.9584
 2582TIP3    H231942   2.223   6.339   2.376  0.8313  1.1510 -1.2680
 2583TIP3   OH231943   3.681   2.369   9.327 -0.1299 -0.6342  0.5129
 2583TIP3    H131944   3.742   2.332   9.390  0.3923  2.9291  2.3799
 2583TIP3    H231945   3.596   2.337   9.354  0.4429 -2.0250  0.7423
 2584TIP3   OH231946   3.964   0.912   9.681  0.1257  0.3605  0.0149
 2584TIP3    H131947   4.006   0.862   9.751 -1.0679 -2.0338 -0.8477
 2584TIP3    H231948   4.036   0.942   9.626  0.9042 -1.8873 -0.3143
 2585TIP3   OH231949   4.256   6.822   7.679 -0.6751 -0.4622  0.5172
 2585TIP3    H131950   4.238   6.729   7.695  0.7471 -0.6642  1.0049
 2585TIP3    H231951   4.216   6.867   7.753  0.1165 -0.8378  1.1806
 2586TIP3   OH231952   7.276   6.701   9.217  0.1307 -0.3407  0.1220
 2586TIP3    H131953   7.285   6.702   9.122 -0.3227  0.2100  0.0795
 2586TIP3    H231954   7.351   6.649   9.248  1.2630  0.9191 -0.4291
 2587TIP3   OH231955   4.244   6.236   0.519 -0.6126 -0.0037 -0.2635
 2587TIP3    H131956   4.319   6.262   0.465 -0.1090  1.2764  0.9758
 2587TIP3    H231957   4.240   6.141   0.509 -0.4142  0.1503 -2.3396
 2588TIP3   OH231958   1.486   6.694   0.943  0.7102 -0.0147  0.5294
 2588TIP3    H131959   1.425   6.723   0.876  0.2270 -0.8187  0.6033
 2588TIP3    H231960   1.527   6.774   0.976  1.2232  0.3635 -0.9628
 2589TIP3   OH231961   1.457   5.813   1.166  0.1876  0.1123 -0.1104
 2589TIP3    H131962   1.490   5.790   1.252 -0.3290  2.2544  0.7186
 2589TIP3    H231963   1.522   5.873   1.130 -0.2747  0.3188 -0.6277
 2590TIP3   OH231964   6.376   2.111   1.566 -0.3533  0.6327 -0.1964
 2590TIP3    H131965   6.296   2.093   1.616  0.6750 -1.5154  0.8408
 2590TIP3    H231966   6.347   2.114   1.475 -1.7820  1.1105  0.2505
 2591TIP3   OH231967   2.798   6.829   2.308 -0.3943  0.0036 -0.1870
 2591TIP3    H131968   2.756   6.838   2.394  0.9250  0.4802  0.4480
 2591TIP3    H231969   2.748   6.887   2.250 -1.7249 -0.8417  0.0681
 2592TIP3   OH231970   1.165   6.394   8.626 -0.6476  0.2803  0.1510
 2592TIP3    H131971   1.112   6.387   8.547 -2.1167  1.6478  0.9771
 2592TIP3    H231972   1.256   6.387   8.594 -1.2213 -2.5895 -1.2305
 2593TIP3   OH231973   2.278   6.089   0.286  0.6270 -0.4875 -0.7005
 2593TIP3    H131974   2.216   6.032   0.240  0.0425  1.3544 -2.3154
 2593TIP3    H231975   2.241   6.176   0.279  1.1608  0.1075  2.2986
 2594TIP3   OH231976   7.288   5.579   0.640  0.5685 -0.1921  0.5325
 2594TIP3    H131977   7.194   5.574   0.621  0.7681  0.8351 -0.8238
 2594TIP3    H231978   7.322   5.642   0.577  2.0062  0.2385  1.6967
 2595TIP3   OH231979   2.149   7.560   6.377 -0.0050 -0.7098  0.5715
 2595TIP3    H131980   2.080   7.615   6.340  0.1266 -1.0829 -0.2654
 2595TIP3    H231981   2.222   7.621   6.392  0.0937 -0.6125 -0.2242
 2596TIP3   OH231982   1.766   7.248   7.919 -0.0394  0.1051  1.0274
 2596TIP3    H131983   1.729   7.256   8.007  0.2366  1.0484  1.0696
 2596TIP3    H231984   1.861   7.248   7.933  0.0033 -0.5429  0.7854
 2597TIP3   OH231985   1.043   1.100   8.080  0.0156  0.0188 -0.2209
 2597TIP3    H131986   1.031   1.187   8.117  0.0380 -1.0865  2.6222
 2597TIP3    H231987   1.041   1.041   8.155  4.0022 -2.1238 -1.4994
 2598TIP3   OH231988   3.992   4.808   1.673  0.5229  0.0935  0.0625
 2598TIP3    H131989   3.913   4.772   1.634  0.3135  0.0232  0.5434
 2598TIP3    H231990   4.059   4.797   1.606  0.0824  0.3464 -0.4321
 2599TIP3   OH231991   4.585   4.652   1.539 -0.0313  0.6236 -0.1692
 2599TIP3    H131992   4.579   4.621   1.449 -0.2329  2.6301 -0.9064
 2599TIP3    H231993   4.586   4.748   1.532  1.6535  0.8431  1.8568
 2600TIP3   OH231994   1.939   2.641   8.771 -0.5428 -0.1013 -0.3925
 2600TIP3    H131995   1.972   2.716   8.820 -1.0139 -0.1939  0.0746
 2600TIP3    H231996   1.979   2.565   8.813 -0.3219 -0.1309 -0.6570
 2601TIP3   OH231997   2.817   4.105   8.631 -0.3446  0.1120 -0.3306
 2601TIP3    H131998   2.790   4.197   8.633 -1.5906 -0.1226  3.8569
 2601TIP3    H231999   2.743   4.059   8.591 -1.2196  0.6442  0.6187
 2602TIP3   OH232000   5.108   0.938   7.389 -0.1128  0.6394  0.2738
 2602TIP3    H132001   5.036   0.981   7.342 -0.3603  0.2851  0.3306
 2602TIP3    H232002   5.109   0.849   7.354  0.3152  0.6512  0.2561
 2603TIP3   OH232003   0.026   4.410   9.104 -0.0576  0.5872 -0.0790
 2603TIP3    H132004   0.088   4.374   9.041 -0.9849 -0.3571 -0.4947
 2603TIP3    H232005   0.078   4.430   9.182  0.4956 -1.7969  0.2291
 2604TIP3   OH232006   5.357   6.476   0.104  0.0252  0.0164 -0.6701
 2604TIP3    H132007   5.329   6.530   0.030  0.7986  1.6685  0.1844
 2604TIP3    H232008   5.320   6.389   0.087 -1.1831  0.7934 -2.1446
 2605TIP3   OH232009   4.748   0.748   7.667  0.2539  0.1836  0.0784
 2605TIP3    H132010   4.838   0.726   7.690 -0.0962  0.1538  1.5394
 2605TIP3    H232011   4.724   0.683   7.601  0.7596 -0.8889  0.9225
 2606TIP3   OH232012   3.150   2.428   9.073  0.1642  0.3046 -0.5181
 2606TIP3    H132013   3.136   2.334   9.081  1.1611 -0.0793 -2.5812
 2606TIP3    H232014   3.159   2.459   9.163  0.0919 -1.6140  0.1832
 2607TIP3   OH232015   2.280   4.253   7.958 -0.3784  0.5612  0.0158
 2607TIP3    H132016   2.374   4.259   7.945 -0.3766 -0.1338 -0.3400
 2607TIP3    H232017   2.253   4.180   7.903 -1.0684  0.5098  0.4108
 2608TIP3   OH232018   4.382   4.615   0.082 -0.4445  0.2748 -0.1797
 2608TIP3    H132019   4.288   4.628   0.066 -0.3831  1.0698  0.0417
 2608TIP3    H232020   4.400   4.527   0.050 -1.0440  0.5183 -1.2353
 2609TIP3   OH232021   4.440   2.040   9.263 -0.3565  0.7258 -0.1018
 2609TIP3    H132022   4.385   2.067   9.336 -1.6942  1.8010 -1.4293
 2609TIP3    H232023   4.504   2.111   9.253 -0.8192  1.0866 -0.5805
 2610TIP3   OH232024   1.970   2.994   0.673 -0.1504  0.1639  0.0027
 2610TIP3    H132025   1.922   3.027   0.597 -0.1802  0.9235  0.3420
 2610TIP3    H232026   1.976   3.069   0.732  0.8299 -0.1199  0.2810
 2611TIP3   OH232027   1.457   2.845   2.551  0.2374  0.0091 -0.3214
 2611TIP3    H132028   1.431   2.927   2.593 -1.5525 -0.9868  0.6582
 2611TIP3    H232029   1.424   2.777   2.609  1.2207 -1.4235 -1.3727
 2612TIP3   OH232030   5.016   5.044   8.765 -0.2349 -0.3587 -0.2702
 2612TIP3    H132031   5.012   5.033   8.860  1.8359 -1.9534 -0.3158
 2612TIP3    H232032   5.106   5.068   8.747 -0.5182 -0.3951 -1.8639
 2613TIP3   OH232033   3.862   6.907   0.811  0.0123  0.4693  0.6262
 2613TIP3    H132034   3.783   6.926   0.862 -0.4946  1.0648 -0.3643
 2613TIP3    H232035   3.844   6.941   0.724  1.2770  0.3992  0.3152
 2614TIP3   OH232036   0.300   6.785   8.244  0.0706 -0.3140  0.1019
 2614TIP3    H132037   0.257   6.780   8.329 -1.7741  1.3443 -0.6493
 2614TIP3    H232038   0.361   6.858   8.251 -1.3595  0.9915 -0.4541
 2615TIP3   OH232039   2.792   1.773   9.009 -0.2883  0.5082  0.1233
 2615TIP3    H132040   2.714   1.757   9.062 -1.0801  1.2242 -0.7654
 2615TIP3    H232041   2.814   1.687   8.972 -1.2622  0.4561 -0.3851
 2616TIP3   OH232042   6.670   6.548   0.304  0.3183  0.1335 -0.0054
 2616TIP3    H132043   6.694   6.457   0.285 -0.2900  0.1901 -1.1629
 2616TIP3    H232044   6.584   6.542   0.346  0.7044  0.1279  0.7921
 2617TIP3   OH232045   7.541   2.875   8.255  0.3041 -0.2855 -0.4665
 2617TIP3    H132046   7.501   2.832   8.179  1.1057  1.7609 -2.1538
 2617TIP3    H232047   7.511   2.965   8.250 -0.6903 -0.3390  2.4880
 2618TIP3   OH232048   3.060   5.462   1.720  0.1881  0.3942 -0.3121
 2618TIP3    H132049   3.053   5.461   1.816 -0.6982  0.2135 -0.3701
 2618TIP3    H232050   3.093   5.375   1.698  2.8507  1.2391 -0.0338
 2619TIP3   OH232051   6.317   1.819   7.802 -0.2322 -0.2271  0.1927
 2619TIP3    H132052   6.259   1.888   7.834 -0.1349  0.2102 -0.5481
 2619TIP3    H232053   6.377   1.864   7.743 -1.1606 -1.1733 -1.5585
 2620TIP3   OH232054   2.314   3.173   9.638  0.4554 -0.5850 -0.1909
 2620TIP3    H132055   2.311   3.221   9.721 -0.0102  1.2867 -1.2491
 2620TIP3    H232056   2.360   3.092   9.660 -0.8524 -0.7769  2.1914
 2621TIP3   OH232057   1.555   2.205   2.288  0.0494 -0.6708  0.2812
 2621TIP3    H132058   1.594   2.199   2.201  1.2252 -0.7886  0.7929
 2621TIP3    H232059   1.534   2.114   2.311 -0.3505 -0.6295  0.0894
 2622TIP3   OH232060   4.292   5.722   2.504  0.3199 -0.2873 -0.1329
 2622TIP3    H132061   4.280   5.794   2.442  0.7609 -0.1487 -0.0625
 2622TIP3    H232062   4.386   5.704   2.502 -0.1137 -3.0226 -2.5443
 2623TIP3   OH232063   2.752   1.376   1.765 -0.1516 -0.3857  0.1857
 2623TIP3    H132064   2.813   1.308   1.736 -1.5555 -1.9700  0.7253
 2623TIP3    H232065   2.791   1.458   1.737  1.0650 -1.4880 -1.5568
 2624TIP3   OH232066   7.518   2.670   8.047 -0.2850 -0.1997 -0.9549
 2624TIP3    H132067   7.444   2.638   7.994 -0.4675  1.1949 -1.5939
 2624TIP3    H232068   7.579   2.707   7.983  0.4686 -0.3571 -0.3386
 2625TIP3   OH232069   3.685   0.934   9.791 -0.3808 -0.1540  0.1336
 2625TIP3    H132070   3.773   0.959   9.762  0.0505 -0.8213  0.8274
 2625TIP3    H232071   3.631   1.011   9.773  0.9898  1.5391  2.6196
 2626TIP3   OH232072   6.596   2.872   0.424  0.4321  0.3846 -0.1187
 2626TIP3    H132073   6.517   2.832   0.462  0.4515 -0.0416 -0.5060
 2626TIP3    H232074   6.629   2.930   0.492 -0.1226  0.4383  0.1142
 2627TIP3   OH232075   2.068   1.107   9.729 -0.1420 -0.2664  0.0963
 2627TIP3    H132076   2.094   1.196   9.707 -0.0351 -0.5446 -0.9621
 2627TIP3    H232077   2.045   1.067   9.645 -0.4367 -1.1555  0.5836
 2628TIP3   OH232078   4.039   5.186   1.635 -0.4603 -0.1594  0.0728
 2628TIP3    H132079   3.957   5.136   1.646  0.0400 -0.7146  1.5085
 2628TIP3    H232080   4.086   5.173   1.717  0.0974  1.9883  0.1498
 2629TIP3   OH232081   1.795   4.439   7.188  0.1935 -0.1993 -0.4764
 2629TIP3    H132082   1.724   4.374   7.190  2.3224 -2.6410  0.4145
 2629TIP3    H232083   1.868   4.394   7.147  1.6179  1.8774 -0.3699
 2630TIP3   OH232084   2.935   5.893   0.763  0.4092 -0.1118 -0.4272
 2630TIP3    H132085   2.938   5.802   0.732 -0.4739  0.6203 -2.8787
 2630TIP3    H232086   3.000   5.938   0.710 -1.9277  1.4206 -2.1801
 2631TIP3   OH232087   0.062   1.670   7.744 -0.3070 -0.3385 -0.3288
 2631TIP3    H132088   0.119   1.638   7.674 -0.1480 -2.1454  0.5883
 2631TIP3    H232089   0.015   1.593   7.775 -0.2289  0.3643  1.7083
 2632TIP3   OH232090   4.818   5.051   0.560 -0.2847  0.4298 -0.4352
 2632TIP3    H132091   4.804   4.979   0.620 -0.7715 -0.3639 -1.4690
 2632TIP3    H232092   4.913   5.054   0.547 -0.1501  0.8013  0.5774
 2633TIP3   OH232093   2.506   6.574   9.759 -0.3226  0.2067 -0.1695
 2633TIP3    H132094   2.544   6.596   9.674  0.0794  0.0072 -0.0427
 2633TIP3    H232095   2.571   6.518   9.801  1.1947  3.1589  1.7647
 2634TIP3   OH232096   0.420   5.623   0.148  0.0781 -0.3990 -0.2396
 2634TIP3    H132097   0.345   5.590   0.198  0.0929  0.3624  0.3062
 2634TIP3    H232098   0.402   5.717   0.138  1.2430 -0.0785  0.4382
 2635TIP3   OH232099   7.200   0.551   0.283  0.2643 -0.0098  0.4103
 2635TIP3    H132100   7.112   0.514   0.284  0.4667 -0.4946  0.7943
 2635TIP3    H232101   7.248   0.497   0.220  0.5295 -0.3325  0.8862
 2636TIP3   OH232102   7.560   2.378   7.960 -0.3154 -0.4018 -0.7514
 2636TIP3    H132103   7.518   2.296   7.935 -0.7041  0.3531 -2.6824
 2636TIP3    H232104   7.492   2.427   8.006 -1.1174  0.1571 -2.4718
 2637TIP3   OH232105   5.850   5.710   9.784  0.9220  0.0754 -0.0610
 2637TIP3    H132106   5.791   5.783   9.803  0.8640 -0.2001  0.8956
 2637TIP3    H232107   5.892   5.733   9.701 -1.0603 -0.0825 -1.1565
 2638TIP3   OH232108   0.370   7.220   9.370  0.0983  0.3074 -0.0956
 2638TIP3    H132109   0.372   7.132   9.409  1.1809  0.4556  0.2262
 2638TIP3    H232110   0.397   7.206   9.279 -0.4852  0.2145 -0.2578
 2639TIP3   OH232111   3.541   3.833   8.969  0.2247  0.0171  0.7763
 2639TIP3    H132112   3.595   3.785   9.031 -0.6917  0.0655  1.6426
 2639TIP3    H232113   3.555   3.925   8.992  0.6957  0.0972  0.2027
 2640TIP3   OH232114   4.013   0.812   8.401  0.3301  0.1552 -0.3186
 2640TIP3    H132115   4.073   0.774   8.465 -1.0578  0.4308  1.1984
 2640TIP3    H232116   4.005   0.903   8.427  0.9377  0.6734 -1.8461
 2641TIP3   OH232117   0.786   5.659   1.019  0.3436  0.4029  0.4746
 2641TIP3    H132118   0.766   5.744   0.978  2.3547  1.2577  1.1286
 2641TIP3    H232119   0.879   5.646   1.001 -0.0690 -2.0564 -0.2327
 2642TIP3   OH232120   6.674   2.744   8.381 -0.5397  0.2807 -0.1618
 2642TIP3    H132121   6.610   2.708   8.442  1.2245 -1.9371  0.5171
 2642TIP3    H232122   6.655   2.703   8.297  0.0330 -0.4748  0.0694
 2643TIP3   OH232123   3.440   0.033   8.353  0.2312  0.2596 -0.0951
 2643TIP3    H132124   3.387   0.113   8.355  0.3537  0.3489 -0.3502
 2643TIP3    H232125   3.378  -0.038   8.370  0.0442  0.3694 -0.3199
 2644TIP3   OH232126   1.498   3.884   0.462 -0.3099 -0.0053 -0.0011
 2644TIP3    H132127   1.593   3.881   0.451 -0.2244  1.5397  0.0510
 2644TIP3    H232128   1.465   3.814   0.406  0.7480  0.9812 -1.9677
 2645TIP3   OH232129   0.791   2.979   1.396  0.0114  0.3994 -0.1730
 2645TIP3    H132130   0.806   2.886   1.383 -0.9893  0.2595 -0.3564
 2645TIP3    H232131   0.754   2.986   1.484  1.9038  0.8366  0.6491
 2646TIP3   OH232132   2.890   4.016   0.193 -0.3610  0.5185 -0.5240
 2646TIP3    H132133   2.863   4.006   0.102  0.8170 -0.6358 -0.7820
 2646TIP3    H232134   2.986   4.018   0.189 -0.2875  0.2254  0.7073
 2647TIP3   OH232135   3.824   4.415   8.356  0.0024  0.1181 -0.1921
 2647TIP3    H132136   3.892   4.435   8.421  0.7447 -2.8207  0.0716
 2647TIP3    H232137   3.833   4.484   8.290  1.6928  1.1069  0.9932
 2648TIP3   OH232138   1.621   4.851   9.397  0.1757  0.5165  0.2330
 2648TIP3    H132139   1.692   4.794   9.367 -1.9692 -1.4410 -1.6594
 2648TIP3    H232140   1.612   4.917   9.328 -0.1756  0.3958  0.1570
 2649TIP3   OH232141   4.268   7.275   9.420  0.0098  0.0481  0.7433
 2649TIP3    H132142   4.345   7.218   9.422 -0.9614 -1.2991  1.6013
 2649TIP3    H232143   4.193   7.215   9.420 -1.0679  1.3068  2.1232
 2650TIP3   OH232144   1.950   1.875   7.014 -0.0245  0.4944 -0.0465
 2650TIP3    H132145   1.868   1.909   6.978 -0.6346 -2.1885 -1.4750
 2650TIP3    H232146   2.009   1.871   6.939  0.8068  0.6423  0.5880
 2651TIP3   OH232147   4.406   3.285   8.368 -0.3933  0.1387  0.6292
 2651TIP3    H132148   4.399   3.278   8.272 -1.0630  0.5002  0.6376
 2651TIP3    H232149   4.483   3.234   8.391  2.6011  3.6722 -0.5822
 2652TIP3   OH232150   6.398   4.536   0.504 -0.4385 -0.1684 -0.2272
 2652TIP3    H132151   6.492   4.543   0.489  0.4823 -0.5966  4.0163
 2652TIP3    H232152   6.378   4.443   0.490  0.3939 -0.5906  1.1327
 2653TIP3   OH232153   6.405   4.747   9.232 -0.3955 -0.4128 -0.0243
 2653TIP3    H132154   6.405   4.743   9.137  0.5063 -0.7178 -0.0145
 2653TIP3    H232155   6.325   4.796   9.254 -0.3556  0.0793 -0.9479
 2654TIP3   OH232156   3.885   1.317   8.193  0.7809 -0.2920  0.1175
 2654TIP3    H132157   3.793   1.290   8.187  1.1312 -1.1701 -1.9109
 2654TIP3    H232158   3.884   1.389   8.257 -1.1504 -0.9140  0.8608
 2655TIP3   OH232159   0.276   6.868   1.116  0.0240  0.1272  0.5393
 2655TIP3    H132160   0.225   6.828   1.045  0.6168 -0.5901  0.5025
 2655TIP3    H232161   0.299   6.795   1.174 -0.2088  0.6609  1.3229
 2656TIP3   OH232162   7.497   7.032   7.433  0.1915 -0.1725  0.4055
 2656TIP3    H132163   7.554   7.108   7.446 -1.7990  1.4937 -0.0120
 2656TIP3    H232164   7.495   6.988   7.518  1.5191  0.1412  0.6067
 2657TIP3   OH232165   0.682   1.841   8.623  0.0851  0.3072 -0.0112
 2657TIP3    H132166   0.726   1.910   8.673 -0.4054  0.5814  0.0507
 2657TIP3    H232167   0.597   1.879   8.600  0.7722  0.6754 -2.1801
 2658TIP3   OH232168   4.158   6.146   2.894 -0.0501  0.2583 -0.0284
 2658TIP3    H132169   4.204   6.063   2.899 -0.5407 -0.1012 -1.2210
 2658TIP3    H232170   4.077   6.132   2.942 -0.3693 -0.1253 -0.6697
 2659TIP3   OH232171   6.908   6.980   8.880  1.2352  0.6530 -0.0382
 2659TIP3    H132172   6.855   6.987   8.960  1.7204  3.0022  0.1604
 2659TIP3    H232173   6.845   6.962   8.811  0.6513 -0.1681  0.6795
 2660TIP3   OH232174   2.660   4.503   0.517  0.5124 -0.2337  0.3378
 2660TIP3    H132175   2.654   4.471   0.427 -1.3290  0.0544  0.3250
 2660TIP3    H232176   2.591   4.569   0.524 -1.1622 -2.0589  2.6693
 2661TIP3   OH232177   3.933   5.932   0.469 -0.2032  0.4024 -0.3501
 2661TIP3    H132178   3.944   5.974   0.554 -0.3016 -0.0103 -0.1323
 2661TIP3    H232179   4.010   5.876   0.460 -0.6551 -0.2571 -0.1214
 2662TIP3   OH232180   4.122   3.599   8.491  0.8116 -0.0288  0.1375
 2662TIP3    H132181   4.120   3.503   8.489  0.9992 -0.0286 -0.1784
 2662TIP3    H232182   4.214   3.620   8.477  0.7015  0.2082 -0.2118
 2663TIP3   OH232183   2.817   5.865   1.422  0.6734  0.0503  0.3017
 2663TIP3    H132184   2.890   5.823   1.375  1.9463  1.8123  0.5991
 2663TIP3    H232185   2.829   5.839   1.513  0.6516 -0.0314  0.2816
 2664TIP3   OH232186   5.258   2.285   9.915 -0.1051 -0.1754  1.0323
 2664TIP3    H132187   5.217   2.284  10.002 -0.3817 -0.6867  0.9017
 2664TIP3    H232188   5.185   2.298   9.854  0.2564  1.7350  0.9473
 2665TIP3   OH232189   0.348   7.498   0.845 -0.1808 -0.0837  0.9463
 2665TIP3    H132190   0.314   7.408   0.851  0.5245 -0.4568 -0.2860
 2665TIP3    H232191   0.431   7.495   0.893 -0.4602  0.0736  1.4420
 2666TIP3   OH232192   1.170   3.186   8.768 -0.3096  0.2056  0.4867
 2666TIP3    H132193   1.100   3.199   8.704 -2.4656 -4.3329  1.4625
 2666TIP3    H232194   1.247   3.162   8.716 -0.5355  1.4486 -0.4723
 2667TIP3   OH232195   4.497   2.291   9.618  0.2218  0.6799  0.3557
 2667TIP3    H132196   4.585   2.281   9.582  0.3173  2.3358  0.0355
 2667TIP3    H232197   4.438   2.264   9.548  0.4537 -0.7694  0.6909
 2668TIP3   OH232198   6.073   2.342   0.111 -0.6978  0.4835  0.3574
 2668TIP3    H132199   5.978   2.353   0.114 -0.5144  2.0152  2.1619
 2668TIP3    H232200   6.100   2.337   0.203  1.1647  2.2632 -0.0102
 2669TIP3   OH232201   3.571   5.607   8.846  0.4064 -0.0420 -0.2227
 2669TIP3    H132202   3.642   5.669   8.831  1.6736 -1.1100  1.0788
 2669TIP3    H232203   3.589   5.535   8.784 -0.8210  0.6574 -1.4379
 2670TIP3   OH232204   1.205   3.163   7.870 -0.0754 -0.3420  0.0412
 2670TIP3    H132205   1.165   3.250   7.868  1.1204  0.2135 -1.5669
 2670TIP3    H232206   1.245   3.157   7.957 -0.6755  0.4582  0.3874
 2671TIP3   OH232207   2.264   4.291   1.281 -0.2457  0.4389 -0.0597
 2671TIP3    H132208   2.314   4.267   1.359 -1.5958  1.4136  1.1546
 2671TIP3    H232209   2.211   4.213   1.262 -0.5820  0.5143  0.5577
 2672TIP3   OH232210   6.736   5.683   9.437  0.1502 -0.4774  0.4773
 2672TIP3    H132211   6.724   5.707   9.529  1.5886 -0.2072  0.6114
 2672TIP3    H232212   6.700   5.757   9.388 -0.8939 -0.7541  0.8075
 2673TIP3   OH232213   6.654   4.742   0.117  0.0632  0.2961 -0.0314
 2673TIP3    H132214   6.575   4.794   0.131  1.8744  3.2110  0.1961
 2673TIP3    H232215   6.665   4.692   0.198 -1.7067 -0.4712 -0.2292
 2674TIP3   OH232216   2.772   2.431   0.836 -0.4427 -0.0744  0.3572
 2674TIP3    H132217   2.822   2.510   0.858  0.4277 -0.3756 -0.4561
 2674TIP3    H232218   2.684   2.448   0.870 -0.3049  1.2949  0.0897
 2675TIP3   OH232219   0.059   5.626   0.014  0.4183 -0.7581 -0.1161
 2675TIP3    H132220   0.101   5.554  -0.034 -0.1971 -1.3907  0.2792
 2675TIP3    H232221   0.104   5.628   0.098 -1.1446 -2.3046  0.8339
 2676TIP3   OH232222   7.189   2.197   1.451 -0.1947  0.4167 -0.2993
 2676TIP3    H132223   7.229   2.136   1.514 -2.0360  1.3462  1.9056
 2676TIP3    H232224   7.142   2.141   1.390 -0.0953 -0.4561  0.4053
 2677TIP3   OH232225   3.442   5.991   9.102 -0.3481 -0.2420  0.1690
 2677TIP3    H132226   3.424   5.937   9.026  0.1602 -0.3352  0.1074
 2677TIP3    H232227   3.512   5.945   9.148  0.8417  0.8690 -0.4524
 2678TIP3   OH232228   7.179   7.627   0.839  0.0697 -0.6630  0.3984
 2678TIP3    H132229   7.146   7.596   0.923 -0.9967  0.2083  0.3242
 2678TIP3    H232230   7.106   7.614   0.778  0.1237  0.5519  0.0474
 2679TIP3   OH232231   5.418   4.851   9.508  0.2223 -0.0400  0.0925
 2679TIP3    H132232   5.455   4.764   9.494  0.6130 -0.0187  0.9767
 2679TIP3    H232233   5.434   4.870   9.600 -1.9730 -0.0310  0.5391
 2680TIP3   OH232234   1.906   0.244   9.930  0.2545 -0.0431  0.4212
 2680TIP3    H132235   1.838   0.187   9.966 -1.3796  2.1368  1.0271
 2680TIP3    H232236   1.883   0.252   9.838 -0.2221  0.5244  0.5817
 2681TIP3   OH232237   5.781   6.880   9.676  0.5937  0.4110  0.0105
 2681TIP3    H132238   5.821   6.919   9.599  1.5432 -1.7809 -0.6864
 2681TIP3    H232239   5.689   6.907   9.672  0.6953  0.5855 -1.7143
 2682TIP3   OH232240   6.439   1.772   0.296 -0.1318  0.2484 -0.1759
 2682TIP3    H132241   6.456   1.735   0.383 -0.2237 -0.0911 -0.2993
 2682TIP3    H232242   6.343   1.770   0.288 -0.1520  0.7063 -0.1038
 2683TIP3   OH232243   5.946   6.411   8.169 -0.0116  0.1296  0.1464
 2683TIP3    H132244   6.039   6.433   8.161  0.0127  0.0767  0.2785
 2683TIP3    H232245   5.901   6.491   8.141  0.0774  0.3201  0.5370
 2684TIP3   OH232246   6.230   5.229   7.753  0.0785 -0.1585 -0.1139
 2684TIP3    H132247   6.251   5.139   7.729 -1.5364 -0.9661  1.2809
 2684TIP3    H232248   6.314   5.268   7.778  0.6309 -1.7380  0.6335
 2685TIP3   OH232249   1.742   7.484   9.260 -0.0925 -0.0267 -0.0906
 2685TIP3    H132250   1.661   7.473   9.210  0.6725  0.4744 -1.4997
 2685TIP3    H232251   1.746   7.406   9.315 -0.9660 -0.6096 -0.8131
 2686TIP3   OH232252   6.453   6.059   8.438  0.2679 -0.4738  0.4562
 2686TIP3    H132253   6.361   6.033   8.434 -0.6457  1.7476  3.1994
 2686TIP3    H232254   6.486   6.018   8.519  1.7682 -1.3267 -0.5385
 2687TIP3   OH232255   3.812   4.176   0.285 -0.0646 -0.1395  0.2207
 2687TIP3    H132256   3.730   4.225   0.288  0.8550  1.3991  1.1858
 2687TIP3    H232257   3.859   4.214   0.211  0.4378  0.0872  0.6541
 2688TIP3   OH232258   1.654   2.419   0.223 -0.2988 -0.0216 -0.2210
 2688TIP3    H132259   1.683   2.467   0.301  0.8328  1.3072 -1.4028
 2688TIP3    H232260   1.702   2.337   0.226  1.1232  0.7602 -0.3973
 2689TIP3   OH232261   2.268   2.725   8.687 -0.7419 -0.1951 -0.1317
 2689TIP3    H132262   2.263   2.793   8.754 -1.2066 -0.4803  0.1253
 2689TIP3    H232263   2.282   2.644   8.736  0.3820 -0.2196 -0.4744
 2690TIP3   OH232264   6.250   4.524   1.671 -0.2047  0.1564  0.6493
 2690TIP3    H132265   6.329   4.532   1.724  1.1158  0.1999 -1.2423
 2690TIP3    H232266   6.232   4.430   1.667 -0.1357  0.1316  0.9201
 2691TIP3   OH232267   4.121   6.871   7.443 -0.2330 -0.7687 -0.4372
 2691TIP3    H132268   4.167   6.851   7.524  0.0827 -1.1691 -0.7090
 2691TIP3    H232269   4.098   6.964   7.450  2.8149  0.1769 -1.3195
 2692TIP3   OH232270   2.524   5.322   9.173  0.1073  0.0171  0.1778
 2692TIP3    H132271   2.595   5.384   9.155  0.4944 -0.4036  0.2226
 2692TIP3    H232272   2.492   5.347   9.260  0.6761 -0.2243  0.4682
 2693TIP3   OH232273   2.696   3.607   1.700  0.3438  0.0301  0.1470
 2693TIP3    H132274   2.649   3.527   1.724  0.2389  0.1103  0.2087
 2693TIP3    H232275   2.771   3.611   1.760  0.6593 -0.3153 -0.2233
 2694TIP3   OH232276   1.734   7.421   1.952 -0.4645 -0.1055  0.0107
 2694TIP3    H132277   1.693   7.372   1.880  1.5766 -2.0639  0.0671
 2694TIP3    H232278   1.748   7.508   1.917  0.7456 -1.0861 -2.1315
 2695TIP3   OH232279   0.303   3.336   8.608 -0.8046  0.3099  0.1632
 2695TIP3    H132280   0.349   3.275   8.551  2.0184  0.3784  2.1414
 2695TIP3    H232281   0.354   3.417   8.603 -1.0314  0.6098  2.0045
 2696TIP3   OH232282   1.964   4.287   9.318 -0.3059 -0.0548  0.6273
 2696TIP3    H132283   1.964   4.227   9.244  1.5553  0.9864 -0.2874
 2696TIP3    H232284   1.904   4.357   9.292  1.1168  0.8377 -0.4303
 2697TIP3   OH232285   1.001   7.358   8.639 -0.2909 -0.0198 -0.6255
 2697TIP3    H132286   1.066   7.374   8.707 -0.1971  1.0397 -0.9625
 2697TIP3    H232287   0.937   7.299   8.681  1.2335 -1.6840 -0.5212
 2698TIP3   OH232288   4.894   0.424   9.995  0.4092  0.6139  0.9165
 2698TIP3    H132289   4.965   0.365   9.969  0.4560  0.9940  0.1719
 2698TIP3    H232290   4.912   0.506   9.949  0.8073  1.5112  2.5841
 2699TIP3   OH232291   7.053   2.050   2.205  0.2271 -0.1972  0.3924
 2699TIP3    H132292   7.126   2.107   2.230  0.7773 -0.7262  0.0354
 2699TIP3    H232293   6.976   2.093   2.240  0.5320  1.2124 -0.5778
 2700TIP3   OH232294   4.004   0.827   9.948 -0.7013  0.3057 -0.5163
 2700TIP3    H132295   3.923   0.844   9.997 -1.0403 -0.2875 -0.8609
 2700TIP3    H232296   4.054   0.769  10.005  0.2260  1.9465  0.4275
 2701TIP3   OH232297   6.047   4.112   9.985  0.0819 -0.7359 -0.5915
 2701TIP3    H132298   6.037   4.135  10.077 -1.3254  0.8855 -1.1084
 2701TIP3    H232299   6.138   4.134   9.965 -0.4131  1.8538 -0.3143
 2702TIP3   OH232300   0.792   7.431   1.429  0.1965  0.0853 -0.8313
 2702TIP3    H132301   0.735   7.436   1.353 -1.6201 -0.5858  0.4103
 2702TIP3    H232302   0.862   7.494   1.411  0.7338 -1.1759 -3.7193
 2703TIP3   OH232303   1.696   3.835   9.689  0.1425 -0.1194  0.1629
 2703TIP3    H132304   1.601   3.835   9.675 -0.1028 -0.8566  1.6829
 2703TIP3    H232305   1.732   3.789   9.613 -0.8519 -1.1882  0.3169
 2704TIP3   OH232306   0.122   3.664   2.052 -0.3265  0.3089  0.2201
 2704TIP3    H132307   0.111   3.748   2.008  1.4940  0.2724 -0.3808
 2704TIP3    H232308   0.124   3.685   2.145  0.9086  1.0423  0.0356
 2705TIP3   OH232309   2.128   4.228   8.187 -0.2576 -0.3723 -0.2212
 2705TIP3    H132310   2.194   4.220   8.118 -0.6521  0.1376 -0.6598
 2705TIP3    H232311   2.170   4.281   8.254 -0.4649  0.5643 -0.8147
 2706TIP3   OH232312   5.031   6.857   0.489  0.5780  0.6411  0.0458
 2706TIP3    H132313   5.119   6.875   0.522  0.7567  1.4796 -0.8453
 2706TIP3    H232314   5.037   6.769   0.452  0.8129  0.3684  0.7093
 2707TIP3   OH232315   6.126   0.791   8.941 -0.3445  0.3246 -0.6923
 2707TIP3    H132316   6.143   0.726   9.010 -0.4375 -0.7110 -1.6083
 2707TIP3    H232317   6.038   0.769   8.910  0.6450 -0.9517 -2.8868
 2708TIP3   OH232318   7.264   4.257   7.489 -0.3283 -0.4002 -0.1469
 2708TIP3    H132319   7.348   4.214   7.471 -0.7879 -0.8849 -1.2019
 2708TIP3    H232320   7.288   4.338   7.533  0.7006 -0.5460 -0.4113
 2709TIP3   OH232321   6.690   1.511   9.797 -1.3159 -0.1408  0.1936
 2709TIP3    H132322   6.775   1.549   9.773  0.6205 -3.5895  0.9615
 2709TIP3    H232323   6.672   1.547   9.883  0.3280 -0.6644  0.8054
 2710TIP3   OH232324   6.223   1.366   7.998 -0.1180 -0.3742  0.4587
 2710TIP3    H132325   6.171   1.338   8.074 -1.1156  2.1134  0.7962
 2710TIP3    H232326   6.165   1.351   7.923 -0.3075 -0.0920  0.5437
 2711TIP3   OH232327   0.906   0.588   2.418 -0.2038  0.3499 -0.2614
 2711TIP3    H132328   0.872   0.675   2.398 -0.8818 -0.0561 -0.9236
 2711TIP3    H232329   0.998   0.603   2.442 -0.0680  1.1447 -1.2305
 2712TIP3   OH232330   4.037   4.781   6.654  0.2647  0.2886 -0.1149
 2712TIP3    H132331   4.022   4.693   6.619 -1.1970  0.0225  1.0302
 2712TIP3    H232332   4.044   4.768   6.748  0.3778  1.3594  0.0377
 2713TIP3   OH232333   2.327   7.590   7.723  0.0648  0.1989  0.1249
 2713TIP3    H132334   2.240   7.563   7.752  0.2281  2.5582  3.4117
 2713TIP3    H232335   2.313   7.630   7.637 -1.5621 -1.7991 -0.6362
 2714TIP3   OH232336   0.217   1.538   1.719 -0.7505 -0.1217 -0.1926
 2714TIP3    H132337   0.154   1.566   1.785 -1.4041 -1.5563 -0.1808
 2714TIP3    H232338   0.226   1.614   1.661 -0.7944  0.8712  1.0426
 2715TIP3   OH232339   1.996   2.257   8.046  0.1594  0.5171 -0.2763
 2715TIP3    H132340   2.087   2.245   8.073  0.3965  0.1612 -1.1748
 2715TIP3    H232341   1.948   2.189   8.094  0.6038 -0.2656 -0.9002
 2716TIP3   OH232342   1.215   2.232   7.311 -0.4057 -0.4680 -0.5918
 2716TIP3    H132343   1.243   2.323   7.302 -1.0472 -0.2774 -0.7237
 2716TIP3    H232344   1.243   2.207   7.399  0.2323 -0.3138 -0.7424
 2717TIP3   OH232345   7.475   7.042   2.365  0.3338  0.0364 -0.0663
 2717TIP3    H132346   7.553   7.027   2.312  0.4885 -0.1945  0.2217
 2717TIP3    H232347   7.445   7.130   2.340  1.2238  0.5123  0.4875
 2718TIP3   OH232348   0.478   4.733   1.812 -0.1216 -0.4790  0.1920
 2718TIP3    H132349   0.453   4.725   1.720  2.8746 -3.1793 -0.5747
 2718TIP3    H232350   0.395   4.733   1.859 -1.7365 -1.8848 -2.3845
 2719TIP3   OH232351   0.299   3.809   1.183  0.2110  0.6797 -0.4359
 2719TIP3    H132352   0.321   3.855   1.264  0.8462  2.1750 -1.4276
 2719TIP3    H232353   0.380   3.808   1.132 -0.3725  0.4624 -1.3963
 2720TIP3   OH232354   7.365   1.913   8.255 -0.3439 -0.2694  0.0945
 2720TIP3    H132355   7.455   1.913   8.288 -0.7690  0.0204  1.3089
 2720TIP3    H232356   7.363   1.984   8.191 -0.1537  0.9689  1.4053
 2721TIP3   OH232357   1.337   6.680   1.918  0.2514 -0.1182  0.4988
 2721TIP3    H132358   1.361   6.772   1.912 -0.9882  0.5305  3.7564
 2721TIP3    H232359   1.399   6.642   1.980 -0.3275 -1.0653  0.5183
 2722TIP3   OH232360   4.238   2.869   0.461  0.4115 -0.2322  0.4030
 2722TIP3    H132361   4.311   2.836   0.513  0.0425 -0.9609  0.4711
 2722TIP3    H232362   4.160   2.842   0.510  0.0757 -0.3552 -0.1874
 2723TIP3   OH232363   6.791   4.709   8.569  0.0733 -0.6075  0.1189
 2723TIP3    H132364   6.745   4.727   8.651  1.3991 -0.2551  0.8194
 2723TIP3    H232365   6.842   4.788   8.552 -0.1533 -0.6981 -1.0346
 2724TIP3   OH232366   3.041   0.433   0.086  0.6151 -0.4092 -0.6426
 2724TIP3    H132367   3.035   0.435  -0.010  0.4116 -0.8686 -0.6448
 2724TIP3    H232368   2.950   0.422   0.115  0.7462 -0.9553 -0.4247
 2725TIP3   OH232369   1.080   7.235   2.574  0.9254  0.4436  0.1958
 2725TIP3    H132370   1.055   7.254   2.664  0.2620  2.0996 -0.2985
 2725TIP3    H232371   0.998   7.224   2.527  1.2722 -1.4406 -0.0419
 2726TIP3   OH232372   7.474   3.215   0.203  0.0645 -0.0222 -0.0081
 2726TIP3    H132373   7.523   3.186   0.126  0.5252  0.5135  0.0728
 2726TIP3    H232374   7.534   3.275   0.248 -0.4319  0.1473  0.4380
 2727TIP3   OH232375   7.532   5.090   8.112 -0.0779  0.2909 -0.7632
 2727TIP3    H132376   7.464   5.025   8.126  0.2879  0.0284 -0.1883
 2727TIP3    H232377   7.504   5.165   8.165 -0.0426  0.2721 -0.7184
 2728TIP3   OH232378   1.350   2.058   9.136 -0.0332 -0.0262  0.8550
 2728TIP3    H132379   1.424   2.080   9.192  0.5394  3.0696 -0.8924
 2728TIP3    H232380   1.276   2.108   9.172 -0.0297  0.7660 -0.1807
 2729TIP3   OH232381   5.389   0.620   9.205 -0.8074  0.3609  0.5768
 2729TIP3    H132382   5.348   0.669   9.134  0.8912 -0.7860 -1.2824
 2729TIP3    H232383   5.468   0.670   9.226 -0.5182 -0.1095  0.6121
 2730TIP3   OH232384   2.733   1.269   0.758  0.2575  0.4341 -0.3659
 2730TIP3    H132385   2.806   1.330   0.750  0.0222  0.8556  0.6170
 2730TIP3    H232386   2.655   1.323   0.743  0.0786  0.2745 -0.0247
 2731TIP3   OH232387   3.978   3.569   1.019  0.1304 -0.1928 -0.0306
 2731TIP3    H132388   3.998   3.489   1.068  0.2359 -0.5001 -0.5668
 2731TIP3    H232389   3.969   3.540   0.929 -3.3509 -0.2037  0.1917
 2732TIP3   OH232390   6.462   7.484   0.915  0.2166  0.2336  0.1805
 2732TIP3    H132391   6.436   7.549   0.980  1.5566 -1.4626  2.5762
 2732TIP3    H232392   6.405   7.409   0.933  0.6277 -0.2681 -0.5643
 2733TIP3   OH232393   2.032   7.223   0.962 -0.9638 -0.5623  0.4062
 2733TIP3    H132394   2.099   7.276   0.919 -0.3929 -0.9976  0.7492
 2733TIP3    H232395   1.982   7.185   0.890 -0.6724 -0.4478  0.1396
 2734TIP3   OH232396   3.403   3.352   1.671  0.9933 -0.3742  0.4416
 2734TIP3    H132397   3.423   3.290   1.601 -1.8610 -0.9174 -0.0130
 2734TIP3    H232398   3.384   3.434   1.626 -3.0931 -1.2719  0.1690
 2735TIP3   OH232399   0.855   7.489   0.336  0.1977 -0.5326 -0.1480
 2735TIP3    H132400   0.884   7.402   0.307 -0.6039 -1.5972  2.0148
 2735TIP3    H232401   0.766   7.496   0.302 -0.2958 -1.2525  0.9324
 2736TIP3   OH232402   7.285   4.318   0.281  0.6315 -0.2987 -0.0141
 2736TIP3    H132403   7.214   4.271   0.324 -0.8573  2.1959  0.4263
 2736TIP3    H232404   7.312   4.260   0.209 -2.0879 -1.2106 -0.4188
 2737TIP3   OH232405   3.718   6.263   9.845 -0.3250 -0.9275 -0.1965
 2737TIP3    H132406   3.677   6.233   9.925 -1.3986 -1.6802 -1.0080
 2737TIP3    H232407   3.676   6.213   9.775 -0.8523  1.1098 -1.4262
 2738TIP3   OH232408   4.093   6.767   3.012 -0.1610  0.1775 -0.0574
 2738TIP3    H132409   4.038   6.845   3.023 -1.1776 -0.2094 -1.9599
 2738TIP3    H232410   4.132   6.777   2.925 -0.0495 -1.2705 -0.1942
 2739TIP3   OH232411   0.281   3.775   8.636  0.2026  0.1539  0.3409
 2739TIP3    H132412   0.216   3.840   8.662  1.4407  1.5309  0.1170
 2739TIP3    H232413   0.291   3.719   8.713 -1.8795 -0.6621  0.0782
 2740TIP3   OH232414   3.274   1.073   8.172  0.0945 -0.5179  0.4628
 2740TIP3    H132415   3.273   1.124   8.253  1.5448 -1.7079  1.2737
 2740TIP3    H232416   3.309   1.133   8.106  1.3490 -0.2978  1.2982
 2741TIP3   OH232417   6.875   0.495   1.058  0.6212  0.4191 -0.1432
 2741TIP3    H132418   6.862   0.442   0.979 -1.1260  0.5473  0.0330
 2741TIP3    H232419   6.862   0.433   1.130  1.3772  0.4943  0.0724
 2742TIP3   OH232420   2.657   0.424   8.097  0.0463  0.2880 -0.3247
 2742TIP3    H132421   2.579   0.380   8.063 -0.6151  1.3478 -0.2154
 2742TIP3    H232422   2.647   0.421   8.192 -1.1715  2.6105 -0.3088
 2743TIP3   OH232423   2.734   3.668   6.950  0.0619  0.2958 -0.6224
 2743TIP3    H132424   2.667   3.722   6.908  0.6088  0.6822 -0.9962
 2743TIP3    H232425   2.770   3.723   7.019 -0.3123 -0.0749 -0.1207
 2744TIP3   OH232426   3.632   0.239   0.230  0.1286 -0.0680 -0.0168
 2744TIP3    H132427   3.642   0.249   0.136  0.4879 -0.5098 -0.0319
 2744TIP3    H232428   3.721   0.247   0.265 -0.1264  1.1388  0.3950
 2745TIP3   OH232429   1.404   0.935   2.234  0.5434 -0.2896 -0.2224
 2745TIP3    H132430   1.314   0.904   2.224  0.7621 -0.6830 -1.0719
 2745TIP3    H232431   1.444   0.872   2.294  0.3524 -0.3345 -0.1434
 2746TIP3   OH232432   5.461   3.868   0.684 -0.5509  0.1640 -0.4225
 2746TIP3    H132433   5.484   3.825   0.601 -0.2420  0.3474 -0.4367
 2746TIP3    H232434   5.461   3.962   0.662 -1.4173  0.1659 -0.4419
 2747TIP3   OH232435   2.904   2.019   9.243  0.3412 -0.0934  1.2315
 2747TIP3    H132436   2.895   1.946   9.182 -0.6395  0.0861  1.1464
 2747TIP3    H232437   2.837   2.002   9.310  0.0237  0.7779  1.1473
 2748TIP3   OH232438   3.592   3.862   2.704  0.1238 -0.0192 -0.0490
 2748TIP3    H132439   3.688   3.861   2.706  0.1164  0.1519  1.0119
 2748TIP3    H232440   3.567   3.911   2.783 -0.7923  2.9414 -2.0137
 2749TIP3   OH232441   4.632   3.574   7.464 -0.0184 -0.3950  0.0253
 2749TIP3    H132442   4.537   3.585   7.470  0.0416  0.3773 -0.3531
 2749TIP3    H232443   4.652   3.596   7.373  0.8898  2.4192  0.8168
 2750TIP3   OH232444   0.080   0.315   1.520  0.3294 -0.5577 -0.2512
 2750TIP3    H132445  -0.001   0.318   1.470 -0.9534 -0.5003  1.7044
 2750TIP3    H232446   0.148   0.294   1.456 -1.3036 -1.1474 -1.8599
 2751TIP3   OH232447   6.962   2.300   0.636  0.0316 -0.3402  0.5357
 2751TIP3    H132448   6.893   2.236   0.627 -2.0943  1.9009 -0.2767
 2751TIP3    H232449   6.951   2.336   0.724  0.3484 -0.1430  0.4981
 2752TIP3   OH232450   7.362   5.938   9.292 -0.0720  0.3181  0.6833
 2752TIP3    H132451   7.347   5.988   9.212 -0.8705 -0.6885  0.1921
 2752TIP3    H232452   7.287   5.961   9.348 -0.3820 -0.2395  0.4988
 2753TIP3   OH232453   4.233   2.980   1.846 -0.0210  0.1341  0.0614
 2753TIP3    H132454   4.306   3.042   1.854  0.1456  0.0343 -0.6487
 2753TIP3    H232455   4.244   2.922   1.921 -0.7180  1.5045  1.2897
 2754TIP3   OH232456   3.047   7.234   8.151  0.6178  0.3532  0.8245
 2754TIP3    H132457   2.988   7.227   8.076  0.5556  0.8089  0.8251
 2754TIP3    H232458   3.074   7.144   8.169  0.2988  0.1938  0.5243
 2755TIP3   OH232459   0.780   3.021   7.884  0.1433 -0.0964  0.0580
 2755TIP3    H132460   0.863   2.977   7.865  0.0632 -0.4601  0.5267
 2755TIP3    H232461   0.753   3.058   7.800 -0.1126 -1.5004 -0.5126
 2756TIP3   OH232462   3.869   0.530   1.044  0.4622 -0.4027  0.2571
 2756TIP3    H132463   3.874   0.485   0.960  0.1887 -1.1380  0.6219
 2756TIP3    H232464   3.893   0.621   1.025  2.6229 -1.0199 -0.2157
 2757TIP3   OH232465   6.693   3.947   8.055 -0.0144 -0.5115 -0.2879
 2757TIP3    H132466   6.726   4.020   8.107 -0.2797 -0.3037 -0.4057
 2757TIP3    H232467   6.624   3.986   8.000 -1.2617 -1.1325  0.7727
 2758TIP3   OH232468   7.136   1.772   8.255 -0.1697 -0.3488 -0.0269
 2758TIP3    H132469   7.179   1.707   8.199  0.4023  0.2807 -0.3292
 2758TIP3    H232470   7.196   1.846   8.256 -1.0480  0.3827 -0.0941
 2759TIP3   OH232471   0.816   5.194   0.761  0.4844 -0.0446  0.1973
 2759TIP3    H132472   0.734   5.244   0.769  0.0660  0.0095 -2.9894
 2759TIP3    H232473   0.789   5.103   0.761  0.4136 -0.0330 -0.6140
 2760TIP3   OH232474   2.278   0.091   6.898  0.1392 -0.2013 -0.1573
 2760TIP3    H132475   2.371   0.110   6.908  0.0133  0.5428 -0.3625
 2760TIP3    H232476   2.265   0.008   6.945  0.7484  0.1021  0.5552
 2761TIP3   OH232477   5.641   2.323   0.591 -0.3512 -0.1010 -0.3377
 2761TIP3    H132478   5.632   2.418   0.589 -1.7339 -0.1982 -2.7252
 2761TIP3    H232479   5.726   2.305   0.553 -0.2201  0.1620 -0.1654
 2762TIP3   OH232480   4.516   0.217   9.867 -0.5244  0.3521 -0.0841
 2762TIP3    H132481   4.564   0.295   9.895 -0.8411  0.2648  0.7550
 2762TIP3    H232482   4.424   0.238   9.883 -0.5298 -0.7170  1.6109
 2763TIP3   OH232483   5.129   3.481   8.022  0.1905 -0.2687  0.0954
 2763TIP3    H132484   5.193   3.453   7.957  1.1785 -1.9148  1.7157
 2763TIP3    H232485   5.048   3.436   7.997  0.3925 -0.3950 -0.3355
 2764TIP3   OH232486   5.408   4.326   9.425 -0.3058  1.2508 -0.0183
 2764TIP3    H132487   5.335   4.303   9.482  0.0958 -0.7753 -0.2201
 2764TIP3    H232488   5.378   4.302   9.337  0.5730  0.4004 -0.1011
 2765TIP3   OH232489   0.343   4.741   1.525  0.1005  0.1911 -0.2245
 2765TIP3    H132490   0.325   4.835   1.519  0.3818  0.1613 -2.0437
 2765TIP3    H232491   0.257   4.702   1.541 -0.9325  0.4478 -4.1535
 2766TIP3   OH232492   1.152   5.982   1.524  0.6725  0.3449  0.2857
 2766TIP3    H132493   1.104   5.950   1.600 -0.0824  0.8054  0.0057
 2766TIP3    H232494   1.155   5.907   1.464 -0.7112  0.6443 -0.1858
 2767TIP3   OH232495   1.610   6.905   7.526 -0.2809 -0.0463  0.1991
 2767TIP3    H132496   1.568   6.981   7.485  0.5037  1.0279  1.2970
 2767TIP3    H232497   1.618   6.930   7.619 -1.5160 -2.1672  0.9398
 2768TIP3   OH232498   4.379   1.465   7.908  0.6237  0.2733 -0.0740
 2768TIP3    H132499   4.364   1.484   8.000 -0.5976 -0.2648 -0.1471
 2768TIP3    H232500   4.303   1.503   7.863  0.9024  0.0021 -0.7904
 2769TIP3   OH232501   5.529   1.058   9.059 -0.3743  0.4296  0.0887
 2769TIP3    H132502   5.497   1.007   9.134  0.5056  0.0276  0.2132
 2769TIP3    H232503   5.493   1.013   8.982 -1.5287  1.0212  0.2707
 2770TIP3   OH232504   7.501   0.564   7.931 -0.4097  0.5161  0.1051
 2770TIP3    H132505   7.518   0.475   7.899 -0.4679  0.9012 -1.0675
 2770TIP3    H232506   7.465   0.552   8.018  1.0240 -0.5458  0.5957
 2771TIP3   OH232507   0.737   6.677   1.423  0.3033  0.3945  0.3228
 2771TIP3    H132508   0.690   6.760   1.424  0.3870  0.4429  0.1895
 2771TIP3    H232509   0.689   6.622   1.362  2.0712  1.4009 -2.1099
 2772TIP3   OH232510   2.419   4.214   6.803  0.6531 -0.1205  0.0903
 2772TIP3    H132511   2.413   4.266   6.722  0.7316  0.0958  0.2214
 2772TIP3    H232512   2.339   4.236   6.851  0.1578 -0.9428 -0.3310
 2773TIP3   OH232513   6.525   1.925   8.439  0.5670 -0.1045 -0.2060
 2773TIP3    H132514   6.523   1.830   8.439 -0.3905 -0.1400  1.7009
 2773TIP3    H232515   6.552   1.949   8.528  3.2086  1.4456 -1.2890
 2774TIP3   OH232516   2.538   3.497   1.429  0.2900  0.4162 -0.5266
 2774TIP3    H132517   2.451   3.501   1.468 -0.5226 -0.8491 -2.0406
 2774TIP3    H232518   2.595   3.541   1.491 -1.3979  1.1161  0.6018
 2775TIP3   OH232519   6.404   3.172   8.707  0.4382 -0.1388  0.3511
 2775TIP3    H132520   6.484   3.213   8.673  0.7363  0.5526  1.8301
 2775TIP3    H232521   6.409   3.082   8.676  2.5855 -0.5387  1.6582
 2776TIP3   OH232522   0.383   1.428   8.395 -0.7100 -0.1269 -0.1076
 2776TIP3    H132523   0.426   1.506   8.431 -1.4014 -0.4467  1.5106
 2776TIP3    H232524   0.448   1.390   8.337 -0.1748  1.3831 -0.5456
 2777TIP3   OH232525   2.544   0.710   1.371  0.1009  0.6578  0.1718
 2777TIP3    H132526   2.607   0.664   1.427  0.4381  0.9766  0.0614
 2777TIP3    H232527   2.563   0.678   1.283 -0.4082  0.1800  0.2308
 2778TIP3   OH232528   4.283   0.196   0.797 -0.1503 -0.5391  0.3045
 2778TIP3    H132529   4.368   0.156   0.779 -0.1390  0.2355 -1.6967
 2778TIP3    H232530   4.255   0.158   0.880  1.4229 -2.0097  0.2203
 2779TIP3   OH232531   0.508   4.828   8.205 -0.4596 -0.6258 -0.3802
 2779TIP3    H132532   0.501   4.905   8.148 -0.3379 -0.1439  0.2493
 2779TIP3    H232533   0.437   4.838   8.268 -1.4016 -1.8201 -1.2114
 2780TIP3   OH232534   2.920   3.569   1.875 -0.5234  0.2968 -0.6120
 2780TIP3    H132535   3.013   3.548   1.878 -0.4447  0.7177  0.0756
 2780TIP3    H232536   2.911   3.647   1.929 -1.2025  0.5481 -1.0688
 2781TIP3   OH232537   0.093   7.507   8.125  0.2126 -0.1133  0.1440
 2781TIP3    H132538   0.107   7.517   8.220 -2.6558 -0.8960  0.7610
 2781TIP3    H232539   0.117   7.416   8.107  0.0308 -0.1941  0.2991
 2782TIP3   OH232540   3.253   6.317   1.000  0.1789 -0.6283  0.0562
 2782TIP3    H132541   3.306   6.281   0.929 -1.2219 -1.3508 -0.6684
 2782TIP3    H232542   3.207   6.241   1.036 -2.8375  0.3241 -1.4931
 2783TIP3   OH232543   3.507   6.420   9.461  1.0486  0.0596  0.2526
 2783TIP3    H132544   3.528   6.337   9.419 -1.9605  0.0013 -1.3516
 2783TIP3    H232545   3.487   6.480   9.390 -1.3389  0.8052  1.4385
 2784TIP3   OH232546   3.126   7.558   2.613  0.2418  0.1945  0.0260
 2784TIP3    H132547   3.115   7.607   2.694  0.0111  1.1750 -0.5836
 2784TIP3    H232548   3.037   7.535   2.587  0.3063 -0.0105 -0.0139
 2785TIP3   OH232549   5.528   2.588   9.437 -0.2628  0.1645 -0.3950
 2785TIP3    H132550   5.543   2.674   9.477 -0.9796  1.0709 -2.0076
 2785TIP3    H232551   5.596   2.532   9.476 -0.3653  1.2088  1.3730
 2786TIP3   OH232552   3.266   6.605   0.936  0.8086 -0.3886 -0.0423
 2786TIP3    H132553   3.228   6.519   0.922 -0.0842  0.1435 -0.9763
 2786TIP3    H232554   3.345   6.606   0.881  3.3843 -2.1535  3.2390
 2787TIP3   OH232555   2.784   3.290   6.513  0.6744  0.4619  0.1892
 2787TIP3    H132556   2.782   3.203   6.551  1.6078  0.0310 -0.6966
 2787TIP3    H232557   2.694   3.323   6.521  0.4156 -0.4118  0.9027
 2788TIP3   OH232558   6.061   2.766   1.191  0.0756  0.3668 -0.4583
 2788TIP3    H132559   6.056   2.830   1.262  0.3667  0.4882 -0.5455
 2788TIP3    H232560   6.074   2.818   1.113 -0.3447  0.2382 -0.6172
 2789TIP3   OH232561   7.292   1.970   8.572 -0.5561 -0.1066  0.1323
 2789TIP3    H132562   7.268   1.928   8.489 -2.6903 -0.0124  0.6297
 2789TIP3    H232563   7.332   2.053   8.546 -2.6429  0.6737 -0.8899
 2790TIP3   OH232564   0.366   0.812   8.561  0.4816 -0.2415 -0.7725
 2790TIP3    H132565   0.406   0.726   8.545 -0.5637 -0.7267 -0.8783
 2790TIP3    H232566   0.318   0.800   8.643  1.6349  0.7315  0.0777
 2791TIP3   OH232567   1.896   3.440   2.274 -0.2155  0.1905  0.3881
 2791TIP3    H132568   1.866   3.352   2.299  1.2780 -0.9416 -1.4239
 2791TIP3    H232569   1.816   3.489   2.257 -1.1391 -0.2668  3.0008
 2792TIP3   OH232570   3.581   2.824   9.895  0.2212  0.1081  0.0746
 2792TIP3    H132571   3.618   2.841   9.981 -1.3899  1.0746  0.6256
 2792TIP3    H232572   3.568   2.729   9.893  1.6599 -0.1186  0.2711
 2793TIP3   OH232573   2.543   1.899   8.706 -0.2935 -0.3815  0.3597
 2793TIP3    H132574   2.510   1.838   8.773  1.1617 -0.8565  0.6725
 2793TIP3    H232575   2.638   1.887   8.707  0.3636  3.4333  2.0169
 2794TIP3   OH232576   2.115   3.785   1.182 -0.6612  0.2421  0.1500
 2794TIP3    H132577   2.167   3.742   1.114  1.3133  0.5605  1.3839
 2794TIP3    H232578   2.033   3.737   1.183 -0.0273 -0.9479 -1.2000
 2795TIP3   OH232579   1.332   5.667   9.117  0.6650  0.9088  0.4405
 2795TIP3    H132580   1.325   5.660   9.022 -0.6972  0.8219  0.5323
 2795TIP3    H232581   1.273   5.600   9.150  2.1140  0.0286  1.3728
 2796TIP3   OH232582   4.193   7.381   8.221 -0.4897 -0.2575  0.1323
 2796TIP3    H132583   4.253   7.455   8.223 -1.0238  0.2362 -1.1778
 2796TIP3    H232584   4.244   7.308   8.257  0.4053  0.4822  0.4023
 2797TIP3   OH232585   6.598   0.562   7.848 -0.3229 -0.4975 -0.1002
 2797TIP3    H132586   6.533   0.531   7.786  1.4106 -2.2761 -1.1418
 2797TIP3    H232587   6.679   0.568   7.798  0.5582  0.7071  1.3659
 2798TIP3   OH232588   6.719   0.303   9.084 -0.1217 -0.7167 -0.1363
 2798TIP3    H132589   6.747   0.392   9.068  0.1328 -0.6284  0.7639
 2798TIP3    H232590   6.638   0.293   9.033 -0.1292  0.0123 -0.2651
 2799TIP3   OH232591   3.699   3.082   8.011 -0.2083 -0.1682 -0.8391
 2799TIP3    H132592   3.731   3.056   7.924 -1.1257 -3.4296 -0.3537
 2799TIP3    H232593   3.614   3.124   7.993  0.1245  0.2198 -1.5659
 2800TIP3   OH232594   5.732   1.887   1.317 -0.4560  0.5198  0.0755
 2800TIP3    H132595   5.821   1.871   1.284 -0.6664  0.9188 -0.7039
 2800TIP3    H232596   5.687   1.804   1.304  0.0741 -0.0117  1.4285
 2801TIP3   OH232597   1.965   6.063   2.551  0.2379 -0.2333 -0.2581
 2801TIP3    H132598   2.057   6.055   2.576  0.2488  0.5437 -0.0075
 2801TIP3    H232599   1.938   6.146   2.590 -0.8866 -1.0068  0.6818
 2802TIP3   OH232600   4.977   3.349   8.808  0.1506 -0.6282  0.5040
 2802TIP3    H132601   5.020   3.429   8.838 -0.8122 -0.0404  0.3505
 2802TIP3    H232602   4.890   3.353   8.847 -0.5100 -0.7392 -0.9083
 2803TIP3   OH232603   1.145   1.431   1.223  0.4843  0.2532  0.2245
 2803TIP3    H132604   1.076   1.489   1.256 -0.3575 -0.9013  0.5759
 2803TIP3    H232605   1.100   1.371   1.164  1.1460 -0.6521  0.6094
 2804TIP3   OH232606   7.527   3.720   0.301 -0.7369  0.1565 -0.1587
 2804TIP3    H132607   7.536   3.815   0.307 -0.4565  0.0297  2.4683
 2804TIP3    H232608   7.433   3.705   0.293 -0.6627  0.6620 -3.6909
 2805TIP3   OH232609   5.018   1.819   0.028 -0.5766 -0.1661  0.3274
 2805TIP3    H132610   4.924   1.839   0.031 -0.7363 -0.7628 -0.4303
 2805TIP3    H232611   5.052   1.872  -0.044 -0.6138 -1.0468 -0.3473
 2806TIP3   OH232612   1.224   3.490   8.886  0.3011 -0.1731 -0.3348
 2806TIP3    H132613   1.184   3.565   8.930  2.5458  1.0456 -0.2090
 2806TIP3    H232614   1.194   3.414   8.936 -1.6988  0.6280 -0.2116
 2807TIP3   OH232615   3.692   5.476   0.942  0.2131  0.7062 -0.1843
 2807TIP3    H132616   3.678   5.412   1.012 -0.0910  0.7180 -0.2320
 2807TIP3    H232617   3.635   5.447   0.872  1.1166  0.2344 -0.7383
 2808TIP3   OH232618   2.480   3.126   9.117  0.0521  0.0020  0.1904
 2808TIP3    H132619   2.561   3.112   9.166  0.4431 -1.4540 -0.7804
 2808TIP3    H232620   2.429   3.046   9.133 -0.7536  0.4713 -0.0075
 2809TIP3   OH232621   6.457   5.045   9.625  0.0922  0.7603  0.4282
 2809TIP3    H132622   6.390   5.078   9.566 -0.5903  0.0153  0.7802
 2809TIP3    H232623   6.518   4.998   9.568  0.0596  1.0160  0.1769
 2810TIP3   OH232624   2.727   4.834   1.390  0.6039  0.5330  0.0837
 2810TIP3    H132625   2.681   4.759   1.428  1.4384 -0.1355 -0.1928
 2810TIP3    H232626   2.737   4.813   1.298  2.6660 -0.0023  0.3770
 2811TIP3   OH232627   3.479   4.031   1.907  0.1441 -0.0032 -0.3479
 2811TIP3    H132628   3.485   3.935   1.911 -1.2717 -0.0884  1.0851
 2811TIP3    H232629   3.488   4.052   1.814  2.2230 -1.3609 -0.5068
 2812TIP3   OH232630   0.394   1.872   1.200 -0.1155  0.4921  0.0516
 2812TIP3    H132631   0.343   1.848   1.123  0.9855 -2.5821  0.1044
 2812TIP3    H232632   0.435   1.789   1.227  1.2947  1.9139  2.6245
 2813TIP3   OH232633   3.617   4.618   7.769 -0.2444 -0.1819  0.4043
 2813TIP3    H132634   3.646   4.606   7.679 -2.0513 -1.0152 -0.1061
 2813TIP3    H232635   3.548   4.685   7.764  0.8144  1.0598  1.4419
 2814TIP3   OH232636   2.745   3.507   2.371 -0.3316  0.7063  1.1103
 2814TIP3    H132637   2.773   3.566   2.300 -0.6748  1.0115  1.2279
 2814TIP3    H232638   2.825   3.491   2.421  0.2536 -0.7072 -0.1928
 2815TIP3   OH232639   6.676   0.125   1.443  0.0965 -0.0082 -0.4024
 2815TIP3    H132640   6.599   0.069   1.431  0.0526  0.1179 -0.7260
 2815TIP3    H232641   6.664   0.165   1.529 -0.4120  0.3324 -0.6237
 2816TIP3   OH232642   0.822   7.251   8.057  0.1848  0.4965  0.0766
 2816TIP3    H132643   0.834   7.275   7.965  1.2717  2.0490  0.5733
 2816TIP3    H232644   0.866   7.321   8.106 -0.3444 -0.3015  1.7846
 2817TIP3   OH232645   3.822   1.571   0.351 -1.0814  0.4322  0.2608
 2817TIP3    H132646   3.821   1.601   0.260  0.9615 -2.6278 -0.9197
 2817TIP3    H232647   3.890   1.624   0.393  0.9103 -0.8147 -1.1918
 2818TIP3   OH232648   0.704   1.843   9.992 -0.4223  0.1652  0.0317
 2818TIP3    H132649   0.743   1.930   9.991 -0.3470  0.1475 -2.0536
 2818TIP3    H232650   0.728   1.806  10.078  0.5361  1.7252  0.4572
 2819TIP3   OH232651   1.786   5.740   0.953 -0.2888  0.0487  0.9766
 2819TIP3    H132652   1.740   5.662   0.923  0.5628  0.0457 -0.4165
 2819TIP3    H232653   1.879   5.718   0.943 -0.0176  0.8359  1.6592
 2820TIP3   OH232654   7.543   6.402   9.591  0.0769  0.1378  0.4209
 2820TIP3    H132655   7.601   6.407   9.515 -1.2722 -0.4409 -0.7091
 2820TIP3    H232656   7.601   6.395   9.666  1.5070 -2.0204 -0.7650
 2821TIP3   OH232657   6.266   0.562   7.971  0.0969 -0.1639 -0.3740
 2821TIP3    H132658   6.334   0.506   7.934  1.0263  0.2340  0.6542
 2821TIP3    H232659   6.229   0.607   7.895  2.1113  0.8153 -0.8639
 2822TIP3   OH232660   6.176   4.216   1.946 -0.0130 -0.0634 -0.2557
 2822TIP3    H132661   6.102   4.162   1.917  0.3717 -0.6617 -0.1391
 2822TIP3    H232662   6.235   4.217   1.871 -0.8563  1.7702 -0.9596
 2823TIP3   OH232663   5.432   6.856   8.330 -0.0968  0.2894  0.3548
 2823TIP3    H132664   5.485   6.779   8.347 -1.7970 -0.8953  0.5158
 2823TIP3    H232665   5.367   6.828   8.266 -0.9959  1.4709  0.7045
 2824TIP3   OH232666   1.058   6.931   0.366  0.1449 -0.2585 -0.4564
 2824TIP3    H132667   1.085   6.991   0.297 -0.5675 -0.2008 -0.6973
 2824TIP3    H232668   1.082   6.976   0.447  1.3396 -0.4971 -0.6530
 2825TIP3   OH232669   0.830   3.645   8.995  0.1462 -0.5420 -0.1520
 2825TIP3    H132670   0.770   3.714   8.966 -0.8886 -1.2595  0.2150
 2825TIP3    H232671   0.859   3.674   9.082  0.7507  0.0584 -0.5469
 2826TIP3   OH232672   4.160   2.895   0.982  0.1910  0.6870 -0.3805
 2826TIP3    H132673   4.165   2.971   0.924  0.6352 -0.1903 -1.5502
 2826TIP3    H232674   4.212   2.828   0.937  0.1516 -0.1788  0.8200
 2827TIP3   OH232675   5.686   3.826   2.188  0.2499 -0.4590  0.1225
 2827TIP3    H132676   5.736   3.908   2.189  0.9417 -0.8537 -0.4103
 2827TIP3    H232677   5.720   3.777   2.262 -0.8828  0.1293  1.0586
 2828TIP3   OH232678   6.709   1.152   2.195 -0.4403 -0.0339  0.2958
 2828TIP3    H132679   6.698   1.059   2.217 -0.4570 -0.6179 -1.9514
 2828TIP3    H232680   6.743   1.192   2.275  1.5639 -2.3827  0.7531
 2829TIP3   OH232681   5.084   5.182   0.720 -0.0559 -0.1306  0.2393
 2829TIP3    H132682   5.124   5.096   0.709  1.8802  0.9420 -1.9670
 2829TIP3    H232683   5.131   5.222   0.793  0.9986  0.0671 -0.5339
 2830TIP3   OH232684   3.028   4.513   8.036 -0.0945 -0.1885 -0.1483
 2830TIP3    H132685   3.079   4.437   8.008  0.0503  0.3457 -1.4413
 2830TIP3    H232686   2.937   4.490   8.013 -0.0640 -0.0267 -0.4407
 2831TIP3   OH232687   2.910   0.985   0.755  0.5148  0.4886  0.0820
 2831TIP3    H132688   2.887   1.068   0.714 -0.8012  1.3018  2.3174
 2831TIP3    H232689   2.989   1.004   0.806 -0.6370  0.8440  1.8190
 2832TIP3   OH232690   5.436   3.599   0.504  0.0876  0.1999  0.0548
 2832TIP3    H132691   5.391   3.642   0.432  1.7364  0.9287 -0.6029
 2832TIP3    H232692   5.522   3.642   0.508  2.1732 -3.3757 -1.1217
 2833TIP3   OH232693   2.875   4.024   9.685 -0.3691 -0.7604  0.0246
 2833TIP3    H132694   2.944   4.068   9.734 -0.2019  0.6310 -1.3814
 2833TIP3    H232695   2.856   4.083   9.612 -1.3774 -2.2364 -0.9658
 2834TIP3   OH232696   6.579   0.291   2.477  0.5734 -0.5093 -0.2060
 2834TIP3    H132697   6.670   0.278   2.505  0.5870  2.1665  1.4033
 2834TIP3    H232698   6.566   0.386   2.484 -1.1818 -0.2563 -4.2817
 2835TIP3   OH232699   4.096   3.812   1.041 -0.2866 -0.7915  0.7564
 2835TIP3    H132700   4.180   3.804   0.996  0.4299  0.2551  1.8271
 2835TIP3    H232701   4.055   3.726   1.030  0.3256 -0.9168 -0.9016
 2836TIP3   OH232702   7.584   5.505   9.529 -0.6678 -0.6343  0.5120
 2836TIP3    H132703   7.593   5.600   9.530 -0.9256 -0.5105 -2.2795
 2836TIP3    H232704   7.626   5.476   9.610  2.1720  1.6208 -0.0038
 2837TIP3   OH232705   1.837   3.821   7.158  0.2291 -0.1475  0.1640
 2837TIP3    H132706   1.753   3.864   7.167  0.4490  0.4405 -0.5156
 2837TIP3    H232707   1.815   3.731   7.131 -0.1760  0.1526 -0.5540
 2838TIP3   OH232708   4.266   7.528   1.583 -0.1221  0.0234  0.4829
 2838TIP3    H132709   4.310   7.525   1.498  1.8103 -0.0106  1.4477
 2838TIP3    H232710   4.326   7.577   1.640 -0.8085 -0.9889  2.1443
 2839TIP3   OH232711   1.854   7.010   0.811 -0.1849  0.8435 -0.2054
 2839TIP3    H132712   1.760   7.008   0.790  0.2083  0.2233 -2.0901
 2839TIP3    H232713   1.879   6.918   0.820  0.4417  0.9561 -0.7309
 2840TIP3   OH232714   0.912   0.358   8.626  0.1941  0.2069 -0.0850
 2840TIP3    H132715   0.991   0.351   8.678  0.5986  0.7312 -0.6172
 2840TIP3    H232716   0.886   0.450   8.633  0.6848  0.4642 -1.4163
 2841TIP3   OH232717   7.219   6.856   0.439  0.1684 -0.7254 -0.4338
 2841TIP3    H132718   7.281   6.900   0.382 -0.0706  2.4026  1.4586
 2841TIP3    H232719   7.133   6.878   0.403  0.0537 -1.5531 -0.6961
 2842TIP3   OH232720   6.156   5.885   9.547  0.3675  0.1408  0.4508
 2842TIP3    H132721   6.144   5.939   9.469  0.0271  1.7136  1.5332
 2842TIP3    H232722   6.250   5.892   9.566  0.8879 -2.0020 -0.9754
 2843TIP3   OH232723   7.571   7.487   0.042 -0.0260 -0.5444 -0.2028
 2843TIP3    H132724   7.545   7.519  -0.044 -0.4080 -1.2353 -0.3461
 2843TIP3    H232725   7.655   7.444   0.027  0.6064  0.5594  0.0321
 2844TIP3   OH232726   5.615   7.399   0.795  0.3643 -0.3923  0.0766
 2844TIP3    H132727   5.583   7.417   0.707 -2.5566 -2.5586  0.5516
 2844TIP3    H232728   5.590   7.476   0.846  1.8519  0.7666 -0.8448
 2845TIP3   OH232729   4.942   4.331   9.296 -0.2615  0.0805 -0.2042
 2845TIP3    H132730   4.911   4.283   9.372 -1.6814  0.3720 -0.5745
 2845TIP3    H232731   4.897   4.415   9.300  1.1907  0.8926 -0.2840
 2846TIP3   OH232732   2.451   2.281   0.726  0.1595  0.1189 -0.4667
 2846TIP3    H132733   2.471   2.375   0.734  0.8744 -0.0783  0.2245
 2846TIP3    H232734   2.365   2.279   0.685  0.2035  1.0776 -0.6507
 2847TIP3   OH232735   0.480   3.255   1.664 -0.4721 -0.3415  0.5603
 2847TIP3    H132736   0.473   3.321   1.734 -0.4392 -0.7939  0.9970
 2847TIP3    H232737   0.541   3.294   1.601 -0.0200 -0.1812  1.0818
 2848TIP3   OH232738   0.992   2.777   0.618  0.1288 -0.2071  0.2902
 2848TIP3    H132739   0.970   2.824   0.698 -0.0487  0.8439 -0.3543
 2848TIP3    H232740   0.969   2.838   0.548  1.7987 -0.4427 -0.5140
 2849TIP3   OH232741   1.196   3.047   1.822 -0.2213  0.3883  0.0101
 2849TIP3    H132742   1.235   3.106   1.757  1.5824 -2.3671 -1.6422
 2849TIP3    H232743   1.244   3.065   1.902  1.4557  0.1033 -0.8820
 2850TIP3   OH232744   6.035   3.282   9.371  0.0920  0.0568 -0.0760
 2850TIP3    H132745   6.116   3.277   9.421 -0.5848  1.7586  1.3000
 2850TIP3    H232746   6.053   3.341   9.299  0.6345 -1.1885 -0.9833
 2851TIP3   OH232747   2.949   3.188   9.499 -0.0750  0.0126  0.3809
 2851TIP3    H132748   2.994   3.256   9.448 -1.1646 -1.3341 -2.5878
 2851TIP3    H232749   3.005   3.111   9.490 -0.7111 -0.4698  0.5208
 2852TIP3   OH232750   4.521   0.357   0.936  0.2480  0.0513  0.2109
 2852TIP3    H132751   4.497   0.426   0.998 -1.6979 -0.2181 -0.1594
 2852TIP3    H232752   4.515   0.276   0.986 -0.3354 -0.0756 -0.0471
 2853TIP3   OH232753   1.578   3.783   0.782  0.4043 -0.6053 -0.2403
 2853TIP3    H132754   1.541   3.732   0.710  1.2537 -0.3974 -0.8447
 2853TIP3    H232755   1.614   3.861   0.739  0.0472 -0.0112  0.5389
 2854TIP3   OH232756   3.680   5.931   7.816  0.0294  0.0285  0.1399
 2854TIP3    H132757   3.604   5.896   7.768 -0.9452  0.5974  1.2191
 2854TIP3    H232758   3.684   5.878   7.896  0.5523  0.2334  0.2490
 2855TIP3   OH232759   1.904   1.877   0.150 -0.2076 -0.0883 -0.5917
 2855TIP3    H132760   1.901   1.924   0.233  0.1875 -1.1831  0.0500
 2855TIP3    H232761   1.812   1.872   0.123 -0.3188  0.4539 -0.3390
 2856TIP3   OH232762   4.044   1.848   2.783 -0.1142 -0.0095  0.2455
 2856TIP3    H132763   3.980   1.816   2.719  1.0443  0.6079 -1.2790
 2856TIP3    H232764   4.017   1.808   2.866 -2.1431 -0.1867 -0.4475
 2857TIP3   OH232765   1.747   1.759   1.207  0.3976  0.3637 -0.1596
 2857TIP3    H132766   1.711   1.675   1.236 -0.5034  0.5730 -0.6497
 2857TIP3    H232767   1.754   1.811   1.288  1.0852 -0.2136  0.1653
 2858TIP3   OH232768   5.618   4.337   9.613  0.3247  0.9760 -0.6587
 2858TIP3    H132769   5.677   4.410   9.594  0.1686  1.4998  0.7137
 2858TIP3    H232770   5.568   4.324   9.533  0.0416  2.6806 -0.7938
 2859TIP3   OH232771   2.524   1.963   0.989  0.2668  0.2039 -0.0068
 2859TIP3    H132772   2.609   1.990   0.954 -0.1557  1.8087  0.1065
 2859TIP3    H232773   2.499   2.034   1.049 -1.4111  0.0757 -0.4879
 2860TIP3   OH232774   0.182   5.184   9.703  0.1521  0.2867  0.1842
 2860TIP3    H132775   0.109   5.197   9.763 -1.5646 -0.2885 -1.6637
 2860TIP3    H232776   0.205   5.092   9.711 -1.4765 -0.3043 -1.4733
 2861TIP3   OH232777   1.755   1.325   8.765 -0.1658  0.1813  0.1615
 2861TIP3    H132778   1.695   1.393   8.737 -0.5496 -0.4301 -0.5319
 2861TIP3    H232779   1.702   1.245   8.766 -0.0144  0.0511  2.0061
 2862TIP3   OH232780   4.832   0.367   8.953  0.6481  0.7293  0.4252
 2862TIP3    H132781   4.751   0.392   8.997  1.1940  0.8621  1.3903
 2862TIP3    H232782   4.813   0.282   8.914  0.4957  0.0089  1.9693
 2863TIP3   OH232783   5.906   5.878   9.067 -0.2986 -0.1743 -0.3593
 2863TIP3    H132784   5.842   5.932   9.114  0.5621 -0.6005  1.3989
 2863TIP3    H232785   5.979   5.937   9.050 -0.3380 -0.1868 -0.5711
 2864TIP3   OH232786   1.705   5.434   2.457 -0.0670 -0.1185  0.5244
 2864TIP3    H132787   1.733   5.410   2.545 -2.5857 -0.5459  1.2807
 2864TIP3    H232788   1.637   5.501   2.470 -0.4766 -0.1730 -1.0876
 2865TIP3   OH232789   2.701   4.186   0.267 -0.3139  0.1275 -0.0036
 2865TIP3    H132790   2.733   4.275   0.248  2.0292 -0.4238  0.9423
 2865TIP3    H232791   2.774   4.129   0.240 -1.3145 -1.4247  0.4863
 2866TIP3   OH232792   4.307   2.944   8.763  0.2604  0.2249  0.6949
 2866TIP3    H132793   4.374   2.892   8.719  1.2215  1.7377  0.2779
 2866TIP3    H232794   4.225   2.916   8.723  0.9134  0.1976 -0.7056
 2867TIP3   OH232795   6.347   7.264   1.774 -0.0107 -0.2545  0.4867
 2867TIP3    H132796   6.274   7.311   1.734 -0.1705  0.6117  1.7409
 2867TIP3    H232797   6.426   7.307   1.739 -0.1094 -0.5407 -0.1003
 2868TIP3   OH232798   5.397   5.964   1.101  0.1697 -0.2842  0.1888
 2868TIP3    H132799   5.320   6.017   1.080 -0.5494 -1.8758 -1.4943
 2868TIP3    H232800   5.466   5.997   1.043  0.1286 -0.2760  0.1444
 2869TIP3   OH232801   4.038   3.442   0.463  0.2627 -0.2713  0.4426
 2869TIP3    H132802   4.000   3.403   0.385  0.6104  0.5329 -0.1415
 2869TIP3    H232803   4.009   3.533   0.462  0.3865 -0.2150  1.1747
 2870TIP3   OH232804   3.166   3.346   8.781 -0.3561  0.7927 -0.1090
 2870TIP3    H132805   3.206   3.264   8.752  0.3819  1.0562  0.1344
 2870TIP3    H232806   3.108   3.371   8.709  0.2817  0.6420 -0.6852
 2871TIP3   OH232807   1.665   7.218   9.905 -0.0811 -0.1678  0.2123
 2871TIP3    H132808   1.721   7.165   9.960 -1.2071  0.2861  1.8863
 2871TIP3    H232809   1.600   7.255   9.965 -0.0826  2.1046 -1.0678
 2872TIP3   OH232810   5.777   1.519   9.119 -0.2482 -0.4037 -0.2810
 2872TIP3    H132811   5.684   1.530   9.138 -0.3243 -0.3022 -0.7087
 2872TIP3    H232812   5.788   1.425   9.105 -0.1563 -0.5059  0.4348
 2873TIP3   OH232813   6.482   4.456   9.749  0.1143  0.2719 -0.2712
 2873TIP3    H132814   6.422   4.434   9.678 -0.8102  1.6548  0.0396
 2873TIP3    H232815   6.516   4.543   9.727 -0.6879  1.0214  1.2323
 2874TIP3   OH232816   5.636   1.221   1.398 -0.1384 -0.2802  0.4402
 2874TIP3    H132817   5.609   1.130   1.382  1.3105 -0.6833  0.1731
 2874TIP3    H232818   5.578   1.251   1.468 -1.9703 -0.7424 -0.7952
 2875TIP3   OH232819   0.052   0.095   1.699 -0.3085  0.2320 -0.3249
 2875TIP3    H132820  -0.025   0.103   1.755  0.4311  0.6594  0.6449
 2875TIP3    H232821   0.052   0.174   1.646  0.5851  1.2530  1.1311
 2876TIP3   OH232822   6.317   7.633   9.150  0.6556  0.1742  0.0632
 2876TIP3    H132823   6.405   7.670   9.157  1.7716 -1.9871 -1.5066
 2876TIP3    H232824   6.310   7.575   9.226  0.8009 -0.0441 -0.0883
 2877TIP3   OH232825   0.534   1.504   7.652  0.7426  0.1472  0.0012
 2877TIP3    H132826   0.593   1.486   7.579  0.9716 -2.2694  0.6805
 2877TIP3    H232827   0.448   1.474   7.621  0.5307  0.5540  0.1889
 2878TIP3   OH232828   2.472   6.021   1.862  0.8329  0.1467  0.1578
 2878TIP3    H132829   2.539   6.000   1.927  1.5615 -0.8406 -0.8817
 2878TIP3    H232830   2.389   6.015   1.911  1.4560  1.5615  1.4974
 2879TIP3   OH232831   3.211   5.864   0.038  0.3799  0.0904  0.1214
 2879TIP3    H132832   3.202   5.920  -0.038 -1.6239 -0.2784  0.0229
 2879TIP3    H232833   3.200   5.775   0.004 -0.9240 -0.0579  0.8483
 2880TIP3   OH232834   3.625   7.010   9.368  0.2017 -0.0688 -0.0184
 2880TIP3    H132835   3.643   7.001   9.462  0.5073  0.3377 -0.0340
 2880TIP3    H232836   3.530   7.022   9.363 -0.0391 -1.6803  0.1094
 2881TIP3   OH232837   1.885   3.607   6.628  0.6258 -0.5241  0.0246
 2881TIP3    H132838   1.880   3.513   6.645  0.3203 -0.2671  1.4528
 2881TIP3    H232839   1.800   3.641   6.656  0.3369  0.0477 -1.4665
 2882TIP3   OH232840   0.766   7.163   7.494 -0.1198 -0.1402  0.0701
 2882TIP3    H132841   0.800   7.190   7.409  1.3499 -0.3449  0.5595
 2882TIP3    H232842   0.681   7.206   7.501 -0.7133 -0.8858 -1.8905
 2883TIP3   OH232843   2.069   4.407   2.048  1.2378  0.2366 -0.0265
 2883TIP3    H132844   1.982   4.444   2.030  1.6072  0.7946 -0.6880
 2883TIP3    H232845   2.059   4.364   2.133 -0.0258 -0.7447 -0.6308
 2884TIP3   OH232846   2.694   6.897   1.873 -0.5114  0.3215 -0.1902
 2884TIP3    H132847   2.605   6.905   1.906 -0.2129 -0.5568  0.9054
 2884TIP3    H232848   2.692   6.938   1.787 -2.5457 -1.6494 -1.1809
 2885TIP3   OH232849   1.416   6.036   1.500 -0.1099 -0.3620 -0.4543
 2885TIP3    H132850   1.412   6.132   1.503  1.0400 -0.3304  1.7836
 2885TIP3    H232851   1.326   6.008   1.514 -0.1859  0.3997  0.7223
 2886TIP3   OH232852   4.503   7.561   9.305  0.4633 -0.4332 -0.3298
 2886TIP3    H132853   4.421   7.572   9.353 -0.3831 -1.1713 -1.5402
 2886TIP3    H232854   4.540   7.648   9.299  0.6201 -0.3315  1.6860
 2887TIP3   OH232855   1.224   6.668   8.685 -0.0669  0.8933 -0.2338
 2887TIP3    H132856   1.249   6.629   8.769 -1.0859 -0.5296 -0.5741
 2887TIP3    H232857   1.212   6.594   8.626 -0.1223  1.8330 -1.4473
 2888TIP3   OH232858   0.715   6.108   8.453 -0.0672 -0.2578  0.1672
 2888TIP3    H132859   0.728   6.020   8.418  0.3478  0.6915 -2.3360
 2888TIP3    H232860   0.664   6.096   8.533 -1.5326 -2.6433 -1.0250
 2889TIP3   OH232861   4.059   0.609   0.744  0.1254  0.5279 -0.2196
 2889TIP3    H132862   4.079   0.546   0.814 -1.4224  0.5856  0.3148
 2889TIP3    H232863   4.131   0.599   0.682  0.3301 -1.2213  0.2345
 2890TIP3   OH232864   5.871   5.518   2.196  0.0977 -0.3431  0.7845
 2890TIP3    H132865   5.944   5.577   2.217 -0.4600  0.2128  1.1981
 2890TIP3    H232866   5.858   5.466   2.276 -0.4088  0.0506  0.9667
 2891TIP3   OH232867   3.873   3.095   7.797  0.3466 -0.1325  0.1284
 2891TIP3    H132868   3.917   3.164   7.847  1.8477 -0.1289 -1.1341
 2891TIP3    H232869   3.806   3.141   7.747 -0.0811  0.0836  0.8730
 2892TIP3   OH232870   6.860   1.556   1.230  0.1017  0.4151  0.1156
 2892TIP3    H132871   6.889   1.539   1.141 -1.8992 -1.3703 -0.2536
 2892TIP3    H232872   6.782   1.610   1.221  0.1280  0.5910  0.8231
 2893TIP3   OH232873   4.918   1.479   7.642 -0.0487 -0.3375 -0.6033
 2893TIP3    H132874   4.996   1.467   7.696 -1.0101  0.2258  1.0064
 2893TIP3    H232875   4.891   1.391   7.618 -0.6331 -0.7668  1.4450
 2894TIP3   OH232876   3.971   6.953   7.037  0.1760 -0.4316  0.2044
 2894TIP3    H132877   3.994   7.042   7.010 -0.0415 -0.5576 -0.4187
 2894TIP3    H232878   4.013   6.897   6.972  0.1565 -0.7796  0.4882
 2895TIP3   OH232879   5.297   4.394   8.083  0.0541 -0.3661  0.4062
 2895TIP3    H132880   5.309   4.430   7.995 -1.9248  2.6762  1.2339
 2895TIP3    H232881   5.374   4.422   8.132  0.7215 -1.2957 -0.0715
 2896TIP3   OH232882   6.315   4.954   8.817 -0.3693  0.1127 -0.3287
 2896TIP3    H132883   6.322   4.915   8.730 -0.0780  0.1772 -0.3352
 2896TIP3    H232884   6.288   4.882   8.874  1.6200 -0.4757 -0.0583
 2897TIP3   OH232885   0.052   1.887   1.200 -0.2439  0.7231 -0.0880
 2897TIP3    H132886   0.140   1.891   1.162  0.1047 -1.4265  0.3365
 2897TIP3    H232887  -0.007   1.888   1.125  0.3716 -1.9032 -0.7225
 2898TIP3   OH232888   2.584   2.483   1.148  0.1171 -0.3845 -0.0702
 2898TIP3    H132889   2.520   2.513   1.083  0.8681  1.0884 -0.1789
 2898TIP3    H232890   2.541   2.498   1.232 -0.4046 -1.2002 -0.1806
 2899TIP3   OH232891   1.244   6.291   1.333  0.4583 -0.0513  0.1560
 2899TIP3    H132892   1.235   6.311   1.426 -0.9875 -0.8965  0.2236
 2899TIP3    H232893   1.338   6.275   1.321  1.2132  3.2896  0.7434
 2900TIP3   OH232894   3.184   3.089   7.579  0.8390 -0.7485  0.5850
 2900TIP3    H132895   3.208   3.172   7.538 -0.6153 -0.3568  0.4904
 2900TIP3    H232896   3.265   3.059   7.622  1.7606 -0.0128 -0.5834
 2901TIP3   OH232897   2.144   0.746   2.856 -0.2138 -0.1766 -0.5355
 2901TIP3    H132898   2.073   0.693   2.892 -1.2345  1.9640  0.8269
 2901TIP3    H232899   2.201   0.684   2.811 -2.5629 -2.0660 -1.0560
 2902TIP3   OH232900   6.736   0.983   0.735  0.0671 -0.3253  0.1190
 2902TIP3    H132901   6.696   0.897   0.749 -2.2162  0.7701  0.7587
 2902TIP3    H232902   6.672   1.032   0.683 -0.3263  2.0602  2.5892
 2903TIP3   OH232903   6.025   2.886   0.167 -0.0001 -0.0673 -0.5909
 2903TIP3    H132904   6.081   2.878   0.089 -0.4062 -0.8217 -0.8210
 2903TIP3    H232905   5.988   2.798   0.178  1.8416 -0.6556  1.8293
 2904TIP3   OH232906   0.127   0.318   0.082 -0.4365  0.3069 -0.7301
 2904TIP3    H132907   0.077   0.236   0.076 -1.7529  0.7601  2.3979
 2904TIP3    H232908   0.106   0.364   0.000 -1.8706 -1.2780 -1.3232
 2905TIP3   OH232909   7.593   7.583   8.608 -0.3003 -0.4913  0.8668
 2905TIP3    H132910   7.499   7.592   8.590 -0.6043 -3.8121  0.1297
 2905TIP3    H232911   7.605   7.626   8.692 -1.9139  2.1667 -0.0995
 2906TIP3   OH232912   4.549   5.654   8.146  0.2770 -0.3694 -0.1112
 2906TIP3    H132913   4.613   5.596   8.104 -1.0957 -0.5966 -2.0248
 2906TIP3    H232914   4.575   5.742   8.117  0.7153 -0.2841  0.5207
 2907TIP3   OH232915   4.248   0.540   7.850  0.5767  0.1304 -0.0346
 2907TIP3    H132916   4.238   0.530   7.756 -0.5742 -1.8707  0.2368
 2907TIP3    H232917   4.238   0.451   7.885 -0.4557  1.0009  2.0811
 2908TIP3   OH232918   7.253   4.706   9.887  0.2604 -0.6004 -0.1764
 2908TIP3    H132919   7.235   4.665   9.972  0.5447 -3.5852 -1.4470
 2908TIP3    H232920   7.167   4.725   9.850  0.0843 -1.3744 -0.1600
 2909TIP3   OH232921   1.938   1.410   9.774 -0.0235  0.5718  0.1080
 2909TIP3    H132922   1.850   1.433   9.803 -0.3716  3.4789 -2.6291
 2909TIP3    H232923   1.927   1.380   9.683  1.6372 -1.1699  0.3987
 2910TIP3   OH232924   3.342   2.090   1.043 -0.0680  0.3959 -0.3008
 2910TIP3    H132925   3.386   2.123   1.121 -0.8217  0.7317 -0.0050
 2910TIP3    H232926   3.354   1.995   1.047  2.2753  0.5946 -1.2544
 2911TIP3   OH232927   2.199   3.870   9.716 -0.2725 -0.1589  0.1297
 2911TIP3    H132928   2.252   3.943   9.684 -0.7099  0.4846  0.8420
 2911TIP3    H232929   2.113   3.908   9.731 -0.6384 -0.9372  0.0702
 2912TIP3   OH232930   4.270   2.538   9.789 -0.6531  0.5468  0.7418
 2912TIP3    H132931   4.343   2.492   9.830  0.1899  2.7266  1.8283
 2912TIP3    H232932   4.298   2.552   9.699 -1.3971 -1.9132  0.0301
 2913TIP3   OH232933   2.214   2.859   7.798  0.2683 -0.6481  0.3796
 2913TIP3    H132934   2.243   2.771   7.773  0.5181 -0.3445 -0.4634
 2913TIP3    H232935   2.273   2.885   7.869  0.6409 -0.8973  0.1637
 2914TIP3   OH232936   4.040   0.067   2.832 -0.0201 -0.9339  0.2057
 2914TIP3    H132937   3.989   0.010   2.774  0.4249 -2.1866  1.0175
 2914TIP3    H232938   4.072   0.009   2.901  2.6200 -0.2153 -0.3312
 2915TIP3   OH232939   0.866   6.553   0.755 -0.3587 -0.2022 -0.0510
 2915TIP3    H132940   0.805   6.613   0.799 -0.7070 -0.4058 -0.2576
 2915TIP3    H232941   0.908   6.607   0.688  0.6653  0.2916  0.9505
 2916TIP3   OH232942   0.275   2.868   7.413  0.6279 -0.0331  0.3248
 2916TIP3    H132943   0.213   2.842   7.344  1.4689 -0.1197 -0.4215
 2916TIP3    H232944   0.270   2.963   7.416  0.6500 -0.0237  0.0765
 2917TIP3   OH232945   5.359   0.442   9.001  0.0198  0.0866 -0.3876
 2917TIP3    H132946   5.379   0.491   9.081 -2.8719 -2.2756  2.0542
 2917TIP3    H232947   5.263   0.438   9.000  0.0615 -2.1276 -2.5977
 2918TIP3   OH232948   5.573   3.726   8.827  0.6053  0.0364 -0.6012
 2918TIP3    H132949   5.544   3.813   8.856  1.0049 -1.0262  3.7216
 2918TIP3    H232950   5.654   3.743   8.778  1.8050  2.1245  1.8397
 2919TIP3   OH232951   0.988   2.792   8.209 -0.1236  0.7271 -0.0399
 2919TIP3    H132952   1.070   2.838   8.225 -0.4037  0.9071  0.9516
 2919TIP3    H232953   0.985   2.725   8.277 -1.0537  1.0880  0.2926
 2920TIP3   OH232954   1.002   5.528   0.708 -0.3645  0.1549  0.1791
 2920TIP3    H132955   0.990   5.586   0.783  1.7439  0.1570  0.5706
 2920TIP3    H232956   1.049   5.453   0.743  2.9812  1.2622 -1.4780
 2921TIP3   OH232957   2.798   5.818   2.401 -0.1074  0.0349  0.7984
 2921TIP3    H132958   2.746   5.895   2.425 -2.0195 -1.8009  2.9064
 2921TIP3    H232959   2.851   5.799   2.478  1.3560 -0.0454 -0.1810
 2922TIP3   OH232960   2.079   4.328   8.605  0.1257 -0.1957 -0.0916
 2922TIP3    H132961   2.037   4.315   8.690 -0.0117  0.8218  0.0094
 2922TIP3    H232962   2.020   4.386   8.557  1.5355  1.5361  0.1787
 2923TIP3   OH232963   2.245   1.163   1.878 -0.0574  0.2970  0.0631
 2923TIP3    H132964   2.194   1.220   1.935 -2.9287 -0.7312 -1.2944
 2923TIP3    H232965   2.298   1.222   1.825  1.2755  1.3479  2.3882
 2924TIP3   OH232966   1.713   3.171   0.662  0.4911 -0.6218 -0.2123
 2924TIP3    H132967   1.660   3.095   0.686 -0.7909 -0.2472 -1.7074
 2924TIP3    H232968   1.673   3.204   0.581  2.3715  0.3246 -0.8196
 2925TIP3   OH232969   6.706   2.633   0.265  0.4477 -0.4112  0.2254
 2925TIP3    H132970   6.703   2.714   0.316  0.5964 -1.3861  1.8448
 2925TIP3    H232971   6.774   2.649   0.200  0.2437  0.8819  0.3047
 2926TIP3   OH232972   4.451   3.999   2.261 -0.6373 -0.1803 -0.0446
 2926TIP3    H132973   4.395   3.998   2.339  0.6026  0.8861  0.8859
 2926TIP3    H232974   4.531   4.044   2.288 -1.4218  3.3367 -2.8029
 2927TIP3   OH232975   3.123   5.171   2.015 -0.3048 -0.4392 -0.3444
 2927TIP3    H132976   3.208   5.185   1.972 -0.9063 -0.0920 -1.4595
 2927TIP3    H232977   3.139   5.100   2.077  0.6948 -0.6720 -0.8447
 2928TIP3   OH232978   2.297   1.749   7.603 -0.0476 -0.2849  0.0630
 2928TIP3    H132979   2.285   1.844   7.592 -0.7125 -0.4358 -0.5831
 2928TIP3    H232980   2.235   1.710   7.542  1.1945 -1.1423 -0.7034
 2929TIP3   OH232981   3.678   7.220   2.119 -1.1132  0.2982 -0.0055
 2929TIP3    H132982   3.601   7.163   2.113 -0.4197 -0.5022 -2.1368
 2929TIP3    H232983   3.727   7.203   2.038  0.5385  1.9031  0.5942
 2930TIP3   OH232984   2.304   0.468   1.072  0.2563 -0.5783 -0.0390
 2930TIP3    H132985   2.282   0.492   0.982  2.5390  0.7623 -0.3293
 2930TIP3    H232986   2.237   0.512   1.125  0.1653  0.4677 -0.9787
 2931TIP3   OH232987   2.155   0.238   8.653  0.5089  0.3933 -0.2043
 2931TIP3    H132988   2.171   0.159   8.706  0.9050 -0.6482 -1.8026
 2931TIP3    H232989   2.063   0.230   8.627  1.0601 -0.6053 -1.9758
 2932TIP3   OH232990   4.381   0.044   8.740  0.2487  0.0394  0.2805
 2932TIP3    H132991   4.331   0.116   8.702  0.2932 -0.6896 -1.2315
 2932TIP3    H232992   4.328   0.015   8.814 -1.1741 -0.1427 -0.7556
 2933TIP3   OH232993   5.584   2.213   8.882 -0.1482 -0.8326 -0.0618
 2933TIP3    H132994   5.509   2.221   8.940 -2.4423 -0.4652 -2.8739
 2933TIP3    H232995   5.571   2.281   8.817  3.9500  0.8525  0.5692
 2934TIP3   OH232996   2.098   5.305   8.616 -0.0090 -0.1268  0.1192
 2934TIP3    H132997   2.118   5.217   8.647 -0.7293 -0.3693 -0.0954
 2934TIP3    H232998   2.076   5.354   8.695 -1.4788 -0.6449  0.0575
 2935TIP3   OH232999   4.196   3.010   2.378  0.2233 -0.2060  0.4750
 2935TIP3    H133000   4.111   3.028   2.338  0.6417  1.5656  0.2997
 2935TIP3    H233001   4.201   2.915   2.383 -1.4600 -0.3523 -0.1680
 2936TIP3   OH233002   6.372   6.812   7.385  0.1968  0.7549 -0.1359
 2936TIP3    H133003   6.416   6.746   7.439 -1.0270  0.1695  0.1903
 2936TIP3    H233004   6.431   6.887   7.387  1.3461 -0.1120 -0.0235
 2937TIP3   OH233005   3.117   3.491   2.136 -0.0083 -0.5355 -0.2272
 2937TIP3    H133006   3.210   3.493   2.113 -0.3331  1.3131 -1.6111
 2937TIP3    H233007   3.116   3.492   2.231  1.4117  1.5077 -0.1877
 2938TIP3   OH233008   4.336   0.056   2.292 -0.4324 -0.1929  0.0936
 2938TIP3    H133009   4.350   0.046   2.198 -1.6238 -0.0456 -0.1117
 2938TIP3    H233010   4.387  -0.015   2.332 -0.4400 -0.6506 -0.6970
 2939TIP3   OH233011   3.029   4.376   2.120  0.0895  0.1342 -0.1838
 2939TIP3    H133012   2.989   4.358   2.205  0.8215 -0.3307  0.0691
 2939TIP3    H233013   2.969   4.437   2.078 -0.2862  0.3555  0.6577
 2940TIP3   OH233014   6.907   5.261   0.780  0.0670 -0.5406 -0.6335
 2940TIP3    H133015   6.856   5.321   0.835 -0.0858 -0.0965 -1.2524
 2940TIP3    H233016   6.981   5.313   0.749  0.7857 -1.1176  0.0761
 2941TIP3   OH233017   0.502   6.579   8.666 -0.3875  0.3611  0.1177
 2941TIP3    H133018   0.501   6.530   8.584 -0.8864 -0.9513  0.8692
 2941TIP3    H233019   0.584   6.627   8.665  1.4429 -2.5037  0.4364
 2942TIP3   OH233020   1.182   1.668   9.052  0.3175  0.2695  0.3300
 2942TIP3    H133021   1.111   1.732   9.057  1.9252  2.0249  2.2890
 2942TIP3    H233022   1.154   1.596   9.109 -0.5874  0.1730 -0.2248
 2943TIP3   OH233023   5.380   6.332   1.195  0.4891 -0.4411  0.0991
 2943TIP3    H133024   5.462   6.318   1.243  0.5872  0.0648  0.0821
 2943TIP3    H233025   5.311   6.314   1.259  0.6174  0.2476  0.4444
 2944TIP3   OH233026   7.361   3.275   9.270  0.3387  0.1137  0.4524
 2944TIP3    H133027   7.279   3.274   9.221  0.9910  1.1466 -0.6972
 2944TIP3    H233028   7.404   3.193   9.245  0.0501 -0.0236  0.3966
 2945TIP3   OH233029   5.553   4.812   0.169 -0.3596 -0.4282 -0.2571
 2945TIP3    H133030   5.623   4.861   0.125 -0.3654 -0.0585  0.1427
 2945TIP3    H233031   5.600   4.751   0.226 -0.3300  1.1184  1.4696
 2946TIP3   OH233032   4.215   1.967   9.873  0.5393 -0.0941  0.0820
 2946TIP3    H133033   4.198   2.062   9.872  0.6296 -0.0827 -0.8636
 2946TIP3    H233034   4.309   1.960   9.862  0.4524 -0.3092 -0.5402
 2947TIP3   OH233035   1.650   6.368   9.799 -0.5381  0.3880 -0.1624
 2947TIP3    H133036   1.612   6.367   9.711  0.9901 -0.7472 -0.8582
 2947TIP3    H233037   1.623   6.285   9.838  1.2996 -0.5375 -0.7490
 2948TIP3   OH233038   0.651   5.423   1.428  0.2008 -0.3830  0.1297
 2948TIP3    H133039   0.633   5.514   1.406 -2.0923 -0.9062 -0.4286
 2948TIP3    H233040   0.584   5.373   1.381  1.6231 -2.4087  0.1095
 2949TIP3   OH233041   3.600   6.442   6.564  0.2811 -0.1602 -0.4406
 2949TIP3    H133042   3.531   6.504   6.542  1.0973  1.0572  0.2834
 2949TIP3    H233043   3.681   6.485   6.536  1.1633  0.4827  2.6345
 2950TIP3   OH233044   4.455   2.676   8.120  0.2145  0.1416 -0.5393
 2950TIP3    H133045   4.468   2.585   8.148  1.7682  0.2647 -0.7548
 2950TIP3    H233046   4.387   2.671   8.053  0.7055 -0.9648 -0.9809
 2951TIP3   OH233047   2.927   1.350   9.006  0.0841 -0.1785  0.3807
 2951TIP3    H133048   2.889   1.397   9.080 -0.8345 -0.9762  0.4425
 2951TIP3    H233049   2.983   1.283   9.046  0.7985  0.3694  0.3104
 2952TIP3   OH233050   2.031   3.678   7.676 -0.7537 -0.4632 -1.0870
 2952TIP3    H133051   1.959   3.686   7.614  0.3891 -0.1983 -2.4485
 2952TIP3    H233052   2.045   3.584   7.685 -0.3156 -0.5014 -2.0165
 2953TIP3   OH233053   2.150   0.869   0.479 -0.1686  0.2631  0.0140
 2953TIP3    H133054   2.154   0.874   0.384 -0.5310 -0.9601 -0.0848
 2953TIP3    H233055   2.170   0.777   0.499  0.6973  0.6727  1.1704
 2954TIP3   OH233056   2.071   5.189   1.117  0.0408  0.1574  0.0659
 2954TIP3    H133057   2.089   5.216   1.027 -1.3033 -1.3179 -0.6890
 2954TIP3    H233058   1.980   5.214   1.131 -0.3427 -1.3133  0.3322
 2955TIP3   OH233059   1.175   5.489   8.105 -0.4968  0.1159 -0.0112
 2955TIP3    H133060   1.085   5.520   8.102  0.3612  2.8056 -0.1756
 2955TIP3    H233061   1.211   5.512   8.020  0.7797  0.5551  0.6242
 2956TIP3   OH233062   3.661   6.121   9.012 -0.2690  0.1603  0.4490
 2956TIP3    H133063   3.709   6.050   8.969  0.2397 -0.1353  1.4637
 2956TIP3    H233064   3.579   6.081   9.040  0.3835 -0.2914  1.7940
 2957TIP3   OH233065   6.285   4.301   9.618  0.0717 -0.3900  0.2845
 2957TIP3    H133066   6.347   4.238   9.580  0.9714  1.0463 -0.7029
 2957TIP3    H233067   6.202   4.253   9.618  0.7290 -1.6115 -0.3884
 2958TIP3   OH233068   3.324   1.072   9.006  0.5426  0.3487 -0.3340
 2958TIP3    H133069   3.409   1.110   8.983  0.0514  0.3777 -2.3109
 2958TIP3    H233070   3.344   1.007   9.073  2.8293 -2.6507 -3.5620
 2959TIP3   OH233071   4.257   6.337   1.109  0.5514 -0.6663  0.6427
 2959TIP3    H133072   4.329   6.308   1.165  1.2252 -0.5065 -0.1054
 2959TIP3    H233073   4.251   6.269   1.042 -0.3700 -0.9513  1.0050
 2960TIP3   OH233074   1.462   3.639   8.327 -0.2029  0.0670 -0.3341
 2960TIP3    H133075   1.539   3.672   8.280 -0.4056  1.8120  0.4803
 2960TIP3    H233076   1.499   3.577   8.390  0.4985  0.5503 -0.2515
 2961TIP3   OH233077   3.848   0.634   8.925 -0.0032  0.2828  0.0669
 2961TIP3    H133078   3.782   0.693   8.890  0.9680  1.6423  0.4239
 2961TIP3    H233079   3.903   0.690   8.980  0.7255 -1.0451  0.7387
 2962TIP3   OH233080   0.229   6.660   9.006  0.0980  0.1533  0.5296
 2962TIP3    H133081   0.205   6.752   9.017 -0.2054  0.1399 -0.0088
 2962TIP3    H233082   0.255   6.653   8.915  0.3411 -0.2487  0.6270
 2963TIP3   OH233083   1.305   7.550   7.888 -0.2150 -0.1744 -0.5300
 2963TIP3    H133084   1.296   7.566   7.982  0.6429  1.9405 -0.7546
 2963TIP3    H233085   1.304   7.455   7.879 -0.5342 -0.4042  1.5815
 2964TIP3   OH233086   3.645   6.272   2.245 -1.0533  0.0001 -0.3774
 2964TIP3    H133087   3.683   6.190   2.276 -0.5995  0.0500 -0.7812
 2964TIP3    H233088   3.556   6.273   2.282 -1.0941 -0.7130 -0.4376
 2965TIP3   OH233089   5.835   0.377   1.474 -0.1604  0.0311  0.3804
 2965TIP3    H133090   5.904   0.310   1.478 -0.8203 -0.6110  1.6381
 2965TIP3    H233091   5.757   0.333   1.508 -1.0981  0.8699 -0.6324
 2966TIP3   OH233092   3.027   3.106   9.781  0.9794  0.1879 -0.1692
 2966TIP3    H133093   2.972   3.068   9.712  1.1828  0.3215 -0.4044
 2966TIP3    H233094   3.048   3.032   9.839 -0.9283  0.4534  0.9413
 2967TIP3   OH233095   0.351   3.630   8.102  0.1462 -0.0009  0.1429
 2967TIP3    H133096   0.268   3.677   8.108 -0.5325 -1.0907 -0.4928
 2967TIP3    H233097   0.417   3.699   8.092 -0.5211  0.9551  1.8348
 2968TIP3   OH233098   3.503   5.358   0.767 -0.0652 -0.0064 -0.0217
 2968TIP3    H133099   3.419   5.377   0.724 -0.4782  1.1742  1.2379
 2968TIP3    H233100   3.562   5.334   0.695 -1.2593 -0.0400 -1.0197
 2969TIP3   OH233101   5.502   5.141   2.051  0.0367 -0.0634  0.2806
 2969TIP3    H133102   5.521   5.223   2.096 -1.4583  1.0165 -0.9418
 2969TIP3    H233103   5.407   5.131   2.058  0.1597 -1.5913  0.2138
 2970TIP3   OH233104   2.649   6.185   1.713  0.5185 -0.3035  0.2838
 2970TIP3    H133105   2.734   6.183   1.756  0.5261 -0.2705  0.2703
 2970TIP3    H233106   2.594   6.126   1.765  0.9058 -1.3641 -0.4711
 2971TIP3   OH233107   2.223   2.383   8.695 -0.0512 -0.0869  0.0647
 2971TIP3    H133108   2.285   2.352   8.629  1.3095  0.7906  0.8975
 2971TIP3    H233109   2.277   2.416   8.766 -1.4156  2.5477 -0.0004
 2972TIP3   OH233110   7.645   1.987   1.972 -0.0122  0.0107 -0.4471
 2972TIP3    H133111   7.697   2.032   1.906 -1.3903  1.6365 -0.4708
 2972TIP3    H233112   7.559   1.976   1.933  0.3244 -3.0927 -0.6030
 2973TIP3   OH233113   0.396   6.475   9.624 -0.2185  0.4913 -0.0007
 2973TIP3    H133114   0.466   6.421   9.587 -0.6252  0.7440 -1.1843
 2973TIP3    H233115   0.438   6.558   9.646  0.6735 -0.6345  2.9336
 2974TIP3   OH233116   5.370   7.325   8.063  0.1499  0.6921 -0.0842
 2974TIP3    H133117   5.448   7.352   8.113 -0.1314  1.1441  0.1145
 2974TIP3    H233118   5.379   7.369   7.979 -0.4320  1.6178  0.3274
 2975TIP3   OH233119   2.588   2.031   1.270  0.7822  0.1873  0.7397
 2975TIP3    H133120   2.643   2.108   1.255  0.2651  0.6173  1.0163
 2975TIP3    H233121   2.647   1.968   1.314  1.1222  0.5414  0.7982
 2976TIP3   OH233122   3.892   0.178   2.593  0.0589  0.3400 -0.1076
 2976TIP3    H133123   3.963   0.171   2.529  0.3985  0.2141  0.2814
 2976TIP3    H233124   3.926   0.135   2.672 -1.0645 -1.1865 -0.4280
 2977TIP3   OH233125   2.448   4.632   1.446 -0.1681  0.0976  0.0774
 2977TIP3    H133126   2.450   4.621   1.542  0.5404  1.3511  0.2315
 2977TIP3    H233127   2.423   4.724   1.434 -0.2283 -0.0489 -0.9517
 2978TIP3   OH233128   2.782   6.173   8.586 -0.7303 -0.5909  0.3193
 2978TIP3    H133129   2.756   6.223   8.509  1.7324  2.3399  1.1888
 2978TIP3    H233130   2.878   6.172   8.582 -0.5909 -1.7766  2.5102
 2979TIP3   OH233131   1.194   7.594   9.114  0.7590 -0.5751 -0.2532
 2979TIP3    H133132   1.218   7.522   9.055  0.9781  0.9765 -2.1524
 2979TIP3    H233133   1.168   7.665   9.056 -0.1953  0.6563  1.5815
 2980TIP3   OH233134   3.713   5.678   7.980  0.2869 -0.1164  0.5509
 2980TIP3    H133135   3.701   5.584   7.989 -0.1351  0.0357  1.8369
 2980TIP3    H233136   3.787   5.698   8.038 -0.8154  0.5843  1.7647
 2981TIP3   OH233137   6.785   5.594   0.473  0.5997  0.4247 -0.1576
 2981TIP3    H133138   6.759   5.503   0.488 -0.9932  1.1485  1.9007
 2981TIP3    H233139   6.784   5.635   0.559  1.6803  2.3321 -0.9692
 2982TIP3   OH233140   0.447   3.671   1.664 -0.1137  0.3130 -0.6395
 2982TIP3    H133141   0.425   3.629   1.747 -1.6301 -1.2092 -1.7299
 2982TIP3    H233142   0.529   3.717   1.681  0.7419 -1.6947  1.1539
 2983TIP3   OH233143   6.290   7.129   8.742  0.2148  0.1551 -0.4629
 2983TIP3    H133144   6.263   7.172   8.823  0.3375  0.0452 -0.3642
 2983TIP3    H233145   6.236   7.050   8.738  0.4295  0.0022 -0.3317
 2984TIP3   OH233146   6.882   1.340   1.851  0.2780 -0.6998  0.2429
 2984TIP3    H133147   6.925   1.412   1.805  0.7412 -0.5836  0.8505
 2984TIP3    H233148   6.851   1.379   1.933 -0.8958 -0.8101 -0.1339
 2985TIP3   OH233149   3.417   2.074   2.252 -0.7002 -0.0127  0.0544
 2985TIP3    H133150   3.512   2.090   2.250 -0.8619  1.6350  1.7842
 2985TIP3    H233151   3.382   2.128   2.181 -0.3540 -0.8792 -0.8029
 2986TIP3   OH233152   2.374   0.138   0.724  0.0422  0.4311  0.6853
 2986TIP3    H133153   2.351   0.169   0.636 -0.6703 -1.8235  0.0146
 2986TIP3    H233154   2.423   0.057   0.709 -0.8547 -0.4709  2.3924
 2987TIP3   OH233155   3.975   5.720   2.109  0.0941  0.1595  0.2926
 2987TIP3    H133156   4.030   5.657   2.063 -0.7432 -0.5909  0.2889
 2987TIP3    H233157   3.903   5.737   2.049  0.1359  0.8696  0.4359
 2988TIP3   OH233158   7.319   4.394   9.301  0.2912 -0.2340  0.0838
 2988TIP3    H133159   7.239   4.360   9.260  0.2269  0.8408 -0.7194
 2988TIP3    H233160   7.390   4.348   9.257  0.1997  0.5098 -0.8736
 2989TIP3   OH233161   4.194   1.830   0.746 -0.3273  0.2769  0.5036
 2989TIP3    H133162   4.179   1.742   0.781  0.6213 -0.1891 -0.2090
 2989TIP3    H233163   4.285   1.828   0.715 -0.3606  1.4489  0.2998
 2990TIP3   OH233164   4.643   6.283   2.586  0.0367  0.6042 -0.0695
 2990TIP3    H133165   4.616   6.347   2.520  1.8667  1.6136  0.0767
 2990TIP3    H233166   4.647   6.200   2.539 -2.1493  0.5902 -0.3224
 2991TIP3   OH233167   6.881   6.779   1.151 -0.2512 -0.1138 -0.3672
 2991TIP3    H133168   6.858   6.808   1.062  0.2271 -1.0242 -0.8051
 2991TIP3    H233169   6.801   6.789   1.201 -0.1733  1.7632 -0.5251
 2992TIP3   OH233170   7.308   0.073   8.297 -0.4048  0.2266  0.2856
 2992TIP3    H133171   7.217   0.096   8.280 -0.5955 -0.3228  0.5369
 2992TIP3    H233172   7.316  -0.017   8.265  0.7868  1.1594 -2.3264
 2993TIP3   OH233173   0.038   5.930   1.317 -0.2128 -0.6605 -0.4547
 2993TIP3    H133174   0.070   5.852   1.272 -0.5270  0.0026 -1.9157
 2993TIP3    H233175  -0.032   5.963   1.260  0.6166  1.2684 -0.4517
 2994TIP3   OH233176   1.559   2.080   9.716 -0.4306  0.0215 -0.7892
 2994TIP3    H133177   1.510   1.999   9.702  1.5185 -1.1206 -1.5409
 2994TIP3    H233178   1.648   2.050   9.735  0.1243  1.9925 -0.0578
 2995TIP3   OH233179   1.164   7.337   9.395 -0.2466  0.4465 -0.4516
 2995TIP3    H133180   1.187   7.244   9.392 -1.9138 -0.1059  1.6799
 2995TIP3    H233181   1.114   7.352   9.314  0.8204 -0.2596 -1.2555
 2996TIP3   OH233182   3.390   0.013   0.984 -0.0654  0.2792 -0.5065
 2996TIP3    H133183   3.421   0.009   1.074 -1.7078 -0.2124  0.0836
 2996TIP3    H233184   3.371  -0.078   0.961 -2.1581  0.6115 -0.3585
 2997TIP3   OH233185   3.539   2.295   9.891  0.0370 -0.0209  0.6652
 2997TIP3    H133186   3.455   2.269   9.853  0.4516 -1.4216  0.6318
 2997TIP3    H233187   3.604   2.261   9.831  0.6827 -1.5137  2.1106
 2998TIP3   OH233188   1.250   7.581   9.533  0.1174  0.3480 -0.1024
 2998TIP3    H133189   1.183   7.609   9.595  0.2066  0.6863 -0.1564
 2998TIP3    H233190   1.214   7.502   9.493  1.4800 -1.9556  2.8138
 2999TIP3   OH233191   1.567   6.344   0.152  0.2951  0.2703 -0.3465
 2999TIP3    H133192   1.615   6.425   0.136  2.2768 -0.8723 -0.4909
 2999TIP3    H233193   1.483   6.372   0.189  1.0188  2.3569 -0.1858
 3000TIP3   OH233194   5.917   0.859   1.226 -0.0194 -0.0760 -0.6360
 3000TIP3    H133195   5.867   0.940   1.219  0.2373 -0.0109 -1.9377
 3000TIP3    H233196   6.002   0.885   1.261  0.2527  0.3211 -1.5520
 3001TIP3   OH233197   1.947   5.490   0.781  0.0403  0.0609 -0.3426
 3001TIP3    H133198   2.006   5.551   0.737  1.3692 -0.7412  0.2566
 3001TIP3    H233199   1.902   5.445   0.711 -1.4344  2.1273 -0.7986
 3002TIP3   OH233200   2.545   5.288   7.535  0.0945 -0.1610  0.0744
 3002TIP3    H133201   2.531   5.308   7.627  0.5851  0.1600  0.0821
 3002TIP3    H233202   2.457   5.276   7.500 -0.0615 -1.3058  0.8035
 3003TIP3   OH233203   6.169   0.253   9.682 -0.1781  0.3882 -0.4466
 3003TIP3    H133204   6.157   0.231   9.589 -0.8240 -0.5326 -0.1606
 3003TIP3    H233205   6.256   0.291   9.686 -0.2813  0.8002 -1.4917
 3004TIP3   OH233206   1.640   0.982   0.432 -0.1511 -0.1380  0.1788
 3004TIP3    H133207   1.564   1.023   0.473  0.6752 -0.3216  1.9877
 3004TIP3    H233208   1.662   1.039   0.358 -2.0627 -0.1266 -0.4287
 3005TIP3   OH233209   3.326   1.491   2.156  0.2506  0.0462 -0.1411
 3005TIP3    H133210   3.333   1.397   2.139 -1.2461 -0.4307  1.5805
 3005TIP3    H233211   3.286   1.526   2.076 -1.1419 -1.1464 -0.0183
 3006TIP3   OH233212   2.975   7.171   2.097 -0.4311  0.2209  0.7386
 3006TIP3    H133213   2.930   7.253   2.079 -0.6786  0.1947  1.2408
 3006TIP3    H233214   3.039   7.163   2.026  1.3128  2.0649  1.9860
 3007TIP3   OH233215   0.739   0.117   9.101 -0.3191 -0.0477 -0.0673
 3007TIP3    H133216   0.773   0.176   9.169  0.9913 -0.3209 -0.4436
 3007TIP3    H233217   0.654   0.153   9.078  0.3064  1.5265 -0.0663
 3008TIP3   OH233218   2.941   0.539   1.921  0.1912  0.5767  0.1124
 3008TIP3    H133219   2.912   0.566   2.008 -1.0672  1.2485 -0.4827
 3008TIP3    H233220   2.905   0.451   1.910 -0.7191  0.9644 -0.1756
 3009TIP3   OH233221   2.520   0.201   3.064  0.4041  0.5574 -0.1308
 3009TIP3    H133222   2.434   0.160   3.056  0.3022  1.0434 -1.9545
 3009TIP3    H233223   2.583   0.130   3.051  0.2909  0.3077  0.6307
 3010TIP3   OH233224   1.701   3.196   7.192 -0.0653 -0.2520 -0.4203
 3010TIP3    H133225   1.612   3.171   7.168 -0.3042  0.8219 -0.6795
 3010TIP3    H233226   1.701   3.196   7.287 -0.4114 -0.0146 -0.4199
 3011TIP3   OH233227   0.189   3.913   0.964 -0.1357  0.0627 -0.5341
 3011TIP3    H133228   0.155   3.997   0.993  2.1341  1.1834 -0.8589
 3011TIP3    H233229   0.217   3.869   1.044  1.0311  0.7606 -0.5364
 3012TIP3   OH233230   4.367   5.091   8.044 -0.4481  0.0410  0.6932
 3012TIP3    H133231   4.459   5.074   8.021 -0.3927 -0.0095  0.9539
 3012TIP3    H233232   4.331   5.134   7.966  0.5270  2.5735  1.5444
 3013TIP3   OH233233   3.886   2.191   1.838 -0.0919  0.6109  0.0208
 3013TIP3    H133234   3.803   2.186   1.886 -0.9442 -0.2013 -1.4497
 3013TIP3    H233235   3.951   2.212   1.904 -1.0585 -1.4505  1.7350
 3014TIP3   OH233236   2.317   6.983   9.757 -0.2592  0.0927 -0.1743
 3014TIP3    H133237   2.250   6.980   9.689 -0.2386 -0.0941 -0.1851
 3014TIP3    H233238   2.387   6.927   9.725  0.0441  0.5395 -0.3098
 3015TIP3   OH233239   7.322   0.587   2.058 -0.6754  0.0463  0.1107
 3015TIP3    H133240   7.227   0.579   2.056 -0.5612 -2.1623  0.7175
 3015TIP3    H233241   7.339   0.647   2.131 -1.5672 -1.0976  1.3025
 3016TIP3   OH233242   3.241   1.180   0.014  0.1811  0.0666  0.2844
 3016TIP3    H133243   3.328   1.208  -0.015  0.6236 -0.6153  0.9209
 3016TIP3    H233244   3.215   1.244   0.080 -0.5873  1.3021 -1.1603
 3017TIP3   OH233245   3.639   1.771   8.714  0.2644 -0.5732 -0.8166
 3017TIP3    H133246   3.579   1.717   8.764 -1.6215  1.0480 -1.2079
 3017TIP3    H233247   3.678   1.830   8.778  0.2698 -0.6040 -0.7916
 3018TIP3   OH233248   7.164   2.955   1.153 -0.2765 -0.1477 -0.5164
 3018TIP3    H133249   7.204   3.024   1.101 -1.8139 -1.1412 -3.1985
 3018TIP3    H233250   7.235   2.923   1.210  0.4750  3.5429  0.8973
 3019TIP3   OH233251   0.966   0.884   1.616  0.9839 -0.0629  0.0170
 3019TIP3    H133252   1.055   0.858   1.592  1.1990 -0.7767  1.4664
 3019TIP3    H233253   0.969   0.894   1.712 -0.7894 -1.3678  0.2591
 3020TIP3   OH233254   1.916   7.675   9.273 -0.7277 -0.7962  0.0530
 3020TIP3    H133255   1.864   7.756   9.275 -2.3272 -1.5569 -3.3996
 3020TIP3    H233256   1.853   7.606   9.290 -0.1534 -1.5429 -0.7718
 3021TIP3   OH233257   3.186   7.085   7.681 -0.2573 -0.6535 -0.0613
 3021TIP3    H133258   3.198   7.112   7.773  0.1196  0.9867 -0.5564
 3021TIP3    H233259   3.228   7.000   7.676  0.3584 -0.4534  1.1384
 3022TIP3   OH233260   0.426   4.194   1.557  0.2204  0.7267  0.0038
 3022TIP3    H133261   0.503   4.148   1.592 -0.8752 -0.2022  1.2881
 3022TIP3    H233262   0.425   4.277   1.604  1.2952  1.4364 -1.1599
 3023TIP3   OH233263   2.330   2.595   7.445 -0.5085 -0.0388  0.0400
 3023TIP3    H133264   2.308   2.529   7.379  0.5429 -0.6470  0.2671
 3023TIP3    H233265   2.400   2.646   7.405 -1.3849  1.0234 -0.1727
 3024TIP3   OH233266   1.059   7.642   9.713  0.0437 -0.1873  0.6512
 3024TIP3    H133267   1.003   7.575   9.674 -0.0500 -1.2154  2.4812
 3024TIP3    H233268   1.075   7.612   9.802 -0.2943  2.4085  1.6686
 3025TIP3   OH233269   0.660   4.923   1.098 -0.2771 -0.2929 -0.1482
 3025TIP3    H133270   0.583   4.935   1.154 -0.3158 -0.7052 -0.1135
 3025TIP3    H233271   0.625   4.895   1.013 -0.2423  0.6480 -0.4890
 3026TIP3   OH233272   5.352   2.858   1.469  0.1519  0.2269 -0.1893
 3026TIP3    H133273   5.374   2.879   1.378  2.2341 -1.2471 -0.0756
 3026TIP3    H233274   5.346   2.944   1.511  2.5097  0.8650 -1.0106
 3027TIP3   OH233275   3.540   4.644   0.563  0.3420  0.2517  0.2141
 3027TIP3    H133276   3.601   4.713   0.590  0.9172 -0.3371  0.4328
 3027TIP3    H233277   3.556   4.572   0.624 -0.8318  0.2143  0.5037
 3028TIP3   OH233278   6.828   1.316   0.258 -0.2556  0.2591  0.0772
 3028TIP3    H133279   6.754   1.348   0.207 -1.0914  2.0136  2.2350
 3028TIP3    H233280   6.799   1.230   0.290  0.0496 -0.5917 -1.7699
 3029TIP3   OH233281   6.863   6.642   0.682 -0.5096  0.4600 -0.3634
 3029TIP3    H133282   6.871   6.733   0.708 -0.0317  0.4116 -0.3451
 3029TIP3    H233283   6.908   6.593   0.750 -0.7676  0.2067 -0.3720
 3030TIP3   OH233284   4.682   1.007   7.673  0.4545  0.0909 -0.1112
 3030TIP3    H133285   4.605   0.979   7.722  0.6364 -0.2426 -0.0128
 3030TIP3    H233286   4.723   0.926   7.643  1.0139  0.2481  0.2165
 3031TIP3   OH233287   5.830   2.062   1.032  0.3827  0.1605 -0.2869
 3031TIP3    H133288   5.819   2.157   1.021 -1.4210 -0.2274 -2.6939
 3031TIP3    H233289   5.789   2.043   1.116  0.6727  1.4705  0.1878
 3032TIP3   OH233290   1.795   1.646   7.695 -0.7899  0.0131  0.0448
 3032TIP3    H133291   1.813   1.680   7.607 -0.5370  2.3607  0.9403
 3032TIP3    H233292   1.880   1.618   7.728 -0.2799  2.1368  0.6836
 3033TIP3   OH233293   4.246   7.306   2.674  0.8129  0.6008  0.1506
 3033TIP3    H133294   4.205   7.281   2.756  0.8094  1.9567  0.5824
 3033TIP3    H233295   4.192   7.266   2.606  0.6974 -0.3528  0.7900
 3034TIP3   OH233296   4.287   5.442   8.959 -0.0894  0.2076 -0.1115
 3034TIP3    H133297   4.280   5.531   8.924 -1.7197  0.3593  0.5155
 3034TIP3    H233298   4.337   5.452   9.039  2.7187  0.0125 -1.7033
 3035TIP3   OH233299   3.626   5.300   9.524  0.3859 -0.3075 -0.5199
 3035TIP3    H133300   3.698   5.262   9.574 -0.2141 -0.6767  0.0696
 3035TIP3    H233301   3.547   5.265   9.564 -0.1901  1.4943  0.0168
 3036TIP3   OH233302   1.402   6.286   8.829 -0.8465 -0.4338  0.5339
 3036TIP3    H133303   1.376   6.194   8.821  0.1264 -0.6158 -0.9787
 3036TIP3    H233304   1.322   6.331   8.856 -1.3737 -1.6906  1.1733
 3037TIP3   OH233305   2.400   3.661   9.476  0.5936  0.3166  0.0688
 3037TIP3    H133306   2.433   3.574   9.497  1.1345  1.1005  2.9861
 3037TIP3    H233307   2.307   3.658   9.500  0.2490  0.1945 -1.1867
 3038TIP3   OH233308   5.030   7.620   1.260  0.3207  0.1002  0.3200
 3038TIP3    H133309   4.997   7.533   1.237 -1.2342  0.3564  1.3969
 3038TIP3    H233310   5.059   7.611   1.351  0.2390  0.6747  0.4051
 3039TIP3   OH233311   3.308   0.139   9.608 -0.4769  0.0633  0.0634
 3039TIP3    H133312   3.305   0.078   9.534 -0.8036 -0.1924  0.2844
 3039TIP3    H233313   3.253   0.212   9.579 -0.5867 -0.0259  0.0418
 3040TIP3   OH233314   2.651   7.004   2.154 -0.7709  0.8591  0.3126
 3040TIP3    H133315   2.662   7.096   2.130 -3.1915  0.9679 -0.6664
 3040TIP3    H233316   2.576   6.975   2.102 -1.0927 -1.2184  1.8350
 3041TIP3   OH233317   2.057   4.985   7.591 -0.5390  0.2431 -0.1079
 3041TIP3    H133318   2.025   5.065   7.633 -0.7448  0.2782 -0.3240
 3041TIP3    H233319   2.040   4.999   7.497 -0.9217 -0.2065 -0.1119
 3042TIP3   OH233320   1.751   6.591   1.919  0.1397 -0.7044 -0.3760
 3042TIP3    H133321   1.749   6.668   1.976  0.8723 -0.6608 -0.4022
 3042TIP3    H233322   1.704   6.618   1.841  0.4405 -0.2596 -0.4091
 3043TIP3   OH233323   4.987   4.907   1.578  0.3565 -0.0745 -0.1675
 3043TIP3    H133324   5.042   4.904   1.500  2.6238  1.3070  1.2762
 3043TIP3    H233325   5.031   4.850   1.641 -1.4323 -1.1665  0.1811
 3044TIP3   OH233326   5.342   1.154   9.410  0.1870  0.5547  0.4061
 3044TIP3    H133327   5.294   1.215   9.354  0.0420 -0.2112 -0.3169
 3044TIP3    H233328   5.432   1.187   9.411  0.6872 -0.5754 -2.0018
 3045TIP3   OH233329   5.937   6.061   7.631 -0.1667 -0.1568  0.6362
 3045TIP3    H133330   5.864   6.083   7.572 -0.1683 -1.4243  0.1249
 3045TIP3    H233331   5.898   6.004   7.698 -0.0159  0.6931  1.4644
 3046TIP3   OH233332   0.096   3.927   9.197  0.1859  0.0657 -0.0110
 3046TIP3    H133333   0.159   3.978   9.248 -0.4290  1.2762 -0.4439
 3046TIP3    H233334   0.149   3.883   9.131  0.6610  0.5229  0.0626
 3047TIP3   OH233335   2.898   7.157   7.936 -0.4429  0.2322 -0.3671
 3047TIP3    H133336   2.882   7.096   7.864 -3.1447 -2.1682  1.9872
 3047TIP3    H233337   2.849   7.236   7.912 -0.8078 -0.2928 -1.4299
 3048TIP3   OH233338   5.938   5.389   8.930  0.1665 -0.2623 -0.4070
 3048TIP3    H133339   5.889   5.381   8.848  1.3981 -2.3834 -1.0174
 3048TIP3    H233340   6.021   5.345   8.912  0.3578 -1.0354  2.0592
 3049TIP3   OH233341   7.138   7.170   0.352  0.2381 -0.0635 -0.1923
 3049TIP3    H133342   7.205   7.183   0.419  0.0668 -0.8969  0.1579
 3049TIP3    H233343   7.103   7.257   0.335  1.6977  0.4462 -0.6818
 3050TIP3   OH233344   6.402   6.718   8.805 -0.3140 -0.3083  0.1450
 3050TIP3    H133345   6.491   6.684   8.801 -0.3755 -0.3806 -0.7291
 3050TIP3    H233346   6.398   6.765   8.889  0.6312 -0.0622  0.0623
 3051TIP3   OH233347   3.684   5.537   6.217  0.4768  0.2278  0.4798
 3051TIP3    H133348   3.630   5.606   6.256 -0.1293 -0.9911  1.8963
 3051TIP3    H233349   3.622   5.471   6.188  1.1216 -0.6148  0.9598
 3052TIP3   OH233350   2.135   6.797   1.282  0.0364  0.3564  0.7423
 3052TIP3    H133351   2.200   6.740   1.242  0.0967  0.9333 -0.0037
 3052TIP3    H233352   2.052   6.774   1.239 -0.6397 -1.6012  2.9031
 3053TIP3   OH233353   6.960   2.363   7.757  0.2699 -0.5517 -0.5672
 3053TIP3    H133354   6.921   2.326   7.837  1.4530 -0.7641 -0.0709
 3053TIP3    H233355   7.048   2.390   7.784 -0.0827  1.4424 -1.2394
 3054TIP3   OH233356   0.075   0.434   8.415 -0.3035 -0.5026  0.2009
 3054TIP3    H133357   0.069   0.507   8.476  2.0064 -0.1917  0.1578
 3054TIP3    H233358  -0.002   0.443   8.358 -1.1448  0.6601  1.4808
 3055TIP3   OH233359   7.181   1.635   2.219  1.1033 -0.0151  0.0408
 3055TIP3    H133360   7.233   1.601   2.292 -0.1613  0.1100  1.0427
 3055TIP3    H233361   7.131   1.708   2.257  1.1494  0.6936 -1.2010
 3056TIP3   OH233362   2.909   5.328   9.662  0.3008 -0.3252  0.3097
 3056TIP3    H133363   2.881   5.299   9.749  1.0680 -0.7631  0.4174
 3056TIP3    H233364   2.907   5.423   9.667  0.4313 -0.3476  0.8364
 3057TIP3   OH233365   4.683   2.098   9.866  0.6170 -0.1738  0.0502
 3057TIP3    H133366   4.704   2.124   9.956  1.2140 -0.9525  0.1397
 3057TIP3    H233367   4.690   2.003   9.866 -0.2770 -0.2537 -0.6059
 3058TIP3   OH233368   6.003   7.661   9.765 -0.3099 -0.0665  0.5581
 3058TIP3    H133369   5.925   7.713   9.749  0.5503  1.1601  0.2460
 3058TIP3    H233370   5.977   7.571   9.741 -0.5987  0.8205 -3.0594
 3059TIP3   OH233371   5.285   3.452   9.176  0.5338 -0.0324 -0.3551
 3059TIP3    H133372   5.190   3.460   9.182  0.4566 -1.4848  0.9751
 3059TIP3    H233373   5.316   3.542   9.165 -0.9058  0.6126  0.5066
 3060TIP3   OH233374   0.539   5.957   1.446  0.1768  0.1846 -0.1333
 3060TIP3    H133375   0.562   5.932   1.357  1.0219 -0.4420  0.2568
 3060TIP3    H233376   0.488   5.883   1.479 -0.4883  0.5901 -0.2149
 3061TIP3   OH233377   2.587   1.807   8.098  0.5629  0.6424 -0.1075
 3061TIP3    H133378   2.575   1.831   8.190 -0.6658 -0.1639 -0.0345
 3061TIP3    H233379   2.549   1.719   8.091 -2.4424  1.9275 -2.0501
 3062TIP3   OH233380   1.652   7.673   0.301 -0.1570 -0.0326 -0.1179
 3062TIP3    H133381   1.635   7.611   0.371  0.3033  0.3079  0.3081
 3062TIP3    H233382   1.693   7.621   0.232  2.0536  0.0931  1.0039
 3063TIP3   OH233383   5.964   5.805   0.152  0.0999  0.2228  0.5114
 3063TIP3    H133384   5.996   5.881   0.201 -0.1698  0.7157 -0.0712
 3063TIP3    H233385   5.902   5.841   0.089 -0.2850 -0.5230  0.4521
 3064TIP3   OH233386   1.450   6.794   0.338 -0.6388 -0.4509 -0.0227
 3064TIP3    H133387   1.395   6.779   0.415  0.7356 -1.0206  0.8885
 3064TIP3    H233388   1.440   6.887   0.320 -0.4138 -0.1402  1.3271
 3065TIP3   OH233389   2.503   1.244   0.158  0.5552 -0.0871  0.3068
 3065TIP3    H133390   2.433   1.276   0.101 -0.4084  0.8034  1.9344
 3065TIP3    H233391   2.501   1.149   0.147 -1.1164 -0.0960  0.5523
 3066TIP3   OH233392   3.696   5.117   9.875 -0.1162 -0.0752  0.4130
 3066TIP3    H133393   3.746   5.158   9.805  1.2779 -1.7489  0.3781
 3066TIP3    H233394   3.742   5.140   9.956 -1.3598  1.3251  0.7666
 3067TIP3   OH233395   1.862   2.775   9.087 -0.5365 -0.1079 -0.5433
 3067TIP3    H133396   1.827   2.686   9.093  0.0737 -0.4942 -2.3111
 3067TIP3    H233397   1.793   2.826   9.045 -0.9828  0.3528  0.6807
 3068TIP3   OH233398   5.289   4.238   1.848  0.1756 -0.2488  0.1653
 3068TIP3    H133399   5.284   4.211   1.940 -1.3724  0.7391  0.4046
 3068TIP3    H233400   5.240   4.170   1.801 -0.9627  0.4111  0.3689
 3069TIP3   OH233401   1.536   6.263   9.078 -0.7206  0.2028 -0.2843
 3069TIP3    H133402   1.469   6.208   9.037 -1.0116  0.2973  0.0506
 3069TIP3    H233403   1.618   6.218   9.062 -0.4820  1.4239 -3.0883
 3070TIP3   OH233404   1.944   5.862   9.875 -0.2125 -0.6020  0.2727
 3070TIP3    H133405   1.991   5.923   9.931  1.1649  0.0351 -1.4710
 3070TIP3    H233406   1.943   5.904   9.789 -3.4081 -0.9167  0.0330
 3071TIP3   OH233407   0.280   2.132   0.254 -0.0754 -0.3105  0.2081
 3071TIP3    H133408   0.187   2.117   0.240  0.1074 -1.7470  0.3587
 3071TIP3    H233409   0.314   2.153   0.167 -0.4793 -0.0922  0.0997
 3072TIP3   OH233410   6.350   3.905   9.137 -0.1383 -0.2393  0.0456
 3072TIP3    H133411   6.429   3.959   9.140 -1.4344  1.8206 -0.8250
 3072TIP3    H233412   6.305   3.924   9.219  0.1128 -1.2041  0.4216
 3073TIP3   OH233413   6.622   2.928   7.387  0.0896  0.6790 -0.0223
 3073TIP3    H133414   6.544   2.918   7.332  0.0630  1.4523 -0.1347
 3073TIP3    H233415   6.695   2.933   7.326  0.4102 -1.3980  0.1192
 3074TIP3   OH233416   2.656   4.201   2.463 -0.1715  0.3480  0.2486
 3074TIP3    H133417   2.584   4.159   2.416  0.9033 -1.7467  0.3414
 3074TIP3    H233418   2.613   4.259   2.526 -1.6957  0.7446 -1.0808
 3075TIP3   OH233419   5.398   5.857   7.741  0.4701 -0.6204  0.0442
 3075TIP3    H133420   5.491   5.879   7.747  0.2503 -0.0411  1.8734
 3075TIP3    H233421   5.396   5.768   7.705  1.7117 -0.5874 -0.1282
 3076TIP3   OH233422   1.378   4.128   1.621 -0.0164 -0.4929 -0.3211
 3076TIP3    H133423   1.467   4.103   1.645  0.0551  0.9582  1.1121
 3076TIP3    H233424   1.390   4.189   1.547  0.2502  0.2066  0.2842
 3077TIP3   OH233425   2.352   0.996   7.839  0.0627 -0.8650  0.4208
 3077TIP3    H133426   2.272   1.026   7.881  0.2058  1.8829 -1.0304
 3077TIP3    H233427   2.326   0.975   7.749  0.8766 -0.3216  0.0456
 3078TIP3   OH233428   1.918   6.033   7.893 -1.0328 -0.0287 -0.2571
 3078TIP3    H133429   1.862   6.017   7.969 -0.0391 -0.4892  0.4063
 3078TIP3    H233430   1.927   5.947   7.852  1.7143 -0.7139  1.4731
 3079TIP3   OH233431   0.699   3.060   9.651  0.0713 -0.2031  0.1867
 3079TIP3    H133432   0.671   3.004   9.578 -0.8641  1.3196 -0.6610
 3079TIP3    H233433   0.648   3.029   9.725 -0.5937 -0.3546 -0.3233
 3080TIP3   OH233434   3.466   4.667   2.479 -0.0056 -0.1219  0.3319
 3080TIP3    H133435   3.559   4.646   2.471 -0.1994 -0.5560 -1.1316
 3080TIP3    H233436   3.422   4.583   2.464 -0.6377  0.0767  1.0391
 3081TIP3   OH233437   2.968   3.016   0.075 -0.3192 -0.2212 -0.1165
 3081TIP3    H133438   2.924   3.095   0.044  0.5050  0.6991  0.9571
 3081TIP3    H233439   2.980   3.030   0.169  0.1278 -1.4909  0.0463
 3082TIP3   OH233440   0.710   6.197   7.811  0.4504  0.5745  0.1160
 3082TIP3    H133441   0.750   6.283   7.824  1.7578  0.0363 -0.2310
 3082TIP3    H233442   0.782   6.140   7.784 -0.4054 -0.6226  0.2588
 3083TIP3   OH233443   6.606   0.605   9.711  0.0021 -0.1874  0.3663
 3083TIP3    H133444   6.632   0.560   9.631 -1.3772 -2.0054  0.8503
 3083TIP3    H233445   6.670   0.577   9.776  0.2482  0.0791  0.2390
 3084TIP3   OH233446   2.626   1.550   1.389 -0.2262 -0.3943 -0.3852
 3084TIP3    H133447   2.540   1.527   1.426 -0.1635 -1.1100 -0.6677
 3084TIP3    H233448   2.609   1.631   1.340 -1.1489 -1.4237 -1.8645
 3085TIP3   OH233449   5.372   2.541   2.588  0.2000  0.1122 -0.7128
 3085TIP3    H133450   5.348   2.459   2.631 -0.5024  0.1194 -1.0748
 3085TIP3    H233451   5.458   2.524   2.549  0.4895 -0.1402  0.0252
 3086TIP3   OH233452   3.781   1.229   2.644  0.2283  0.4870 -0.1684
 3086TIP3    H133453   3.860   1.256   2.689  0.0410  1.4144 -0.3802
 3086TIP3    H233454   3.735   1.311   2.624 -0.5017 -0.0025 -0.5533
 3087TIP3   OH233455   4.070   6.753   0.864 -0.1606  0.3423 -0.0899
 3087TIP3    H133456   3.998   6.816   0.855  0.0526  0.7540  0.8996
 3087TIP3    H233457   4.059   6.718   0.952 -0.0585 -0.7521 -0.5046
 3088TIP3   OH233458   2.669   5.525   2.592  0.2711 -0.3086 -0.4000
 3088TIP3    H133459   2.625   5.477   2.662  0.4413 -0.8654 -0.6715
 3088TIP3    H233460   2.602   5.537   2.525 -0.2306  1.2798  0.3500
 3089TIP3   OH233461   3.996   4.081   0.769 -0.0854 -0.4039 -0.5136
 3089TIP3    H133462   4.065   4.048   0.712 -1.1470 -0.7429 -1.6398
 3089TIP3    H233463   3.980   4.170   0.739  0.5220  0.0249  0.3910
 3090TIP3   OH233464   4.985   6.385   1.762 -0.5062 -0.2185  0.3340
 3090TIP3    H133465   4.905   6.404   1.713 -1.6746  0.2100  2.3382
 3090TIP3    H233466   5.024   6.310   1.716 -0.0615  1.7521 -2.8833
 3091TIP3   OH233467   3.984   4.964   8.492 -0.1255  0.6140  0.3127
 3091TIP3    H133468   4.034   5.006   8.421  2.0608  2.2512  2.6514
 3091TIP3    H233469   4.013   4.873   8.490  1.6786  1.1380  0.4747
 3092TIP3   OH233470   6.369   0.969   8.200 -0.0202  0.2958  0.2439
 3092TIP3    H133471   6.402   0.986   8.288  0.9481 -0.1850 -0.0164
 3092TIP3    H233472   6.447   0.952   8.148 -0.6677 -0.8028 -0.4090
 3093TIP3   OH233473   0.728   0.128   0.601 -0.1994 -0.2862 -0.2141
 3093TIP3    H133474   0.760   0.038   0.610 -1.1452 -0.6422 -0.2076
 3093TIP3    H233475   0.746   0.151   0.510  0.0722 -0.4708 -0.2084
 3094TIP3   OH233476   2.337   6.332   6.830  0.6235  0.5203  0.3104
 3094TIP3    H133477   2.393   6.257   6.808 -0.1504  0.1941 -0.6406
 3094TIP3    H233478   2.398   6.402   6.850  1.3757 -0.5286  1.8548
 3095TIP3   OH233479   2.623   3.189   8.885 -0.3982  0.3632  0.7689
 3095TIP3    H133480   2.623   3.159   8.976  1.2169  2.9574  1.7667
 3095TIP3    H233481   2.555   3.256   8.882 -0.7783 -0.0622 -0.0653
 3096TIP3   OH233482   4.397   1.288   8.629  0.3691 -0.0995  0.8249
 3096TIP3    H133483   4.484   1.317   8.601 -0.1183  1.6575  0.9875
 3096TIP3    H233484   4.386   1.325   8.716  0.0614 -1.6520  1.4784
 3097TIP3   OH233485   0.899   4.898   1.916  0.5016 -0.1748  0.3180
 3097TIP3    H133486   0.945   4.971   1.875 -0.7570 -0.6645 -2.1971
 3097TIP3    H233487   0.811   4.931   1.933  0.5586 -0.4671  1.2482
 3098TIP3   OH233488   2.433   3.249   0.271  0.2206 -0.2016 -0.4115
 3098TIP3    H133489   2.514   3.208   0.241  0.6749 -1.0057  1.7088
 3098TIP3    H233490   2.462   3.326   0.320 -0.3784  0.2169 -0.7063
 3099TIP3   OH233491   1.256   7.576   1.286 -0.2894  0.0207 -0.0933
 3099TIP3    H133492   1.271   7.548   1.196  0.1123  1.0574 -0.3616
 3099TIP3    H233493   1.314   7.521   1.339 -0.2126 -0.2994 -0.5085
 3100TIP3   OH233494   6.152   2.116   1.694 -0.4389 -0.4200  0.0103
 3100TIP3    H133495   6.169   2.208   1.712  1.7321 -0.5177 -1.1958
 3100TIP3    H233496   6.134   2.077   1.780  0.1230  0.8460  0.7197
 3101TIP3   OH233497   2.322   6.102   1.387 -0.1550 -0.0109 -0.2205
 3101TIP3    H133498   2.374   6.033   1.429  0.3485  0.9591  0.7954
 3101TIP3    H233499   2.294   6.158   1.459 -1.1228  0.4863 -0.9614
 3102TIP3   OH233500   0.488   6.082   8.186 -0.5603  0.0036 -0.4381
 3102TIP3    H133501   0.497   6.127   8.270 -0.9602  0.9200 -0.8741
 3102TIP3    H233502   0.464   5.992   8.209 -1.5537  0.4662  0.4027
 3103TIP3   OH233503   3.826   1.048   9.064 -0.0266  0.1442  0.1941
 3103TIP3    H133504   3.862   1.129   9.101  0.6466 -1.2439  2.7823
 3103TIP3    H233505   3.885   0.979   9.095 -1.7224 -1.5694 -0.2312
 3104TIP3   OH233506   0.663   7.441   7.780  0.1771 -0.0622 -0.5804
 3104TIP3    H133507   0.573   7.444   7.748  0.7129  0.6706 -2.1421
 3104TIP3    H233508   0.685   7.348   7.778 -0.9994 -0.4227  1.2827
 3105TIP3   OH233509   1.824   4.175   2.186  0.0628  0.1701 -0.1904
 3105TIP3    H133510   1.883   4.104   2.162  0.1925  0.4038 -0.5711
 3105TIP3    H233511   1.830   4.180   2.282  0.9794  0.4576 -0.2441
 3106TIP3   OH233512   5.790   4.298   9.285  0.2435  0.3045  0.6798
 3106TIP3    H133513   5.719   4.250   9.327 -0.5951  0.9498  0.0245
 3106TIP3    H233514   5.750   4.378   9.252  1.1268  0.3787 -0.2955
 3107TIP3   OH233515   1.404   4.487   9.537  0.1399 -0.5301 -0.5589
 3107TIP3    H133516   1.420   4.546   9.611  2.3709 -0.7289 -0.8217
 3107TIP3    H233517   1.311   4.499   9.517 -0.0025  1.1807  0.8542
 3108TIP3   OH233518   5.881   1.103   0.947 -0.9304 -0.3542  0.4146
 3108TIP3    H133519   5.862   1.180   1.001 -1.7885  0.2677 -0.7316
 3108TIP3    H233520   5.800   1.052   0.950 -0.3952 -1.1807  1.0903
 3109TIP3   OH233521   4.556   5.435   0.576 -0.6247  0.0732 -0.2722
 3109TIP3    H133522   4.611   5.480   0.512 -1.5347  2.0274  0.2360
 3109TIP3    H233523   4.595   5.458   0.661 -0.4696 -1.0271 -0.0341
 3110TIP3   OH233524   4.947   5.788   7.968  0.1579  0.4909  0.5099
 3110TIP3    H133525   5.000   5.801   7.889 -1.8859 -0.1549 -1.0708
 3110TIP3    H233526   4.996   5.724   8.020  1.0822  0.1730 -0.7123
 3111TIP3   OH233527   2.079   6.063   0.035 -0.7104  0.1291  0.2722
 3111TIP3    H133528   2.046   6.112   0.111  1.4794  1.1945  0.6139
 3111TIP3    H233529   2.109   6.131  -0.025  0.5909 -0.7632 -0.1186
 3112TIP3   OH233530   3.867   1.655   8.264  0.2544  0.0442 -0.1925
 3112TIP3    H133531   3.817   1.696   8.193  0.5504 -0.0635 -0.4649
 3112TIP3    H233532   3.956   1.650   8.230  0.5577  0.7224  0.5001
 3113TIP3   OH233533   3.083   4.225   6.994 -0.0521 -0.1999 -0.2228
 3113TIP3    H133534   3.119   4.195   6.910  0.0055 -0.5365 -0.0784
 3113TIP3    H233535   3.016   4.160   7.016 -0.6432  0.3368 -0.4100
 3114TIP3   OH233536   6.961   3.605   8.275  0.5916  0.1336  0.0643
 3114TIP3    H133537   7.045   3.565   8.254  0.4769 -1.0542  1.6788
 3114TIP3    H233538   6.978   3.699   8.273  1.9486 -0.0886  0.3263
 3115TIP3   OH233539   2.429   3.683   7.178  0.1220  0.3360 -0.3438
 3115TIP3    H133540   2.415   3.606   7.123  1.2785 -1.4821  1.7458
 3115TIP3    H233541   2.511   3.721   7.146 -0.8980  1.3135 -1.9556
 3116TIP3   OH233542   2.104   1.400   9.982 -0.1841 -0.3019 -0.0951
 3116TIP3    H133543   2.075   1.479  10.028  3.6686  1.3659 -0.1744
 3116TIP3    H233544   2.054   1.399   9.900 -0.1209  2.2770 -0.2249
 3117TIP3   OH233545   2.580   6.491   2.225 -0.0089  0.7049 -0.4636
 3117TIP3    H133546   2.618   6.538   2.299  1.0029 -0.8829  0.0727
 3117TIP3    H233547   2.526   6.556   2.180  0.1011  1.9430  1.1249
 3118TIP3   OH233548   6.384   6.075   1.023  0.2478 -0.3559  0.4519
 3118TIP3    H133549   6.386   6.170   1.012  1.9222  0.1351  3.7501
 3118TIP3    H233550   6.295   6.049   0.997 -0.0737  1.9917 -1.0195
 3119TIP3   OH233551   1.548   3.613   9.527  0.0587  0.5837  0.3135
 3119TIP3    H133552   1.527   3.546   9.592 -0.6461  0.8115  0.3290
 3119TIP3    H233553   1.641   3.601   9.509  0.3170  0.6530  1.5210
 3120TIP3   OH233554   4.897   6.241   9.839  0.3417 -0.3781 -0.3169
 3120TIP3    H133555   4.881   6.335   9.844 -0.7006 -0.5415 -0.3814
 3120TIP3    H233556   4.848   6.205   9.913  0.4346 -0.8993 -0.5088
 3121TIP3   OH233557   2.762   3.527   7.533  0.1414 -0.5382 -0.0211
 3121TIP3    H133558   2.815   3.571   7.466  0.0640 -2.2578 -1.2807
 3121TIP3    H233559   2.823   3.505   7.602  0.8941 -1.5698 -0.9833
 3122TIP3   OH233560   7.538   6.465   8.961 -0.0148  0.3338 -0.5378
 3122TIP3    H133561   7.482   6.530   8.920 -1.1393  0.1298  0.6253
 3122TIP3    H233562   7.519   6.384   8.915 -0.3303  0.3611 -0.4578
 3123TIP3   OH233563   2.396   3.800   2.015  0.0768 -0.5825 -0.0703
 3123TIP3    H133564   2.310   3.841   2.022  0.0305 -0.4658 -1.1665
 3123TIP3    H233565   2.451   3.866   1.973  0.0902 -1.4716 -1.5361
 3124TIP3   OH233566   6.845   4.125   8.415 -0.0330  0.4231 -0.2083
 3124TIP3    H133567   6.816   4.183   8.344  0.0995  1.8462  0.8550
 3124TIP3    H233568   6.825   4.173   8.495 -1.0444 -1.5415  0.7924
 3125TIP3   OH233569   6.010   0.038   1.210  0.3863  0.1337 -0.0052
 3125TIP3    H133570   6.065   0.115   1.194 -0.4792  0.5820 -0.8795
 3125TIP3    H233571   5.990   0.004   1.123 -0.5843 -0.1116  0.3011
 3126TIP3   OH233572   6.379   6.194   0.638 -0.1022  0.4349  1.0248
 3126TIP3    H133573   6.457   6.242   0.612 -0.0387  0.4249  1.1912
 3126TIP3    H233574   6.343   6.245   0.710 -1.3259  1.4862 -0.2871
 3127TIP3   OH233575   3.368   1.261   7.998 -0.4125  0.3077  0.0339
 3127TIP3    H133576   3.400   1.212   7.923  1.0684  0.8739  0.2705
 3127TIP3    H233577   3.285   1.300   7.968 -0.6863 -0.8283 -0.7315
 3128TIP3   OH233578   4.933   4.313   0.681 -0.2550  0.2725 -0.2885
 3128TIP3    H133579   4.861   4.342   0.737 -0.5922  0.7841 -0.9690
 3128TIP3    H233580   5.012   4.338   0.730 -0.5196  2.9685 -1.0956
 3129TIP3   OH233581   2.832   1.106   2.623  0.4655 -0.3118  0.0844
 3129TIP3    H133582   2.794   1.056   2.696 -1.1441  0.6021 -0.0851
 3129TIP3    H233583   2.772   1.180   2.611  0.8801 -0.2501 -1.9520
 3130TIP3   OH233584   6.766   1.699   1.888 -0.1165  0.1395 -0.2945
 3130TIP3    H133585   6.809   1.663   1.966 -0.8094 -0.5668 -0.2269
 3130TIP3    H233586   6.686   1.740   1.922  0.1316  0.8232 -0.5089
 3131TIP3   OH233587   7.657   4.234   1.439 -0.1342 -0.0556  0.2555
 3131TIP3    H133588   7.604   4.314   1.443 -0.5395 -0.2507 -0.9079
 3131TIP3    H233589   7.745   4.263   1.464 -0.8322  0.1780  2.7207
 3132TIP3   OH233590   3.378   0.375   8.189 -0.1073 -0.3043 -0.0659
 3132TIP3    H133591   3.405   0.466   8.176 -0.3759 -0.2543 -0.3115
 3132TIP3    H233592   3.428   0.326   8.124  1.8351 -0.6866  1.6274
 3133TIP3   OH233593   4.002   6.452   2.325 -0.1672  0.6133  0.2800
 3133TIP3    H133594   3.989   6.359   2.310 -0.0543  0.2363  2.2459
 3133TIP3    H233595   4.094   6.467   2.303  0.1838 -0.0542  1.2241
 3134TIP3   OH233596   1.643   5.925   8.689  1.2620  0.0002  0.1372
 3134TIP3    H133597   1.686   5.943   8.605 -0.2293 -0.1602 -0.6905
 3134TIP3    H233598   1.672   5.996   8.746  0.7874  1.2304 -1.0976
 3135TIP3   OH233599   0.588   1.578   9.823  0.7446  0.4904  0.0248
 3135TIP3    H133600   0.668   1.609   9.865  0.9814  1.2318 -0.9556
 3135TIP3    H233601   0.605   1.486   9.803  0.9161  0.3365  0.8423
 3136TIP3   OH233602   4.405   0.302   1.601 -0.3968  0.2450 -0.1964
 3136TIP3    H133603   4.356   0.279   1.680 -1.0058 -1.0386 -0.9189
 3136TIP3    H233604   4.489   0.257   1.611  0.1782  1.3923  0.4343
 3137TIP3   OH233605   5.569   2.836   9.595  0.1893  0.6178  0.3551
 3137TIP3    H133606   5.642   2.898   9.598  0.0561  0.8861 -1.1461
 3137TIP3    H233607   5.490   2.891   9.598  0.0372  0.3702  1.2716
 3138TIP3   OH233608   4.854   0.122   0.346 -0.2847  0.2110  0.2032
 3138TIP3    H133609   4.875   0.051   0.407  1.8835  1.1508  0.6503
 3138TIP3    H233610   4.887   0.091   0.262 -3.1972 -1.0468 -0.6217
 3139TIP3   OH233611   6.124   4.675   2.095 -0.1584  0.3873  0.3060
 3139TIP3    H133612   6.146   4.585   2.121 -1.2177 -0.2376 -0.8417
 3139TIP3    H233613   6.031   4.671   2.071 -0.1522  1.7336 -0.0364
 3140TIP3   OH233614   6.490   5.866   1.545 -0.6310 -0.2009  0.4204
 3140TIP3    H133615   6.412   5.812   1.554  0.2907 -1.9385 -1.2173
 3140TIP3    H233616   6.471   5.923   1.470 -0.5708 -0.1503  0.4429
 3141TIP3   OH233617   2.264   3.372   0.825 -0.0849  0.5865 -0.3223
 3141TIP3    H133618   2.344   3.321   0.815 -0.1049  0.1052  1.5064
 3141TIP3    H233619   2.290   3.462   0.805  0.5502  0.2198 -1.1693
 3142TIP3   OH233620   7.023   2.367   2.004 -0.2105  0.4524 -0.0090
 3142TIP3    H133621   6.941   2.321   2.022  0.9072 -2.3357 -1.4884
 3142TIP3    H233622   7.065   2.375   2.090 -1.1102  0.0011  0.4824
 3143TIP3   OH233623   5.786   7.534   0.362  0.2991 -0.2077 -0.4167
 3143TIP3    H133624   5.830   7.483   0.294 -1.3633 -2.1404 -0.1567
 3143TIP3    H233625   5.836   7.518   0.442  0.2660 -0.7749 -0.5104
 3144TIP3   OH233626   3.849   4.027   1.578 -0.2886  0.0414 -0.3084
 3144TIP3    H133627   3.792   3.952   1.588 -2.0148  1.2331 -0.7317
 3144TIP3    H233628   3.848   4.070   1.663  0.1658 -0.0410 -0.2560
 3145TIP3   OH233629   2.403   4.160   2.635 -0.1157 -0.4842  0.3274
 3145TIP3    H133630   2.472   4.225   2.639  0.4906 -1.0779 -0.3153
 3145TIP3    H233631   2.331   4.198   2.687  1.2507 -0.5494  2.3869
 3146TIP3   OH233632   2.844   6.736   0.598  0.1329  0.1992 -0.5929
 3146TIP3    H133633   2.844   6.784   0.515  0.7167 -0.2791 -0.8835
 3146TIP3    H233634   2.760   6.690   0.600 -0.7943  1.8483  0.0719
 3147TIP3   OH233635   7.615   6.592   1.570  0.6569  0.4419  0.1359
 3147TIP3    H133636   7.686   6.566   1.630 -0.7220  0.6581  1.9296
 3147TIP3    H233637   7.568   6.661   1.616 -1.6903 -0.7801 -0.2535
 3148TIP3   OH233638   5.051   6.251   8.009  0.1951  0.4576  0.5319
 3148TIP3    H133639   5.070   6.172   8.060 -0.3981  0.8810  1.4292
 3148TIP3    H233640   5.128   6.263   7.954  1.3504  0.6029  2.1159
 3149TIP3   OH233641   4.940   3.939   1.691 -0.0318  0.2399  0.2247
 3149TIP3    H133642   4.972   4.010   1.747 -2.1428  0.4668  1.2276
 3149TIP3    H233643   4.940   3.977   1.603  1.0020  0.7055  0.4112
 3150TIP3   OH233644   3.532   3.448   9.769  0.0072 -0.4520 -0.5378
 3150TIP3    H133645   3.566   3.474   9.854 -0.2651  1.9486 -1.1051
 3150TIP3    H233646   3.558   3.518   9.710 -2.9430 -0.1798 -1.6856
 3151TIP3   OH233647   3.269   2.628   0.561  0.2794 -0.1689  0.3958
 3151TIP3    H133648   3.258   2.682   0.640  1.1385 -0.2542  0.5885
 3151TIP3    H233649   3.303   2.545   0.593  0.3885 -0.2963 -0.0430
 3152TIP3   OH233650   5.494   2.062   1.406 -0.1783  0.6208  0.2151
 3152TIP3    H133651   5.543   2.020   1.334  0.0759 -1.5463  1.5640
 3152TIP3    H233652   5.402   2.058   1.378 -0.0164  0.4334 -0.3013
 3153TIP3   OH233653   0.544   0.911   2.492  0.3362 -0.4050 -0.1536
 3153TIP3    H133654   0.627   0.883   2.531  0.5096  0.6130  0.2292
 3153TIP3    H233655   0.545   0.871   2.405  2.3921  1.5415 -1.1236
 3154TIP3   OH233656   3.761   1.868   8.086  0.9788  0.1164  0.0740
 3154TIP3    H133657   3.737   1.960   8.077  0.6774  0.0791  0.4669
 3154TIP3    H233658   3.856   1.867   8.075  1.3301  0.8132  2.4518
 3155TIP3   OH233659   4.284   6.849   8.992 -0.5380 -0.4160 -0.1334
 3155TIP3    H133660   4.372   6.816   9.007 -0.6149 -0.6747 -0.2362
 3155TIP3    H233661   4.296   6.926   8.937 -0.3246 -0.0116  0.4734
 3156TIP3   OH233662   2.931   0.965   9.277  0.0543  0.3000  0.1954
 3156TIP3    H133663   3.025   0.946   9.278  0.2737  1.3259  0.0895
 3156TIP3    H233664   2.906   0.959   9.185  0.2328  0.9906  0.0947
 3157TIP3   OH233665   7.287   3.918   8.833  0.1791 -0.9379 -0.2637
 3157TIP3    H133666   7.306   3.906   8.926  1.7299 -1.5785 -0.6291
 3157TIP3    H233667   7.360   3.875   8.788  0.6342  1.2494 -1.7686
 3158TIP3   OH233668   7.654   4.361   9.877 -0.2022  0.3257 -0.2622
 3158TIP3    H133669   7.678   4.441   9.831  0.1652  0.8345  0.8109
 3158TIP3    H233670   7.561   4.371   9.896 -0.1695  0.4685 -0.1781
 3159TIP3   OH233671   3.725   2.347   8.644  0.5744 -0.6327 -0.6503
 3159TIP3    H133672   3.789   2.289   8.686 -1.1003 -1.6555  0.5940
 3159TIP3    H233673   3.662   2.288   8.604 -1.6513  0.2135  1.3614
 3160TIP3   OH233674   4.019   2.716   6.813 -0.1828  0.0302 -0.2044
 3160TIP3    H133675   4.061   2.794   6.848  2.4184 -1.2977 -0.1351
 3160TIP3    H233676   3.980   2.745   6.730 -1.4839  1.8922  0.9764
 3161TIP3   OH233677   4.321   5.502   8.473 -0.2547 -0.0886  0.4166
 3161TIP3    H133678   4.409   5.466   8.459 -0.3242 -0.1442  0.1184
 3161TIP3    H233679   4.283   5.447   8.542  0.1506  0.2884  0.9462
 3162TIP3   OH233680   1.053   0.365   1.103 -0.3551  0.0222  1.0063
 3162TIP3    H133681   1.121   0.298   1.110 -0.7833 -0.5040  0.3413
 3162TIP3    H233682   0.972   0.320   1.127 -0.6913  0.2201  0.2787
 3163TIP3   OH233683   0.521   7.035   1.022 -0.1604  0.2909 -0.4490
 3163TIP3    H133684   0.526   7.025   0.927 -0.5545  2.0628 -0.6922
 3163TIP3    H233685   0.464   6.964   1.051 -0.4552  0.0430 -1.5955
 3164TIP3   OH233686   6.980   3.772   9.398  0.1047  0.2511  0.4650
 3164TIP3    H133687   7.065   3.729   9.393  1.0603  1.6216  3.0421
 3164TIP3    H233688   6.928   3.730   9.330  2.9965 -0.1907 -1.6677
 3165TIP3   OH233689   3.190   4.917   0.522 -0.4029 -0.1783 -0.4482
 3165TIP3    H133690   3.275   4.889   0.487  0.9139  0.6500  1.8668
 3165TIP3    H233691   3.206   5.006   0.553 -1.7311 -0.5093  1.3028
 3166TIP3   OH233692   4.362   1.632   2.225 -0.2944 -0.4908 -0.4198
 3166TIP3    H133693   4.284   1.594   2.267  0.6366  0.3462  2.2874
 3166TIP3    H233694   4.427   1.561   2.227 -0.0490 -0.2605  0.2312
 3167TIP3   OH233695   2.461   4.333   7.596  0.0874  0.0512  0.0707
 3167TIP3    H133696   2.526   4.284   7.545 -0.9701 -0.1089 -1.1658
 3167TIP3    H233697   2.502   4.344   7.682  2.1041  0.6553 -0.8904
 3168TIP3   OH233698   6.364   6.690   8.514  0.2985  0.2499  0.2756
 3168TIP3    H133699   6.315   6.676   8.595 -2.6535  0.3241 -1.3600
 3168TIP3    H233700   6.398   6.604   8.491 -2.4055 -0.7324 -0.4453
 3169TIP3   OH233701   4.800   2.209   9.630 -0.1758 -0.2709  0.1595
 3169TIP3    H133702   4.821   2.120   9.604 -2.7058 -0.7981 -0.3512
 3169TIP3    H233703   4.746   2.200   9.708 -0.3263  0.8032  0.2060
 3170TIP3   OH233704   0.960   1.470   0.765 -0.4168 -0.1038  0.2936
 3170TIP3    H133705   1.039   1.454   0.713  1.2269 -1.1559  2.9067
 3170TIP3    H233706   0.926   1.383   0.784 -1.4997  0.3022  0.2691
 3171TIP3   OH233707   7.291   2.386   8.071  0.2088 -0.1025  0.4142
 3171TIP3    H133708   7.277   2.478   8.046 -1.1276 -0.8141 -1.6358
 3171TIP3    H233709   7.204   2.350   8.081  0.6599 -1.6881 -0.9732
 3172TIP3   OH233710   4.722   5.236   0.860 -0.5799  0.7932  0.2905
 3172TIP3    H133711   4.781   5.286   0.916  0.2195  0.5741 -0.3305
 3172TIP3    H233712   4.639   5.282   0.866 -0.7592  0.2838  2.3189
 3173TIP3   OH233713   1.090   3.376   2.424 -0.1280 -0.0324  0.7336
 3173TIP3    H133714   1.048   3.347   2.505 -0.0293 -1.3590  0.3298
 3173TIP3    H233715   1.081   3.302   2.365  1.8547  0.0466  0.2909
 3174TIP3   OH233716   5.164   4.050   0.034  0.5587 -0.1837 -0.0418
 3174TIP3    H133717   5.189   3.976   0.088 -1.8919 -0.5207  0.7835
 3174TIP3    H233718   5.159   4.124   0.094 -0.2855 -0.1254 -0.1692
 3175TIP3   OH233719   0.961   4.125   1.178 -0.5579 -0.0214  0.2095
 3175TIP3    H133720   0.971   4.120   1.273  1.4549 -0.7643  0.0074
 3175TIP3    H233721   0.937   4.036   1.152  1.6297 -0.5663 -0.1799
 3176TIP3   OH233722   6.557   1.972   8.718  0.4224 -0.4066 -0.4265
 3176TIP3    H133723   6.610   2.046   8.749 -2.3195  2.9400 -2.8860
 3176TIP3    H233724   6.487   1.964   8.783  0.6578 -0.7762 -0.2183
 3177TIP3   OH233725   0.765   1.597   9.345 -0.1812 -0.1859  0.1644
 3177TIP3    H133726   0.685   1.613   9.395 -0.9752 -1.5446 -0.6189
 3177TIP3    H233727   0.817   1.539   9.401 -0.7732 -1.1580 -0.2671
 3178TIP3   OH233728   1.034   6.395   1.677  0.5710  0.1047 -0.1857
 3178TIP3    H133729   1.034   6.451   1.600 -1.9603  0.5017  0.0192
 3178TIP3    H233730   1.044   6.455   1.751  1.5270 -0.1248 -0.1178
 3179TIP3   OH233731   4.234   4.038   8.629  0.0636  0.6911  0.2499
 3179TIP3    H133732   4.269   4.062   8.543  0.7919  0.5091  0.4843
 3179TIP3    H233733   4.140   4.028   8.615  0.3324 -0.6185 -0.8377
 3180TIP3   OH233734   3.587   2.731   1.806 -0.6743 -0.4411  0.2131
 3180TIP3    H133735   3.597   2.652   1.859 -0.8081 -0.4081  0.2880
 3180TIP3    H233736   3.511   2.713   1.750 -0.9949 -0.1885  0.5543
 3181TIP3   OH233737   5.064   7.229   8.497  0.0040 -0.0934  0.1594
 3181TIP3    H133738   5.036   7.256   8.585  0.5455 -0.2935  0.3949
 3181TIP3    H233739   4.988   7.182   8.462 -0.3536  0.3145  0.3700
 3182TIP3   OH233740   2.949   1.835   7.505  0.0704  0.0652 -0.0141
 3182TIP3    H133741   3.000   1.757   7.484 -0.6935 -0.1758 -1.0664
 3182TIP3    H233742   2.985   1.904   7.449 -0.0342  0.1643  0.0384
 3183TIP3   OH233743   4.575   7.623   8.483 -0.2021 -0.1478 -0.0510
 3183TIP3    H133744   4.663   7.652   8.507  0.2924 -1.0868 -0.6327
 3183TIP3    H233745   4.540   7.692   8.426  0.0719  0.3293  0.3602
 3184TIP3   OH233746   7.536   7.594   1.464  0.1991 -0.3536 -0.1411
 3184TIP3    H133747   7.582   7.520   1.503 -1.3811 -0.9173  0.7358
 3184TIP3    H233748   7.540   7.578   1.370  0.8070 -0.9714 -0.0171
 3185TIP3   OH233749   5.445   4.873   8.594 -0.1856  0.0141  0.4501
 3185TIP3    H133750   5.381   4.874   8.665 -1.1234  0.3374 -0.3667
 3185TIP3    H233751   5.435   4.959   8.551 -2.0649 -1.3434 -2.1156
 3186TIP3   OH233752   2.014   6.653   8.064 -0.0881 -0.1598  0.2958
 3186TIP3    H133753   1.934   6.647   8.013  0.8999 -1.1231 -1.2182
 3186TIP3    H233754   2.073   6.590   8.023  1.7723  1.1938  0.7777
 3187TIP3   OH233755   1.146   4.567   9.490 -0.5330  0.6696 -0.2087
 3187TIP3    H133756   1.087   4.552   9.416 -2.5091  1.4139  1.1183
 3187TIP3    H233757   1.152   4.662   9.496  0.0532  0.6031  0.2479
 3188TIP3   OH233758   4.269   6.318   3.180 -0.3785 -0.3848 -0.0490
 3188TIP3    H133759   4.181   6.286   3.199 -1.0305  1.0324 -0.5218
 3188TIP3    H233760   4.263   6.413   3.195  1.5735 -0.4769  1.7470
 3189TIP3   OH233761   6.473   1.922   1.031 -0.0987 -0.0721  0.2627
 3189TIP3    H133762   6.481   1.836   0.990 -1.0606  0.5800 -1.4526
 3189TIP3    H233763   6.552   1.969   1.005 -0.5830  0.2509 -0.6898
 3190TIP3   OH233764   1.809   7.637   2.147  1.2442 -0.3149  0.4817
 3190TIP3    H133765   1.752   7.684   2.208  1.4776  0.3709  0.1845
 3190TIP3    H233766   1.754   7.623   2.070  1.9490  1.8662 -0.4815
 3191TIP3   OH233767   3.640   6.286   8.386 -0.0486  0.2674  0.0954
 3191TIP3    H133768   3.557   6.315   8.347 -0.3210  0.1713  0.5934
 3191TIP3    H233769   3.618   6.202   8.428 -0.1090  1.0209  1.6488
 3192TIP3   OH233770   5.031   4.663   0.421 -0.5624 -0.8188  0.0705
 3192TIP3    H133771   4.957   4.605   0.402  0.6129 -2.2115 -0.4069
 3192TIP3    H233772   5.091   4.651   0.348 -0.4177  1.2880 -0.2081
 3193TIP3   OH233773   3.941   6.515   1.683 -0.2042 -0.2597 -0.1569
 3193TIP3    H133774   3.932   6.591   1.625 -1.3286  0.2864  0.6798
 3193TIP3    H233775   3.947   6.553   1.771 -0.5865 -1.1269  0.2563
 3194TIP3   OH233776   2.916   5.236   9.944 -0.3753  0.0280 -0.0920
 3194TIP3    H133777   2.986   5.171   9.931 -0.4241 -0.5338  2.0277
 3194TIP3    H233778   2.841   5.184   9.973 -1.1701  0.7995 -0.7396
 3195TIP3   OH233779   3.684   7.626   1.464 -0.4040 -0.1779 -0.7363
 3195TIP3    H133780   3.724   7.627   1.377 -1.4804  0.1699 -1.2381
 3195TIP3    H233781   3.695   7.715   1.497  2.3170 -0.9140  0.6032
 3196TIP3   OH233782   3.923   4.647   1.884 -0.1922  0.5987 -0.1161
 3196TIP3    H133783   3.921   4.655   1.788 -0.1349  2.2608 -0.0031
 3196TIP3    H233784   4.016   4.657   1.906  0.0783 -1.6493  0.0223
 3197TIP3   OH233785   2.453   2.870   0.926  0.3194  1.1820 -0.0335
 3197TIP3    H133786   2.440   2.798   0.988  1.2481  0.6346 -0.4498
 3197TIP3    H233787   2.369   2.877   0.879  1.0049 -1.5024 -1.8960
 3198TIP3   OH233788   1.452   7.160   8.084  0.0304  0.0457  0.3058
 3198TIP3    H133789   1.546   7.161   8.100  0.8114 -0.8932 -3.3085
 3198TIP3    H233790   1.421   7.080   8.128  1.6647 -1.6110 -1.3743
 3199TIP3   OH233791   5.652   5.718   1.298  0.1021  0.1664 -0.2452
 3199TIP3    H133792   5.633   5.699   1.206  2.7439 -0.1685 -0.8180
 3199TIP3    H233793   5.747   5.731   1.300  0.0839  0.4115  2.4101
 3200TIP3   OH233794   2.294   1.226   8.654 -0.1657 -0.3404 -0.3038
 3200TIP3    H133795   2.237   1.302   8.649  0.2308 -0.1025 -1.3030
 3200TIP3    H233796   2.352   1.234   8.579 -0.8393 -2.2102 -1.0872
 3201TIP3   OH233797   3.022   6.136   9.012 -0.6767 -0.1135  0.4184
 3201TIP3    H133798   3.073   6.072   9.062 -0.0846  1.1870  1.5586
 3201TIP3    H233799   3.025   6.104   8.922 -0.0572 -1.4568  0.8828
 3202TIP3   OH233800   6.491   5.142   0.444 -0.1637  0.3792  0.0931
 3202TIP3    H133801   6.512   5.114   0.533  1.5674 -0.6123 -0.5789
 3202TIP3    H233802   6.395   5.151   0.443 -0.6806 -3.3049  1.0560
 3203TIP3   OH233803   0.771   6.834   1.733  0.1830  0.0124 -0.2977
 3203TIP3    H133804   0.694   6.796   1.690  0.6979  0.5555 -1.7701
 3203TIP3    H233805   0.735   6.887   1.804 -0.9380  1.3331 -1.7836
 3204TIP3   OH233806   1.202   4.617   8.092  0.0126 -0.1843  0.6858
 3204TIP3    H133807   1.172   4.672   8.019  0.1194 -1.1735 -0.1331
 3204TIP3    H233808   1.129   4.616   8.154  0.2712  1.4280  1.0556
 3205TIP3   OH233809   1.249   6.514   9.909 -0.3498  0.2806  0.0534
 3205TIP3    H133810   1.297   6.454   9.966  0.5839  1.2222  0.3081
 3205TIP3    H233811   1.234   6.592   9.963 -1.5287  0.2956 -0.2665
 3206TIP3   OH233812   3.003   2.789   0.629  0.3926 -0.0143  0.2481
 3206TIP3    H133813   3.073   2.791   0.694  0.1371  2.9451  0.5843
 3206TIP3    H233814   2.932   2.840   0.669 -0.6448 -0.0635 -1.4254
 3207TIP3   OH233815   1.948   2.766   8.086 -0.1410  0.1671  0.1269
 3207TIP3    H133816   1.866   2.729   8.051 -0.3193 -0.8177  1.4900
 3207TIP3    H233817   2.017   2.711   8.048 -0.2074  0.1185  0.0758
 3208TIP3   OH233818   6.193   3.341   0.002 -0.2180  0.3056 -0.0777
 3208TIP3    H133819   6.282   3.317   0.028  0.1285  0.9649 -0.6044
 3208TIP3    H233820   6.137   3.280   0.049  0.4733  0.3054  0.7827
 3209TIP3   OH233821   0.482   1.100   9.178  0.9018 -0.1628 -0.6507
 3209TIP3    H133822   0.394   1.137   9.170 -0.4198 -2.6095  1.1686
 3209TIP3    H233823   0.501   1.066   9.091  1.6208  3.3066 -2.0313
 3210TIP3   OH233824   3.704   7.137   0.331  0.0776 -0.3482  0.1450
 3210TIP3    H133825   3.747   7.079   0.268 -0.1964 -0.3235 -0.0650
 3210TIP3    H233826   3.714   7.225   0.295 -1.0502 -0.4415 -0.4373
 3211TIP3   OH233827   4.561   5.019   1.696 -0.3630 -0.1058  0.4187
 3211TIP3    H133828   4.516   5.058   1.621 -1.5310 -1.2595  0.4853
 3211TIP3    H233829   4.637   4.974   1.658 -1.7204 -1.9175 -0.3436
 3212TIP3   OH233830   6.634   6.410   1.549  0.2235 -0.4244  0.0902
 3212TIP3    H133831   6.707   6.365   1.592 -0.1169 -1.1664 -0.0954
 3212TIP3    H233832   6.617   6.358   1.471 -0.1160  0.0912 -0.1831
 3213TIP3   OH233833   3.956   6.743   6.632 -0.3779 -0.3160 -0.3350
 3213TIP3    H133834   3.891   6.720   6.565 -1.2967  0.0172  0.4105
 3213TIP3    H233835   4.014   6.667   6.637 -2.1368 -1.6661  0.6423
 3214TIP3   OH233836   4.251   7.652   8.420 -0.4731  0.0557 -0.0798
 3214TIP3    H133837   4.208   7.581   8.468 -0.1128 -1.3065 -1.6379
 3214TIP3    H233838   4.210   7.649   8.333  0.5840  0.7846 -0.6201
 3215TIP3   OH233839   2.291   2.922   0.608 -0.3861  0.3190  0.3969
 3215TIP3    H133840   2.286   2.960   0.520  3.4895  0.6912  0.1767
 3215TIP3    H233841   2.284   2.828   0.594  0.8023  0.3331 -0.4295
 3216TIP3   OH233842   0.743   1.423   7.490  0.3045 -0.6576  0.2945
 3216TIP3    H133843   0.786   1.466   7.416 -0.4696 -0.5426 -0.0996
 3216TIP3    H233844   0.718   1.337   7.456 -1.4040 -0.0628 -0.0953
 3217TIP3   OH233845   3.184   0.082   0.463  0.1359  0.4580  0.5644
 3217TIP3    H133846   3.249   0.089   0.533 -0.1034 -1.6928  1.0741
 3217TIP3    H233847   3.129   0.160   0.474  1.2067  1.0946  1.6125
 3218TIP3   OH233848   0.795   7.015   1.126  0.4226  0.3637 -0.0224
 3218TIP3    H133849   0.704   7.013   1.096  0.1880  0.0184  0.6964
 3218TIP3    H233850   0.791   7.051   1.214  0.7357 -1.5851  0.8287
 3219TIP3   OH233851   1.299   6.526   7.309  0.2582 -0.2392  0.2690
 3219TIP3    H133852   1.352   6.564   7.379 -1.1942  1.0501  0.7219
 3219TIP3    H233853   1.256   6.601   7.268 -1.8829 -1.2766  0.4884
 3220TIP3   OH233854   4.256   3.793   0.493  0.0029  0.5928  0.2771
 3220TIP3    H133855   4.332   3.766   0.544  0.8535  0.1465 -1.1640
 3220TIP3    H233856   4.289   3.805   0.404 -1.3537  1.6919 -0.1280
 3221TIP3   OH233857   0.215   1.989   9.847  0.1262  0.7708  0.6920
 3221TIP3    H133858   0.291   1.974   9.903  0.8729 -1.1447 -0.6949
 3221TIP3    H233859   0.141   1.988   9.907  0.7595 -2.4936  1.6502
 3222TIP3   OH233860   0.093   5.647   8.524  0.0046  0.1946  0.3394
 3222TIP3    H133861   0.090   5.578   8.590  2.1546  2.5239  3.1135
 3222TIP3    H233862   0.079   5.728   8.573  0.8390  2.0126 -2.2202
 3223TIP3   OH233863   2.439   1.362   1.814  0.3917  0.0004  0.1014
 3223TIP3    H133864   2.429   1.455   1.836  0.0747  0.0570 -0.2697
 3223TIP3    H233865   2.519   1.335   1.860  1.5524  0.9221 -1.2776
 3224TIP3   OH233866   3.472   5.765   6.580  0.1058 -0.5128  0.2725
 3224TIP3    H133867   3.417   5.748   6.656 -0.2021  0.9214  0.4030
 3224TIP3    H233868   3.442   5.702   6.514 -0.7891 -0.6310  0.7770
 3225TIP3   OH233869   1.951   2.518   1.173 -0.2814  0.0289 -0.2625
 3225TIP3    H133870   1.964   2.425   1.154  1.5091  0.2085 -0.0974
 3225TIP3    H233871   1.944   2.559   1.087  0.4421 -0.0879 -0.3859
 3226TIP3   OH233872   4.693   6.681   8.541 -0.0106  0.0620  0.0811
 3226TIP3    H133873   4.758   6.751   8.546 -1.1175  1.0868  0.8126
 3226TIP3    H233874   4.640   6.692   8.620 -0.5625 -1.2750 -0.0700
 3227TIP3   OH233875   5.385   5.067   0.120 -0.3652 -0.3911 -0.2157
 3227TIP3    H133876   5.414   4.994   0.174  1.4070  1.5322  1.6133
 3227TIP3    H233877   5.429   5.054   0.036  2.4091  0.0484  1.0534
 3228TIP3   OH233878   2.573   5.209   6.709  0.2666 -0.5091  0.1248
 3228TIP3    H133879   2.587   5.124   6.750  2.0797 -0.8535 -1.1435
 3228TIP3    H233880   2.553   5.190   6.618  0.5687  0.4252 -0.1483
 3229TIP3   OH233881   2.422   6.429   9.271 -0.5105  0.2630  0.5164
 3229TIP3    H133882   2.350   6.374   9.302 -1.7721 -0.0806 -2.6436
 3229TIP3    H233883   2.445   6.393   9.185  2.3274  1.4312  0.6666
 3230TIP3   OH233884   4.756   5.629   0.512  0.4013 -0.1114 -0.8107
 3230TIP3    H133885   4.838   5.595   0.547 -0.2225  1.2159  2.2705
 3230TIP3    H233886   4.780   5.713   0.472  0.6391  0.0065 -0.4249
 3231TIP3   OH233887   0.714   6.337   1.288  0.1985 -0.0778 -0.4732
 3231TIP3    H133888   0.749   6.353   1.375 -1.4539 -0.4797  0.2982
 3231TIP3    H233889   0.628   6.378   1.288 -0.1473 -0.7426 -1.6674
 3232TIP3   OH233890   7.490   2.374   9.494  0.6126  0.4826 -0.1790
 3232TIP3    H133891   7.542   2.296   9.475 -1.0526 -0.7676  0.1800
 3232TIP3    H233892   7.419   2.343   9.550 -0.6146  2.0906 -0.7677
 3233TIP3   OH233893   0.251   0.015   2.094  0.0091  0.5825 -0.2752
 3233TIP3    H133894   0.189   0.084   2.120 -1.3715 -0.5206 -0.5488
 3233TIP3    H233895   0.293  -0.012   2.176  1.0611  2.1547 -0.2360
 3234TIP3   OH233896   4.216   7.569   9.357 -0.5529  0.4102  0.3170
 3234TIP3    H133897   4.129   7.576   9.317 -0.1497  0.5107 -0.5774
 3234TIP3    H233898   4.220   7.478   9.388 -1.7193  0.9372  2.2106
 3235TIP3   OH233899   5.871   6.106   9.427 -0.2837  0.6281  0.4142
 3235TIP3    H133900   5.840   6.018   9.446 -1.6741  0.7169 -1.1550
 3235TIP3    H233901   5.952   6.093   9.378 -0.1991  0.2368  0.6545
 3236TIP3   OH233902   3.707   1.688   0.763 -0.7232  0.0745  0.1244
 3236TIP3    H133903   3.781   1.742   0.733 -2.0467  2.2498  0.5521
 3236TIP3    H233904   3.676   1.644   0.685 -1.3248  2.1633 -0.8886
 3237TIP3   OH233905   7.118   4.303   0.924  0.0284 -0.4001 -0.2662
 3237TIP3    H133906   7.097   4.392   0.897 -0.5906  0.2460  2.1775
 3237TIP3    H233907   7.150   4.311   1.014  0.7711 -2.5636 -0.2731
 3238TIP3   OH233908   4.438   7.527   9.635  0.4757 -0.3553  0.2089
 3238TIP3    H133909   4.358   7.561   9.674  1.0661 -0.6125  1.7012
 3238TIP3    H233910   4.504   7.594   9.652  0.7420 -0.4503 -0.4016
 3239TIP3   OH233911   0.113   7.292   7.933  0.8425  0.3148 -0.2188
 3239TIP3    H133912   0.123   7.344   7.854 -1.6219  0.2825 -0.6232
 3239TIP3    H233913   0.085   7.206   7.902  1.2134 -0.1209  0.6160
 3240TIP3   OH233914   1.289   4.413   9.058 -0.1447  0.0555  0.3064
 3240TIP3    H133915   1.348   4.366   9.117  1.5339  2.8897  1.1114
 3240TIP3    H233916   1.334   4.412   8.973  1.1417  2.1038  0.8893
 3241TIP3   OH233917   5.374   5.744   9.142  0.3495  0.2185 -0.0994
 3241TIP3    H133918   5.397   5.786   9.059  2.6218  2.0924  1.3280
 3241TIP3    H233919   5.411   5.656   9.135  1.3132  0.6551 -0.7468
 3242TIP3   OH233920   6.790   0.349   8.469 -0.0218  0.0537 -0.3234
 3242TIP3    H133921   6.813   0.258   8.484 -0.3959  0.0395  0.1606
 3242TIP3    H233922   6.744   0.349   8.385 -1.9784 -0.5311  0.7049
 3243TIP3   OH233923   1.108   5.622   0.480 -0.4774 -0.0988  0.1101
 3243TIP3    H133924   1.089   5.606   0.573  0.6666 -0.3560  0.3107
 3243TIP3    H233925   1.204   5.621   0.475 -0.5193  0.5535 -0.9649
 3244TIP3   OH233926   6.571   5.833   9.272 -0.5382 -0.4028 -0.7716
 3244TIP3    H133927   6.490   5.784   9.289 -1.0168  0.7007  0.2990
 3244TIP3    H233928   6.541   5.917   9.236  0.1715 -0.2843 -1.1063
 3245TIP3   OH233929   7.303   2.187   9.599 -0.1958 -0.2253  0.1731
 3245TIP3    H133930   7.368   2.121   9.573  1.3654  1.0225  0.7927
 3245TIP3    H233931   7.258   2.147   9.674  0.5399 -0.6990  0.3752
 3246TIP3   OH233932   0.806   0.810   7.089 -0.3212  0.0235  1.2495
 3246TIP3    H133933   0.797   0.899   7.123  2.0662  1.5309 -1.6499
 3246TIP3    H233934   0.893   0.782   7.117  0.6214  0.3027 -1.1204
 3247TIP3   OH233935   3.608   5.768   2.452 -0.0730 -0.9681 -0.0736
 3247TIP3    H133936   3.665   5.712   2.399  1.0834  0.3099 -0.2153
 3247TIP3    H233937   3.521   5.728   2.444  0.4553 -1.9091 -1.3314
 3248TIP3   OH233938   1.861   3.264   8.498  0.0503 -0.0794 -0.0524
 3248TIP3    H133939   1.768   3.275   8.477  0.4996  1.5867 -1.4134
 3248TIP3    H233940   1.893   3.204   8.431  0.5607  1.8355 -1.6361
 3249TIP3   OH233941   3.020   7.341   2.333 -0.0147  0.1469  0.1581
 3249TIP3    H133942   2.970   7.396   2.273  1.8419  0.6240 -1.0379
 3249TIP3    H233943   2.997   7.374   2.420 -0.4764  1.4545 -0.4365
 3250TIP3   OH233944   3.710   0.662   9.786  0.3723 -0.5569 -0.2978
 3250TIP3    H133945   3.635   0.625   9.832 -0.1135 -0.6787 -1.1879
 3250TIP3    H233946   3.682   0.751   9.762  0.0060 -1.0603 -1.8042
 3251TIP3   OH233947   6.212   3.030   9.161 -0.1465 -0.6898 -0.2956
 3251TIP3    H133948   6.125   2.990   9.159 -0.9145  0.8898 -1.4537
 3251TIP3    H233949   6.223   3.068   9.074  1.0396  0.4868  0.3208
 3252TIP3   OH233950   5.878   2.923   0.673 -0.3474 -0.0322  0.0342
 3252TIP3    H133951   5.918   2.974   0.743  0.2455 -0.6391  0.1559
 3252TIP3    H233952   5.904   2.968   0.593 -0.2759  0.1615  0.1650
 3253TIP3   OH233953   2.270   2.471   2.127  0.3894 -0.4697 -0.1033
 3253TIP3    H133954   2.177   2.473   2.106  0.5387 -0.5340 -0.7951
 3253TIP3    H233955   2.307   2.548   2.082  0.5458  0.0009  0.8025
 3254TIP3   OH233956   3.620   1.171   1.257  0.0533 -0.3926 -0.0726
 3254TIP3    H133957   3.534   1.162   1.216  0.5746 -2.6333 -0.8351
 3254TIP3    H233958   3.653   1.081   1.262  1.8555  0.2934  1.2985
 3255TIP3   OH233959   1.818   5.920   2.895 -0.2871  0.3942 -0.6071
 3255TIP3    H133960   1.866   5.921   2.977 -1.7451 -0.1884  0.2922
 3255TIP3    H233961   1.762   5.998   2.899  1.1627  1.5879 -2.0520
 3256TIP3   OH233962   1.800   5.251   0.003  0.3635 -1.3261 -0.7595
 3256TIP3    H133963   1.791   5.346   0.004 -1.8220 -1.4613  0.3988
 3256TIP3    H233964   1.768   5.225  -0.083 -0.2142 -1.0676 -0.6292
 3257TIP3   OH233965   5.869   4.095   9.559  0.6745  0.1098 -0.0147
 3257TIP3    H133966   5.832   4.176   9.524 -1.5060 -0.7280  0.2319
 3257TIP3    H233967   5.939   4.125   9.618  0.5378  1.7563 -0.6190
 3258TIP3   OH233968   0.533   4.420   8.291  0.4801 -0.2548 -0.4159
 3258TIP3    H133969   0.440   4.433   8.308  0.6063  1.6757 -0.9290
 3258TIP3    H233970   0.565   4.370   8.366 -0.4501  1.4626  1.1968
 3259TIP3   OH233971   3.794   0.987   0.078  0.3634  0.0412 -0.0909
 3259TIP3    H133972   3.839   1.070   0.064 -2.4951  1.6933 -0.3111
 3259TIP3    H233973   3.766   0.960  -0.009 -0.1359 -0.2762  0.1633
 3260TIP3   OH233974   6.978   0.355   0.550 -0.6122  0.2796  0.2774
 3260TIP3    H133975   6.903   0.332   0.605  0.4118  0.1702  1.6883
 3260TIP3    H233976   7.034   0.278   0.552 -0.9016 -0.0426 -1.6320
 3261TIP3   OH233977   5.349   5.784   1.662 -0.0139 -0.3653  0.1176
 3261TIP3    H133978   5.275   5.778   1.602  0.7489  0.2610 -0.9310
 3261TIP3    H233979   5.409   5.715   1.633 -0.6022 -1.5507  1.6073
 3262TIP3   OH233980   7.471   0.364   2.038 -0.1600 -0.4115  0.0257
 3262TIP3    H133981   7.429   0.331   2.117  0.3951  0.1944  0.5793
 3262TIP3    H233982   7.434   0.451   2.025  0.1305 -0.3019 -0.0865
 3263TIP3   OH233983   7.233   6.479   0.236 -0.2232 -0.0425  0.2774
 3263TIP3    H133984   7.327   6.463   0.229 -0.1714  0.4035 -0.0641
 3263TIP3    H233985   7.215   6.548   0.172 -0.8348 -0.3400  0.1162
 3264TIP3   OH233986   3.379   2.491   1.712  0.6963  0.3114  0.1570
 3264TIP3    H133987   3.292   2.467   1.744  0.6926 -1.4231 -1.0170
 3264TIP3    H233988   3.364   2.567   1.656 -0.4137 -1.0700 -1.5314
 3265TIP3   OH233989   3.827   4.720   2.185 -0.5322 -0.1455 -0.6072
 3265TIP3    H133990   3.875   4.678   2.256  0.7423  2.1773 -0.0032
 3265TIP3    H233991   3.875   4.697   2.106 -0.4690 -0.6354 -0.4324
 3266TIP3   OH233992   1.573   0.688   2.066  1.0472  0.4363 -0.2181
 3266TIP3    H133993   1.649   0.737   2.096 -0.3241  1.5074  1.7652
 3266TIP3    H233994   1.601   0.647   1.984  3.1373  2.2835 -0.5182
 3267TIP3   OH233995   4.971   7.417   9.503 -0.1310  0.4625 -0.0123
 3267TIP3    H133996   4.933   7.373   9.427  0.0763  1.9625 -1.0062
 3267TIP3    H233997   4.928   7.502   9.507  0.9315  0.9901  0.6714
 3268TIP3   OH233998   1.613   7.000   8.404  0.3092 -0.5322  0.1667
 3268TIP3    H133999   1.616   6.908   8.375  1.1793 -0.4886  0.0810
 3268TIP3    H234000   1.697   7.013   8.449 -0.2754 -0.0822  1.1431
 3269TIP3   OH234001   4.039   3.552   2.566 -0.5444 -0.4881 -0.8287
 3269TIP3    H134002   4.021   3.521   2.655 -1.2737 -0.8318 -1.0844
 3269TIP3    H234003   4.095   3.485   2.528  1.6466  0.7475  0.0817
 3270TIP3   OH234004   2.158   0.069   0.357  0.7889  0.0081 -0.0493
 3270TIP3    H134005   2.143   0.106   0.270 -0.1430 -2.4568 -1.0281
 3270TIP3    H234006   2.071   0.072   0.399  0.6662 -1.1573 -0.2060
 3271TIP3   OH234007   4.139   7.639   7.603  0.2528  0.4022  0.3445
 3271TIP3    H134008   4.142   7.734   7.611 -0.0245  0.4064  0.4400
 3271TIP3    H234009   4.185   7.619   7.522 -1.7221  0.8029 -0.9448
 3272TIP3   OH234010   1.013   0.359   9.536 -0.7121 -0.0573  0.5563
 3272TIP3    H134011   0.945   0.333   9.473 -0.5364  0.3395  0.1990
 3272TIP3    H234012   1.028   0.452   9.517 -0.1796 -0.1070  0.7380
 3273TIP3   OH234013   2.024   5.859   6.535  0.1170 -0.1067  0.0822
 3273TIP3    H134014   2.112   5.824   6.548  0.3576 -0.4170 -2.0497
 3273TIP3    H234015   2.036   5.930   6.472 -1.2766 -0.7370 -0.9273
 3274TIP3   OH234016   2.229   5.776   3.123 -0.5581 -0.2104  0.3088
 3274TIP3    H134017   2.279   5.771   3.042  0.0464  0.2353  0.6476
 3274TIP3    H234018   2.138   5.760   3.096 -0.5563  1.2278 -0.6673
 3275TIP3   OH234019   0.575   1.621   1.264  0.1362  0.1921  0.1583
 3275TIP3    H134020   0.530   1.539   1.242 -0.6513  0.3660  1.0796
 3275TIP3    H234021   0.547   1.641   1.353  1.9316  0.3771  0.7381
 3276TIP3   OH234022   1.579   2.216   6.952  0.6273 -0.3125  0.1922
 3276TIP3    H134023   1.487   2.238   6.962  0.5635  0.1616 -1.2274
 3276TIP3    H234024   1.626   2.299   6.963  0.9364 -0.6136  1.2902
 3277TIP3   OH234025   4.511   3.892   7.349  0.0660  0.1516 -0.0886
 3277TIP3    H134026   4.595   3.886   7.395  0.9274 -1.8122 -1.7627
 3277TIP3    H234027   4.462   3.815   7.377 -1.3474  1.4246  1.0807
 3278TIP3   OH234028   2.260   6.938   0.150  0.3822 -0.5915  0.7380
 3278TIP3    H134029   2.233   7.022   0.187  0.5912  0.5146 -1.4358
 3278TIP3    H234030   2.202   6.925   0.075  2.4224 -0.7020 -0.9340
 3279TIP3   OH234031   3.926   6.538   8.984 -0.0809  0.0395  0.8607
 3279TIP3    H134032   3.891   6.486   8.912 -0.7497 -1.6599  2.3410
 3279TIP3    H234033   3.962   6.616   8.942 -0.5544 -0.8275 -1.2784
 3280TIP3   OH234034   4.175   2.348   0.145  0.5716 -0.2498 -0.4982
 3280TIP3    H134035   4.116   2.379   0.076 -0.0343 -0.1576  0.0631
 3280TIP3    H234036   4.191   2.424   0.200  0.6717 -0.4415 -0.2596
 3281TIP3   OH234037   1.037   6.096   9.571  0.3033 -0.1393  0.6795
 3281TIP3    H134038   1.053   6.037   9.644 -1.8735 -0.9565  0.5784
 3281TIP3    H234039   1.102   6.072   9.505 -0.0771 -1.9817  0.9208
 3282TIP3   OH234040   3.545   7.505   0.585 -0.0601  0.3314 -0.1988
 3282TIP3    H134041   3.561   7.564   0.658 -0.4069 -1.2278  1.2019
 3282TIP3    H234042   3.456   7.474   0.598 -0.0011 -0.2514 -1.0842
 3283TIP3   OH234043   3.425   1.027   9.489 -0.3989 -0.3003  0.2141
 3283TIP3    H134044   3.470   1.011   9.572  0.3005 -0.9983 -0.2825
 3283TIP3    H234045   3.414   1.122   9.485  0.3671 -0.1836  0.7018
 3284TIP3   OH234046   0.188   1.622   7.479 -0.2048 -0.3040 -0.1845
 3284TIP3    H134047   0.095   1.640   7.468 -0.1037 -0.2737 -1.0096
 3284TIP3    H234048   0.227   1.639   7.393  0.3333 -1.7291 -0.2524
 3285TIP3   OH234049   0.301   4.245   0.257 -0.0519 -0.0028 -0.2163
 3285TIP3    H134050   0.264   4.257   0.170 -0.2973 -0.2412 -0.1448
 3285TIP3    H234051   0.304   4.151   0.270 -1.9558  0.0205  0.8372
 3286TIP3   OH234052   4.769   3.389   9.503 -0.2123  0.0636  0.2982
 3286TIP3    H134053   4.855   3.402   9.543  0.0981 -0.5968 -0.1396
 3286TIP3    H234054   4.788   3.372   9.411 -0.8485  0.4476  0.0893
 3287TIP3   OH234055   4.467   0.742   8.496  0.1156 -0.0845 -0.3042
 3287TIP3    H134056   4.524   0.667   8.479  1.3752 -0.0291  2.8470
 3287TIP3    H234057   4.522   0.819   8.478  0.0788  0.0006 -0.0708
 3288TIP3   OH234058   2.274   4.551   2.609 -0.4569 -0.0054  0.3551
 3288TIP3    H134059   2.370   4.548   2.599 -0.5343 -0.7757 -0.2607
 3288TIP3    H234060   2.257   4.505   2.691 -0.3088 -0.0797  0.3448
 3289TIP3   OH234061   3.898   5.738   7.746 -0.0441 -0.6284 -1.0064
 3289TIP3    H134062   3.963   5.786   7.798 -0.6030 -2.1876  1.2721
 3289TIP3    H234063   3.814   5.764   7.784 -0.6986  0.1968 -2.9188
 3290TIP3   OH234064   5.381   4.950   9.138  0.2398 -0.3122 -0.1574
 3290TIP3    H134065   5.376   5.038   9.101  1.9800 -0.3858 -0.6849
 3290TIP3    H234066   5.460   4.952   9.192 -0.4243 -1.1908  0.8863
 3291TIP3   OH234067   3.137   6.167   1.534  0.2655  0.1769  0.0333
 3291TIP3    H134068   3.153   6.119   1.453 -2.3439  2.1883 -1.8431
 3291TIP3    H234069   3.140   6.259   1.509 -2.8872  0.8773  1.6102
 3292TIP3   OH234070   1.235   6.162   9.266  0.4008  0.1730  0.4027
 3292TIP3    H134071   1.237   6.214   9.346 -1.0915 -1.9656  1.9481
 3292TIP3    H234072   1.299   6.092   9.281  0.8768  0.3429 -0.7323
 3293TIP3   OH234073   6.230   0.313   8.960  0.1224 -0.0903  0.2013
 3293TIP3    H134074   6.325   0.316   8.944  0.2965 -0.7234  1.0657
 3293TIP3    H234075   6.200   0.237   8.910 -0.2442  1.1590 -1.5488
 3294TIP3   OH234076   4.576   4.477   0.654 -0.0858 -0.6467 -0.1632
 3294TIP3    H134077   4.612   4.558   0.618 -0.1527 -1.3539 -1.9365
 3294TIP3    H234078   4.632   4.409   0.619 -0.0080 -1.3953  1.3355
 3295TIP3   OH234079   1.140   5.176   2.183 -0.3702  0.1073 -0.5870
 3295TIP3    H134080   1.230   5.152   2.160 -0.5700  0.3100 -1.6192
 3295TIP3    H234081   1.098   5.092   2.202  0.8263  0.1395  3.1982
 3296TIP3   OH234082   0.439   2.177   2.232 -0.1308  0.2985 -0.4670
 3296TIP3    H134083   0.466   2.092   2.197 -0.3229 -0.2472  0.6671
 3296TIP3    H234084   0.465   2.240   2.165  1.5029 -0.4810 -0.6163
 3297TIP3   OH234085   2.593   6.498   8.032  0.0350  0.7473  0.4300
 3297TIP3    H134086   2.650   6.574   8.044  0.0942  0.4257  2.4767
 3297TIP3    H234087   2.652   6.423   8.038 -0.4322  0.4478  1.5240
 3298TIP3   OH234088   2.312   5.457   8.798 -0.0462  0.5080  0.5586
 3298TIP3    H134089   2.295   5.396   8.870  0.0898 -1.7873 -1.2431
 3298TIP3    H234090   2.227   5.467   8.755  0.4973 -0.9294 -0.9585
 3299TIP3   OH234091   6.373   6.984   1.425 -0.0980 -0.0196  0.4478
 3299TIP3    H134092   6.390   6.902   1.379 -2.1727 -0.1472 -0.2113
 3299TIP3    H234093   6.415   6.975   1.510 -0.5434 -1.9078  0.4971
 3300TIP3   OH234094   6.494   4.751   8.172  0.2160 -0.1047  0.1189
 3300TIP3    H134095   6.476   4.676   8.115 -2.6078  2.1160 -2.2673
 3300TIP3    H234096   6.542   4.812   8.116 -0.6061  1.2188  0.8099
 3301TIP3   OH234097   0.452   6.103   9.358 -0.0085  0.0455 -0.0435
 3301TIP3    H134098   0.389   6.034   9.375 -0.3374 -0.0425 -1.4634
 3301TIP3    H234099   0.505   6.071   9.285  0.9837  0.5750  0.4074
 3302TIP3   OH234100   1.042   7.200   8.949 -0.0375  0.2701 -0.2402
 3302TIP3    H134101   1.109   7.133   8.946 -0.7924 -0.4924 -0.4654
 3302TIP3    H234102   0.974   7.168   8.890 -2.0785 -0.5796  2.3774
 3303TIP3   OH234103   6.645   1.286   9.692  0.0143  0.4925  0.2102
 3303TIP3    H134104   6.664   1.346   9.765  0.4949  1.3562 -0.5877
 3303TIP3    H234105   6.582   1.334   9.638  1.2648  0.7825 -1.0372
 3304TIP3   OH234106   4.451   3.233   0.861  0.3179  0.1615  0.2594
 3304TIP3    H134107   4.481   3.170   0.927 -0.1199 -1.0407 -0.6555
 3304TIP3    H234108   4.523   3.238   0.799 -0.9596 -2.2623 -1.6105
 3305TIP3   OH234109   2.657   4.631   1.796 -0.0317 -0.0918 -0.5410
 3305TIP3    H134110   2.724   4.640   1.864  1.5807  1.0088 -2.1713
 3305TIP3    H234111   2.661   4.539   1.770  0.5741 -0.1314 -0.3295
 3306TIP3   OH234112   0.234   4.341   7.864  0.1025  0.1182  0.3450
 3306TIP3    H134113   0.160   4.333   7.804  1.2193 -0.7140 -0.9844
 3306TIP3    H234114   0.203   4.304   7.947 -2.2391  3.3425  1.1099
 3307TIP3   OH234115   2.161   4.438   9.488 -0.0377  0.3021 -0.1280
 3307TIP3    H134116   2.205   4.489   9.420  0.3124 -0.2745 -0.3374
 3307TIP3    H234117   2.070   4.469   9.485  0.1630  0.8986 -0.2600
 3308TIP3   OH234118   3.003   0.417   9.172 -0.2700 -0.1095  0.1504
 3308TIP3    H134119   2.975   0.327   9.161  0.0914 -0.0306 -1.6693
 3308TIP3    H234120   2.938   0.469   9.123  0.0633  0.5388  0.3748
 3309TIP3   OH234121   1.813   7.494   9.874  0.2169  0.3243 -0.0526
 3309TIP3    H134122   1.809   7.486   9.779 -1.2719 -0.6220  0.0465
 3309TIP3    H234123   1.906   7.486   9.896  0.6761  1.3954 -1.4705
 3310TIP3   OH234124   6.785   5.161   1.340  0.0580 -0.5562 -0.3406
 3310TIP3    H134125   6.845   5.089   1.318 -0.8195 -1.6255  0.5632
 3310TIP3    H234126   6.806   5.181   1.432 -0.9704 -0.9708 -0.0046
 3311TIP3   OH234127   0.507   5.699   0.764 -0.7837 -0.6461 -0.1244
 3311TIP3    H134128   0.574   5.640   0.730 -0.3800  0.0028 -0.4694
 3311TIP3    H234129   0.556   5.773   0.801 -1.2933 -0.3518 -0.0208
 3312TIP3   OH234130   6.657   6.478   0.603 -0.1433 -0.6635 -0.6233
 3312TIP3    H134131   6.587   6.543   0.595  0.4052 -0.1714 -1.6424
 3312TIP3    H234132   6.728   6.525   0.646  0.1198 -0.6873 -1.0232
 3313TIP3   OH234133   5.013   5.188   9.802  0.3857  0.1345  0.0442
 3313TIP3    H134134   5.054   5.268   9.768  1.7479 -0.9810 -1.1019
 3313TIP3    H234135   5.037   5.186   9.894 -0.5237  1.5278  0.3434
 3314TIP3   OH234136   1.999   5.228   7.696 -0.3059  0.3146  0.3011
 3314TIP3    H134137   2.034   5.291   7.633 -1.0502 -0.5533 -1.0432
 3314TIP3    H234138   1.911   5.262   7.716 -0.1886  0.4225  0.6313
 3315TIP3   OH234139   0.897   0.664   9.042 -0.3520  0.3383 -0.0582
 3315TIP3    H134140   0.815   0.636   9.082  0.0477 -0.8828 -0.0454
 3315TIP3    H234141   0.948   0.701   9.115  0.7374 -2.6998  0.8524
 3316TIP3   OH234142   7.340   1.969   2.193  0.0876  0.3869  0.0387
 3316TIP3    H134143   7.270   1.984   2.131  0.8355  0.7738 -0.7286
 3316TIP3    H234144   7.326   2.033   2.263 -0.2301  0.5523 -0.1790
 3317TIP3   OH234145   2.202   0.426   7.767 -0.5127  0.0388 -0.5692
 3317TIP3    H134146   2.232   0.433   7.676 -1.1213  0.1009 -0.7671
 3317TIP3    H234147   2.167   0.512   7.787  0.9139  0.4737  0.2061
 3318TIP3   OH234148   2.339   5.571   0.330 -0.4993  0.2749 -1.3606
 3318TIP3    H134149   2.287   5.491   0.328 -0.3581  0.1316  0.1168
 3318TIP3    H234150   2.292   5.631   0.272 -1.9436 -0.0810 -0.6033
 3319TIP3   OH234151   2.276   5.843   1.630  0.1413 -0.2999 -0.0529
 3319TIP3    H134152   2.371   5.855   1.633  0.5218 -2.6737 -0.4575
 3319TIP3    H234153   2.264   5.751   1.603 -2.2708  0.2015 -1.0004
 3320TIP3   OH234154   7.086   6.447   0.463 -0.1137  0.0321  0.0312
 3320TIP3    H134155   7.130   6.453   0.378  1.0321  0.5260  0.6294
 3320TIP3    H234156   6.995   6.469   0.445  0.4486  1.9063 -0.7997
 3321TIP3   OH234157   7.416   0.007   2.196  0.5758 -0.0808 -0.6253
 3321TIP3    H134158   7.470  -0.042   2.257  1.3553  0.4718 -0.8529
 3321TIP3    H234159   7.332  -0.039   2.195  1.0418 -0.9546 -0.2716
 3322TIP3   OH234160   2.214   1.418   9.531  0.7394 -0.1859  0.6473
 3322TIP3    H134161   2.126   1.383   9.515  0.9575 -1.3051  1.7168
 3322TIP3    H234162   2.220   1.495   9.474 -1.0846  0.1619  0.8568
 3323TIP3   OH234163   4.827   6.042   9.155 -0.0920 -0.0320  0.1500
 3323TIP3    H134164   4.800   5.965   9.105  2.4424 -0.6851 -0.3082
 3323TIP3    H234165   4.886   6.090   9.097 -3.3137  3.6609 -0.5472
 3324TIP3   OH234166   2.308   1.132   9.454  0.0171  0.3377  0.1649
 3324TIP3    H134167   2.342   1.120   9.365  0.9002 -0.6321  0.6160
 3324TIP3    H234168   2.279   1.223   9.456 -1.7492 -0.1044 -1.6871
 3325TIP3   OH234169   0.427   0.753   2.736 -0.0585 -0.2174 -0.3472
 3325TIP3    H134170   0.471   0.836   2.754  0.1887 -0.5077  0.3990
 3325TIP3    H234171   0.387   0.727   2.819 -0.8167 -0.4520 -0.7728
 3326TIP3   OH234172   4.805   4.437   2.018 -0.5163  0.7915  0.0533
 3326TIP3    H134173   4.739   4.501   1.991 -0.8129  0.5051  0.0893
 3326TIP3    H234174   4.858   4.422   1.940 -0.2675  1.2928  0.1226
 3327TIP3   OH234175   1.315   0.484   1.419  0.4223 -0.3873 -0.9615
 3327TIP3    H134176   1.271   0.545   1.360 -0.4289  0.6278  0.6408
 3327TIP3    H234177   1.369   0.539   1.475 -0.1237 -1.1001  0.3156
 3328TIP3   OH234178   1.687   4.430   7.726 -0.0501  0.7407 -0.2789
 3328TIP3    H134179   1.762   4.488   7.739  0.5363 -0.2254  0.9216
 3328TIP3    H234180   1.631   4.476   7.663  0.9598  2.0346 -0.2763
 3329TIP3   OH234181   3.933   6.700   1.470  0.2459  0.0634 -0.3472
 3329TIP3    H134182   4.002   6.676   1.408  1.2460  1.4878  0.1490
 3329TIP3    H234183   3.928   6.796   1.464  1.0333  0.3656  2.3720
 3330TIP3   OH234184   2.542   1.177   7.977  0.2196  0.1222 -0.8557
 3330TIP3    H134185   2.506   1.266   7.971 -0.6698 -0.1721 -0.1928
 3330TIP3    H234186   2.471   1.121   7.946  0.7902 -0.3616 -1.3045
 3331TIP3   OH234187   2.116   6.168   7.233 -0.1205 -0.7403  0.0532
 3331TIP3    H134188   2.066   6.150   7.154 -0.1090  0.0143 -0.1269
 3331TIP3    H234189   2.083   6.252   7.264  0.4011 -0.6732  0.4357
 3332TIP3   OH234190   7.458   4.038   1.442 -0.2497 -0.1947  0.9559
 3332TIP3    H134191   7.513   4.116   1.441 -0.7776  0.1827  0.2959
 3332TIP3    H234192   7.505   3.976   1.386 -1.4031  0.7986 -1.2103
 3333TIP3   OH234193   7.012   1.080   0.545 -0.3427 -0.0096  0.8221
 3333TIP3    H134194   6.936   1.050   0.497  0.6490 -1.9756  0.3767
 3333TIP3    H234195   7.040   1.159   0.499  0.3675 -1.6118 -1.7606
 3334TIP3   OH234196   4.485   4.134   0.088  0.4436 -0.1689 -0.1429
 3334TIP3    H134197   4.570   4.122   0.131 -0.4265  2.1602  2.5831
 3334TIP3    H234198   4.489   4.221   0.049 -1.0656  0.6273  1.3115
 3335TIP3   OH234199   1.398   6.708   7.503 -0.5775 -0.2657  0.4905
 3335TIP3    H134200   1.482   6.754   7.503 -1.2372  0.9770  0.3317
 3335TIP3    H234201   1.386   6.680   7.594 -0.2805  0.0902  0.6426
 3336TIP3   OH234202   1.746   0.013   1.856  0.1580  0.4432  0.3777
 3336TIP3    H134203   1.683   0.055   1.914  0.8975 -0.5264  1.9610
 3336TIP3    H234204   1.824   0.069   1.860  0.4988 -0.0607  1.0155
 3337TIP3   OH234205   7.367   6.378   0.585  0.0039 -0.0978 -0.4833
 3337TIP3    H134206   7.315   6.312   0.539 -1.3795 -0.4017  1.4143
 3337TIP3    H234207   7.304   6.446   0.609  0.7793  0.3003  0.4902
 3338TIP3   OH234208   1.033   1.452   9.957 -0.7332 -0.5993 -0.2093
 3338TIP3    H134209   0.993   1.379   9.910  1.4835 -0.5301 -2.4111
 3338TIP3    H234210   1.095   1.412  10.017  0.9170 -0.6431 -1.8342
 3339TIP3   OH234211   3.153   0.362   0.361  0.2591  0.9668  0.0930
 3339TIP3    H134212   3.101   0.372   0.282  1.9306 -1.8014 -1.5395
 3339TIP3    H234213   3.239   0.397   0.338  0.3565  1.5742  1.2761
 3340TIP3   OH234214   6.363   1.164   1.025 -0.2261  0.0295 -0.2889
 3340TIP3    H134215   6.422   1.122   1.088 -0.4997 -0.5914 -0.4333
 3340TIP3    H234216   6.290   1.195   1.078  0.2473  0.8460 -0.1027
 3341TIP3   OH234217   6.833   6.300   0.810 -0.2180  0.4914 -0.5487
 3341TIP3    H134218   6.751   6.341   0.839 -0.4309 -0.3660  0.1211
 3341TIP3    H234219   6.806   6.229   0.753  0.1493  1.2498 -1.6904
 3342TIP3   OH234220   7.359   1.598   1.172  0.5750 -0.3443 -0.2545
 3342TIP3    H134221   7.285   1.545   1.200  0.5492 -1.2797 -1.9794
 3342TIP3    H234222   7.379   1.654   1.248 -1.1830 -0.8319  0.6086
 3343TIP3   OH234223   4.927   2.156   8.925  0.0349  0.0680  0.1428
 3343TIP3    H134224   4.882   2.193   9.002 -1.2108 -0.0445 -0.5069
 3343TIP3    H234225   5.017   2.187   8.933 -0.4202  1.2763  0.8862
 3344TIP3   OH234226   5.278   2.669   0.812 -0.4307  0.5980 -0.3511
 3344TIP3    H134227   5.368   2.657   0.841 -0.1924 -0.4259 -1.4542
 3344TIP3    H234228   5.233   2.704   0.889  0.1940 -1.8495  1.2507
 3345TIP3   OH234229   6.917   6.185   7.431  0.5018 -0.8252 -0.4606
 3345TIP3    H134230   6.891   6.254   7.371  1.3679 -0.3299 -0.2900
 3345TIP3    H234231   6.850   6.184   7.499  1.1498  0.7785  0.2692
 3346TIP3   OH234232   5.743   7.206   0.203  0.5853  0.4014  0.0537
 3346TIP3    H134233   5.665   7.163   0.167  0.2651  1.1196 -0.1192
 3346TIP3    H234234   5.709   7.265   0.270  1.1385 -0.6182  1.2912
 3347TIP3   OH234235   2.407   0.255   7.441 -0.3547  0.2004 -0.1559
 3347TIP3    H134236   2.428   0.305   7.362  0.9917 -0.2573 -0.1056
 3347TIP3    H234237   2.319   0.284   7.465 -1.9750 -1.5241 -3.3384
 3348TIP3   OH234238   1.656   1.519   1.291 -0.6237 -0.3570 -0.0550
 3348TIP3    H134239   1.561   1.512   1.305 -0.6264  0.1389  0.1923
 3348TIP3    H234240   1.693   1.450   1.345 -0.6950  0.9315  1.7450
 3349TIP3   OH234241   3.883   3.716   2.393 -0.3031 -0.3777 -0.0382
 3349TIP3    H134242   3.953   3.675   2.443  1.3106  0.8883 -1.1677
 3349TIP3    H234243   3.873   3.802   2.432 -1.5186 -0.6719  0.3409
 3350TIP3   OH234244   7.536   7.416   8.256 -0.3389  0.0929  0.2900
 3350TIP3    H134245   7.575   7.492   8.211  1.9221 -0.4404  1.2250
 3350TIP3    H234246   7.587   7.407   8.336 -1.8791 -1.2378  1.1657
 3351TIP3   OH234247   1.958   0.214   8.967  0.3294 -0.2848  0.0358
 3351TIP3    H134248   2.042   0.181   9.000  0.7563  0.9340  0.1890
 3351TIP3    H234249   1.938   0.290   9.021 -0.7179 -0.3548 -0.2264
 3352TIP3   OH234250   4.103   0.165   0.060 -0.2932 -0.6629  1.0505
 3352TIP3    H134251   4.034   0.229   0.048 -0.8527 -1.3351  0.6167
 3352TIP3    H234252   4.183   0.209   0.030 -0.2276  0.6632  3.0019
 3353TIP3   OH234253   7.296   5.096   0.777 -0.4984  0.3275  0.2299
 3353TIP3    H134254   7.364   5.066   0.716 -1.5073  0.9970 -1.2725
 3353TIP3    H234255   7.226   5.032   0.769  0.6005 -1.4394  3.1781
 3354TIP3   OH234256   1.452   0.795   2.965 -0.2902 -0.5735  0.2112
 3354TIP3    H134257   1.479   0.724   3.023  1.3963  0.4615  0.7959
 3354TIP3    H234258   1.392   0.848   3.017  0.2229 -0.3475  0.5820
 3355TIP3   OH234259   1.272   5.797   7.298 -0.0638  0.1117 -0.0949
 3355TIP3    H134260   1.285   5.728   7.233 -0.6029  0.0123 -0.0965
 3355TIP3    H234261   1.361   5.816   7.330  0.0841 -0.6024 -0.0678
 3356TIP3   OH234262   7.159   4.871   8.779 -0.3128  0.2894  0.3457
 3356TIP3    H134263   7.138   4.778   8.770  0.7198  0.1673 -1.4943
 3356TIP3    H234264   7.078   4.912   8.807 -1.6636 -0.7967 -1.7050
 3357TIP3   OH234265   7.052   0.094   1.455 -0.2471  0.1805 -0.4123
 3357TIP3    H134266   6.984   0.117   1.391 -0.9411  1.4056  0.7268
 3357TIP3    H234267   7.073   0.002   1.434 -2.5255 -0.3723 -0.5889
 3358TIP3   OH234268   1.366   2.876   8.166  0.5415  0.4438 -0.8335
 3358TIP3    H134269   1.454   2.880   8.203  0.3147  2.2620 -0.3806
 3358TIP3    H234270   1.376   2.822   8.087  1.8001 -0.3740 -0.1524
 3359TIP3   OH234271   6.016   3.586   0.299  0.0602 -0.0581 -0.1890
 3359TIP3    H134272   5.977   3.632   0.225  1.2339  1.6861  0.1999
 3359TIP3    H234273   5.947   3.582   0.364 -1.3086 -2.4947 -1.6412
 3360TIP3   OH234274   5.203   1.024   8.056  0.3782  0.5246  0.5545
 3360TIP3    H134275   5.129   1.069   8.014  0.1392  0.8993  1.3548
 3360TIP3    H234276   5.270   1.091   8.067  0.8474  0.1877 -0.1544
 3361TIP3   OH234277   5.173   7.285   1.468  0.1383 -0.0650  0.1228
 3361TIP3    H134278   5.196   7.314   1.380 -1.6398 -0.9746 -0.6953
 3361TIP3    H234279   5.152   7.192   1.458 -0.4860 -0.0895  1.4321
 3362TIP3   OH234280   2.110   0.277   7.022  0.1490 -0.7265 -0.4883
 3362TIP3    H134281   2.145   0.363   7.000  0.5264 -0.7709 -0.0790
 3362TIP3    H234282   2.171   0.215   6.982 -0.4625 -0.8138 -1.3150
 3363TIP3   OH234283   7.025   3.360   0.073  0.0999 -0.1195  0.4373
 3363TIP3    H134284   7.009   3.339   0.165  1.3303 -1.4317  0.3788
 3363TIP3    H234285   6.953   3.319   0.026 -0.5342  0.5551  0.7936
 3364TIP3   OH234286   1.124   2.164   9.960 -0.1950 -0.0558 -0.4556
 3364TIP3    H134287   1.153   2.227   9.895  0.2746 -0.5718 -0.7584
 3364TIP3    H234288   1.117   2.214  10.041 -0.4855  0.5224 -0.8314
 3365TIP3   OH234289   1.003   5.558   8.923 -0.5055  0.2826  0.6711
 3365TIP3    H134290   0.923   5.609   8.936 -0.6704  0.6057 -1.2653
 3365TIP3    H234291   0.974   5.467   8.926 -0.6171  0.3395  1.7457
 3366TIP3   OH234292   3.929   2.235   8.808 -0.1146 -0.9892 -0.2790
 3366TIP3    H134293   3.961   2.318   8.845 -1.3035 -0.7791  0.3390
 3366TIP3    H234294   4.007   2.192   8.775  1.0720 -1.1655  2.4766
 3367TIP3   OH234295   6.841   5.976   2.245 -0.3982 -0.5833 -0.1967
 3367TIP3    H134296   6.929   6.002   2.272  0.2454 -1.5843 -1.2478
 3367TIP3    H234297   6.829   5.889   2.282 -0.3218 -1.0963 -1.3392
 3368TIP3   OH234298   7.591   6.484   0.683 -0.2736  0.0480  0.0511
 3368TIP3    H134299   7.637   6.472   0.600  0.0835  0.9843  0.1048
 3368TIP3    H234300   7.501   6.459   0.664 -0.5456  1.6785 -1.0591
 3369TIP3   OH234301   1.844   7.346   1.407  0.2134 -0.5500 -0.5597
 3369TIP3    H134302   1.786   7.271   1.418 -0.5405 -0.0308 -0.8517
 3369TIP3    H234303   1.925   7.321   1.451 -0.6634 -0.8208  0.9721
 3370TIP3   OH234304   4.212   4.626   8.078  0.5432 -0.0936  0.3792
 3370TIP3    H134305   4.294   4.654   8.037  1.2319 -0.5533  1.3962
 3370TIP3    H234306   4.173   4.707   8.111 -0.6272  0.4750 -2.1203
 3371TIP3   OH234307   2.869   2.623   2.306  0.6037 -0.2123  0.6796
 3371TIP3    H134308   2.896   2.554   2.366  0.9945 -0.4825  0.1971
 3371TIP3    H234309   2.923   2.699   2.329  1.8554 -0.7683 -0.3260
 3372TIP3   OH234310   3.667   4.607   9.248 -0.3337  0.2121 -0.1582
 3372TIP3    H134311   3.649   4.682   9.191  0.8513  0.5778 -0.0684
 3372TIP3    H234312   3.620   4.627   9.329 -0.6468  0.4834 -0.4015
 3373TIP3   OH234313   5.354   4.867   8.856  0.4990 -0.3048  0.0693
 3373TIP3    H134314   5.380   4.898   8.943 -0.9970  0.6021  0.2356
 3373TIP3    H234315   5.264   4.836   8.868  0.4776 -0.7071 -1.0462
 3374TIP3   OH234316   2.444   3.418   7.301  0.1914  0.1746 -0.1113
 3374TIP3    H134317   2.525   3.387   7.259 -0.6985 -1.0608 -0.9596
 3374TIP3    H234318   2.449   3.513   7.293  2.1702  0.2205  1.0251
 3375TIP3   OH234319   3.418   4.694   1.490  0.1939  0.3906  0.0904
 3375TIP3    H134320   3.350   4.759   1.471 -1.7801 -1.5263  0.2800
 3375TIP3    H234321   3.403   4.624   1.427  1.6339 -0.3694  0.5443
 3376TIP3   OH234322   3.414   3.111   1.523 -0.0782  0.2632 -0.0193
 3376TIP3    H134323   3.449   3.114   1.434 -0.2149 -0.6290 -0.1198
 3376TIP3    H234324   3.323   3.085   1.512  0.0218 -0.2927  0.3953
 3377TIP3   OH234325   6.143   0.941   2.034  0.5238  0.3792  0.1072
 3377TIP3    H134326   6.192   0.859   2.041 -1.7975 -1.1939 -1.0049
 3377TIP3    H234327   6.071   0.931   2.097  0.1082  1.5072 -0.1681
 3378TIP3   OH234328   3.789   2.852   1.634 -0.3932 -0.2095  0.1730
 3378TIP3    H134329   3.734   2.788   1.679  0.0537 -0.5002  0.2990
 3378TIP3    H234330   3.812   2.915   1.702  2.3223 -1.9456  1.0066
 3379TIP3   OH234331   0.752   2.970   7.525  0.5686  0.2277 -0.7614
 3379TIP3    H134332   0.664   2.934   7.517  0.7077  0.0754 -1.7317
 3379TIP3    H234333   0.739   3.060   7.553  0.2141 -0.5252  1.7390
 3380TIP3   OH234334   6.676   4.345   8.580  0.2006  0.4513 -0.4570
 3380TIP3    H134335   6.657   4.400   8.504 -1.7120 -0.4213 -0.6672
 3380TIP3    H234336   6.595   4.296   8.595  1.4417 -1.4223  0.4652
 3381TIP3   OH234337   6.672   2.857   1.594  0.3073  0.1425  0.1709
 3381TIP3    H134338   6.737   2.916   1.556  0.2765  0.6738  0.9206
 3381TIP3    H234339   6.695   2.770   1.560  2.1284  0.1292  1.3298
 3382TIP3   OH234340   4.502   0.816   9.134 -0.5231  0.8409  0.4474
 3382TIP3    H134341   4.585   0.810   9.087 -1.9716  0.2814 -2.2199
 3382TIP3    H234342   4.435   0.823   9.066 -3.0464 -2.5491  2.2441
 3383TIP3   OH234343   7.188   6.984   1.027  0.2589  0.3529  0.6801
 3383TIP3    H134344   7.223   6.983   0.938 -1.6717  0.7179 -0.1143
 3383TIP3    H234345   7.238   7.053   1.071  2.3363 -0.8648  0.4163
 3384TIP3   OH234346   0.069   6.738   7.663 -0.2566 -0.0206  0.0998
 3384TIP3    H134347   0.149   6.759   7.614 -1.1037 -2.4614 -2.6064
 3384TIP3    H234348   0.100   6.694   7.742  1.1097  2.5616  1.1199
 3385TIP3   OH234349   3.832   3.573   9.469  0.3516  0.0170 -0.8480
 3385TIP3    H134350   3.881   3.547   9.391 -0.3174 -1.4397 -0.8094
 3385TIP3    H234351   3.748   3.527   9.462 -0.6095  1.5968 -0.3619
 3386TIP3   OH234352   2.499   0.351   1.210  0.3525  0.0718 -0.3649
 3386TIP3    H134353   2.462   0.437   1.193 -0.4094 -0.1124  0.3124
 3386TIP3    H234354   2.452   0.292   1.152 -1.2611 -0.3358  1.2689
 3387TIP3   OH234355   5.960   6.616   7.798 -0.7743  0.2803 -0.4878
 3387TIP3    H134356   5.935   6.709   7.807  2.2909  1.0843  0.9336
 3387TIP3    H234357   5.948   6.580   7.886  0.9035  0.1636 -0.2798
 3388TIP3   OH234358   4.772   2.142   1.769  0.5929 -0.1730  0.4308
 3388TIP3    H134359   4.724   2.154   1.687 -0.4464 -0.9849  0.8988
 3388TIP3    H234360   4.834   2.072   1.751 -1.1149 -1.8940  0.9079
 3389TIP3   OH234361   5.801   5.038   9.621 -0.2654  0.0445  0.3197
 3389TIP3    H134362   5.801   5.107   9.555 -0.8122 -0.2854 -0.0300
 3389TIP3    H234363   5.894   5.014   9.629 -0.2158 -0.0987 -0.5295
 3390TIP3   OH234364   0.954   6.698   8.494 -0.0756  0.1349 -0.2846
 3390TIP3    H134365   0.861   6.675   8.487  0.2266 -0.8323 -1.5643
 3390TIP3    H234366   0.960   6.753   8.572 -1.5195 -0.8187  0.5294
 3391TIP3   OH234367   5.147   1.824   0.425 -1.0383  0.3244 -0.3446
 3391TIP3    H134368   5.164   1.893   0.360 -2.1326  0.1601 -0.8313
 3391TIP3    H234369   5.154   1.743   0.375  1.7985 -0.1009  0.5303
 3392TIP3   OH234370   1.879   4.757   0.922  0.1776 -0.3338 -0.5225
 3392TIP3    H134371   1.932   4.835   0.901 -0.9639  1.3381  2.2623
 3392TIP3    H234372   1.932   4.709   0.986 -0.6124  0.1370  0.5196
 3393TIP3   OH234373   1.087   6.326   2.513  0.4575 -0.3515  0.2405
 3393TIP3    H134374   1.011   6.281   2.550 -0.1699  0.4330 -0.0481
 3393TIP3    H234375   1.066   6.419   2.523  1.5141 -0.1250  0.4029
 3394TIP3   OH234376   4.145   2.110   8.675 -0.2080  0.0981  0.4447
 3394TIP3    H134377   4.156   2.015   8.681 -1.0991  0.0254  1.0753
 3394TIP3    H234378   4.234   2.144   8.676  0.1238 -0.7335  0.1220
 3395TIP3   OH234379   2.820   5.095   0.344 -0.6496  0.2429  0.9244
 3395TIP3    H134380   2.855   5.176   0.305  0.9962 -0.0687  1.7014
 3395TIP3    H234381   2.848   5.098   0.435  0.7177 -1.8846  0.6288
 3396TIP3   OH234382   6.204   0.962   9.387 -0.0316 -0.2692 -0.1118
 3396TIP3    H134383   6.137   0.984   9.322 -1.4805 -0.8665  1.0994
 3396TIP3    H234384   6.271   0.916   9.337 -0.7158 -0.0178 -1.3128
 3397TIP3   OH234385   3.627   0.182   8.517  0.1540 -0.1512  0.4165
 3397TIP3    H134386   3.565   0.140   8.457 -0.0491  1.2627 -0.3908
 3397TIP3    H234387   3.594   0.271   8.529  0.6015 -0.1660  2.0657
 3398TIP3   OH234388   3.138   1.943   2.882  0.0190  0.3007  0.8087
 3398TIP3    H134389   3.075   2.007   2.917 -2.5859 -1.8243  0.3248
 3398TIP3    H234390   3.113   1.861   2.924  0.8621 -1.1032 -1.3276
 3399TIP3   OH234391   2.209   6.502   1.773 -0.0726 -0.2529 -0.2771
 3399TIP3    H134392   2.268   6.430   1.794 -0.8628 -0.7928  0.1369
 3399TIP3    H234393   2.183   6.537   1.858 -1.5530 -1.0231 -0.3704
 3400TIP3   OH234394   3.970   0.331   0.583 -0.4708 -0.3858  0.3522
 3400TIP3    H134395   3.963   0.339   0.678  3.4212  0.9740  0.6753
 3400TIP3    H234396   4.027   0.256   0.569 -1.5808 -1.0380 -1.0191
 3401TIP3   OH234397   1.752   5.046   7.621  0.1070  0.1353  0.3957
 3401TIP3    H134398   1.803   5.126   7.608 -0.1824  0.2539 -0.0257
 3401TIP3    H234399   1.674   5.058   7.567 -0.8436  0.3834  1.7826
 3402TIP3   OH234400   3.358   4.276   9.776  0.1419  0.2656  0.3981
 3402TIP3    H134401   3.378   4.309   9.689 -2.8093 -1.0646 -0.9385
 3402TIP3    H234402   3.390   4.186   9.776  1.1220  0.6049  1.1202
 3403TIP3   OH234403   2.015   1.339   8.753  0.0910  0.0724 -0.1364
 3403TIP3    H134404   2.055   1.408   8.700  1.8238 -1.9551 -1.6353
 3403TIP3    H234405   1.922   1.342   8.730  0.1536  1.8034 -0.2560
 3404TIP3   OH234406   4.317   4.038   2.489 -0.0541 -0.0190  0.1995
 3404TIP3    H134407   4.244   4.099   2.476 -0.6829 -0.4563  1.4873
 3404TIP3    H234408   4.363   4.072   2.566  0.0614 -0.7151  0.4428
 3405TIP3   OH234409   5.512   6.856   9.966  0.2222  0.2507  0.2482
 3405TIP3    H134410   5.570   6.826  10.036  2.0296  0.2128 -1.2010
 3405TIP3    H234411   5.501   6.780   9.909 -0.1185  0.6651 -0.2444
 3406TIP3   OH234412   6.016   1.271   7.801  0.1316 -0.1269  0.0017
 3406TIP3    H134413   5.997   1.177   7.808  2.3446 -0.5411  1.6371
 3406TIP3    H234414   5.944   1.313   7.847  0.3578 -1.2293  1.4428
 3407TIP3   OH234415   6.456   2.540   1.911 -0.0633  0.5094 -0.4040
 3407TIP3    H134416   6.453   2.584   1.996  1.0000 -0.0843 -0.0381
 3407TIP3    H234417   6.544   2.502   1.906 -0.4932 -0.4457 -1.2782
 3408TIP3   OH234418   4.087   0.811   8.131  0.6487 -0.2223  0.0559
 3408TIP3    H134419   4.099   0.905   8.146 -0.9855  0.2830 -1.3498
 3408TIP3    H234420   4.032   0.782   8.204 -1.3103  0.6210 -0.9994
 3409TIP3   OH234421   1.656   5.851   8.007 -0.4604 -0.1333  0.3993
 3409TIP3    H134422   1.732   5.811   8.049  0.1308  0.7424  0.1893
 3409TIP3    H234423   1.618   5.907   8.074  0.5314  1.3267 -0.2240
 3410TIP3   OH234424   5.304   5.029   2.235  0.0284 -0.1546  0.4847
 3410TIP3    H134425   5.396   5.004   2.247  0.7047  2.5570  1.6667
 3410TIP3    H234426   5.257   4.981   2.303  0.5844 -1.4014  0.0104
 3411TIP3   OH234427   2.728   2.666   8.041 -0.1123  0.0872  0.2769
 3411TIP3    H134428   2.712   2.674   7.947  1.4850  0.1369 -0.0241
 3411TIP3    H234429   2.815   2.703   8.053 -0.6654  0.9489  1.9428
 3412TIP3   OH234430   5.609   4.490   0.387 -0.3361  0.2718 -0.6087
 3412TIP3    H134431   5.534   4.524   0.435  0.1110 -0.6060  0.7737
 3412TIP3    H234432   5.674   4.559   0.392 -0.3559  0.2570 -0.0750
 3413TIP3   OH234433   7.080   0.732   0.660  0.3172  0.2366 -0.4437
 3413TIP3    H134434   7.001   0.715   0.608 -0.0330  0.9611 -0.1583
 3413TIP3    H234435   7.059   0.811   0.710  0.3623 -0.8534  1.3829
 3414TIP3   OH234436   5.439   3.326   2.111  0.0228  0.2788 -0.3863
 3414TIP3    H134437   5.466   3.396   2.170 -0.6708 -0.6653  1.1146
 3414TIP3    H234438   5.403   3.371   2.035  1.6548  1.5389 -0.4777
 3415TIP3   OH234439   2.775   3.138   9.160  0.0593  0.3503  0.3226
 3415TIP3    H134440   2.820   3.145   9.077  1.1305 -2.9878  0.4854
 3415TIP3    H234441   2.789   3.223   9.203  3.2257  0.6581 -1.0922
 3416TIP3   OH234442   0.287   1.499   2.303  1.1374 -0.1879  0.4138
 3416TIP3    H134443   0.260   1.424   2.356 -0.9172  1.1528  1.3827
 3416TIP3    H234444   0.239   1.573   2.339  0.0735  0.9440 -2.9224
 3417TIP3   OH234445   7.034   6.701   8.968  0.6214  0.0778  0.1953
 3417TIP3    H134446   7.026   6.674   9.060  0.9848 -0.1844  0.1534
 3417TIP3    H234447   6.978   6.778   8.961  1.4953  0.8020  0.9171
 3418TIP3   OH234448   0.541   4.054   1.127  0.2167  0.0663  0.2967
 3418TIP3    H134449   0.605   4.126   1.129 -2.0562  2.3889 -2.2728
 3418TIP3    H234450   0.474   4.080   1.190 -1.6374  1.4163 -2.0814
 3419TIP3   OH234451   6.741   3.056   8.504 -0.1356  0.3609 -0.0365
 3419TIP3    H134452   6.714   3.142   8.536 -0.0979 -0.1018  1.3045
 3419TIP3    H234453   6.681   2.995   8.547 -0.1052 -0.2952 -0.9114
 3420TIP3   OH234454   0.058   1.741   0.210 -0.3485 -0.0898  0.3036
 3420TIP3    H134455  -0.025   1.711   0.248 -0.9859 -0.7191 -1.4798
 3420TIP3    H234456   0.069   1.687   0.132  0.3058  1.8930 -1.0501
 3421TIP3   OH234457   6.868   0.943   8.239 -0.3327  0.4505 -0.5195
 3421TIP3    H134458   6.954   0.914   8.270 -0.7399 -0.4116 -0.1678
 3421TIP3    H234459   6.875   1.038   8.235  0.8608  0.3503 -1.1703
 3422TIP3   OH234460   4.092   4.884   8.914 -0.1983  0.4040  0.2589
 3422TIP3    H134461   4.111   4.879   9.007 -0.2645 -1.3658  0.2041
 3422TIP3    H234462   4.177   4.896   8.873 -0.1353  0.8438  0.5049
 3423TIP3   OH234463   7.183   4.066   8.106 -0.0445 -0.1925  0.1195
 3423TIP3    H134464   7.152   4.069   8.196 -1.0677  0.2196 -0.2404
 3423TIP3    H234465   7.258   4.126   8.104 -0.0763 -0.1338  0.6595
 3424TIP3   OH234466   4.549   6.433   7.694 -0.0704  0.0804 -0.4989
 3424TIP3    H134467   4.485   6.387   7.639 -1.5349  1.8550 -0.4060
 3424TIP3    H234468   4.530   6.526   7.679  0.6177  0.6395  1.6968
 3425TIP3   OH234469   0.844   5.599   0.347 -0.6278  0.1220  0.4052
 3425TIP3    H134470   0.819   5.686   0.315  0.2009 -0.2258 -1.2790
 3425TIP3    H234471   0.934   5.610   0.378 -0.2296 -0.3068 -0.5759
 3426TIP3   OH234472   3.671   5.253   0.556 -0.1259 -0.2531 -0.1316
 3426TIP3    H134473   3.687   5.159   0.563  0.9638 -0.2381 -1.7408
 3426TIP3    H234474   3.758   5.292   0.565 -0.0312  0.3186 -2.8026
 3427TIP3   OH234475   5.180   0.510   9.552  0.2492 -0.1119 -0.2112
 3427TIP3    H134476   5.267   0.547   9.568  0.2710 -0.4186  0.3803
 3427TIP3    H234477   5.125   0.587   9.536  0.1320  0.2599  1.7988
 3428TIP3   OH234478   2.944   6.426   1.159  0.2706  0.2981 -0.0503
 3428TIP3    H134479   2.936   6.463   1.071 -2.6297  0.1542  0.0441
 3428TIP3    H234480   2.895   6.487   1.215 -0.1070 -0.9167  1.0054
 3429TIP3   OH234481   6.404   4.589   7.966 -0.1295  0.0688 -0.1590
 3429TIP3    H134482   6.316   4.565   7.938 -0.4012  0.4387  0.3710
 3429TIP3    H234483   6.449   4.505   7.977 -0.2017 -0.1061 -1.0800
 3430TIP3   OH234484   7.020   1.787   1.300 -0.3014  0.0457  0.0986
 3430TIP3    H134485   6.990   1.696   1.296  0.6996 -0.3800  1.4440
 3430TIP3    H234486   6.942   1.838   1.279 -1.1363 -1.1002  0.2740
 3431TIP3   OH234487   6.364   0.126   7.979 -0.3076  0.4122 -0.2638
 3431TIP3    H134488   6.379   0.036   7.950 -1.0214  0.5549 -1.1215
 3431TIP3    H234489   6.447   0.171   7.961 -0.5646  0.3800 -1.7021
 3432TIP3   OH234490   0.883   2.956   9.906  0.0775  0.4359  0.8696
 3432TIP3    H134491   0.814   3.002   9.860 -0.5015 -0.7448  0.5118
 3432TIP3    H234492   0.840   2.880   9.946  1.0348  0.0460  1.2148
 3433TIP3   OH234493   0.205   6.546   2.275 -0.0032  0.2564  0.1928
 3433TIP3    H134494   0.139   6.560   2.207 -1.4656 -1.4770  1.1586
 3433TIP3    H234495   0.160   6.569   2.357  1.0451  0.3200  0.7659
 3434TIP3   OH234496   1.867   5.474   2.222  0.3908 -0.4426  0.6565
 3434TIP3    H134497   1.879   5.382   2.199  0.5573 -0.4011  0.5789
 3434TIP3    H234498   1.800   5.473   2.291 -1.2932 -0.4448 -0.8885
 3435TIP3   OH234499   7.411   0.355   1.624  0.3499  0.3367  0.3901
 3435TIP3    H134500   7.433   0.303   1.547  0.0822  0.5704  0.1517
 3435TIP3    H234501   7.495   0.373   1.666  0.4592 -0.1382  0.3804
 3436TIP3   OH234502   7.160   0.249   8.681 -0.1404 -0.0281  0.4683
 3436TIP3    H134503   7.124   0.302   8.610 -0.5466 -0.7735  0.1025
 3436TIP3    H234504   7.247   0.286   8.697  0.6453 -0.8671 -1.5465
 3437TIP3   OH234505   4.766   6.964   9.169  0.5868 -0.2274  0.7211
 3437TIP3    H134506   4.850   6.987   9.129 -0.5446  2.5259 -0.3854
 3437TIP3    H234507   4.701   7.010   9.115 -2.2555 -5.7851 -1.3659
 3438TIP3   OH234508   0.960   6.302   0.797 -0.0127 -0.2265  0.3374
 3438TIP3    H134509   1.040   6.327   0.843  0.0168 -1.7047  1.1895
 3438TIP3    H234510   0.906   6.381   0.797  1.1373  0.5808  0.4246
 3439TIP3   OH234511   2.369   2.838   8.975  0.1453 -0.2536  0.3664
 3439TIP3    H134512   2.460   2.850   9.003  0.5731 -2.2142 -0.0411
 3439TIP3    H234513   2.319   2.840   9.056  0.3297  2.2963  0.4781
 3440TIP3   OH234514   0.975   6.468   7.245 -0.0480  0.0728 -0.2381
 3440TIP3    H134515   0.897   6.419   7.218 -0.9503  1.1978  0.2612
 3440TIP3    H234516   1.011   6.503   7.164 -0.8457  0.6544 -0.3575
 3441TIP3   OH234517   0.241   1.145   8.649  0.2342  0.4976  0.2758
 3441TIP3    H134518   0.199   1.099   8.722  0.1292  1.4434  0.8289
 3441TIP3    H234519   0.169   1.163   8.588  0.5689 -1.7058 -0.8719
 3442TIP3   OH234520   3.284   1.786   2.117 -0.2552  0.6862 -0.0430
 3442TIP3    H134521   3.303   1.743   2.034 -2.2472 -0.1698 -0.1065
 3442TIP3    H234522   3.255   1.874   2.093 -1.1206  0.3411 -0.3043
 3443TIP3   OH234523   4.238   4.329   8.602  0.5324 -0.1980  0.1463
 3443TIP3    H134524   4.191   4.348   8.683  1.8074  2.5892  0.3479
 3443TIP3    H234525   4.170   4.313   8.538 -0.8054  2.8351  0.6262
 3444TIP3   OH234526   1.549   4.253   7.487 -0.2161 -0.0021  0.3843
 3444TIP3    H134527   1.494   4.331   7.473 -0.5154 -0.2517  0.1477
 3444TIP3    H234528   1.512   4.187   7.428  1.0331  0.1541 -0.5995
 3445TIP3   OH234529   4.836   4.139   7.960 -0.0308 -0.5353  0.2455
 3445TIP3    H134530   4.921   4.178   7.980  0.6446 -2.5594  1.6459
 3445TIP3    H234531   4.819   4.080   8.033 -1.3217 -2.3060 -1.3781
 3446TIP3   OH234532   6.090   1.678   7.792  0.2140 -0.5756  0.3011
 3446TIP3    H134533   6.169   1.731   7.780 -0.9295  1.5070  1.3787
 3446TIP3    H234534   6.023   1.722   7.739 -0.1882 -2.5423 -0.9230
 3447TIP3   OH234535   3.354   2.982   8.497  0.2952  0.3993 -0.2612
 3447TIP3    H134536   3.425   2.970   8.434  0.5668 -1.4659  0.3209
 3447TIP3    H234537   3.347   3.077   8.508  2.4638  0.6509 -0.5922
 3448TIP3   OH234538   5.226   1.506   0.946  0.0719 -0.2267  0.3426
 3448TIP3    H134539   5.256   1.481   0.858 -0.4570 -0.4758  0.2278
 3448TIP3    H234540   5.146   1.454   0.960 -0.3285  0.4491  0.6232
 3449TIP3   OH234541   5.491   1.699   1.256 -0.0326  0.4842 -0.3480
 3449TIP3    H134542   5.414   1.737   1.300  0.9844  1.5690  0.5715
 3449TIP3    H234543   5.510   1.620   1.306 -0.6522  0.0971 -0.7045
 3450TIP3   OH234544   2.695   7.126   0.633 -0.2083 -0.2458  0.2933
 3450TIP3    H134545   2.674   7.101   0.544  1.8493 -0.4971 -0.1787
 3450TIP3    H234546   2.637   7.200   0.652 -0.5409 -0.0557 -1.3212
 3451TIP3   OH234547   6.186   4.601   1.187  0.1046  0.2819  0.0383
 3451TIP3    H134548   6.179   4.604   1.283  0.9587  1.3666  0.0855
 3451TIP3    H234549   6.183   4.692   1.160  1.9869  0.1373 -0.7823
 3452TIP3   OH234550   3.890   6.083   9.338 -0.4448 -0.1351  0.0655
 3452TIP3    H134551   3.843   6.166   9.332 -0.8361 -0.2880  0.8985
 3452TIP3    H234552   3.873   6.039   9.255 -0.2468  0.6072 -0.3750
 3453TIP3   OH234553   2.897   4.697   2.158 -0.3101 -0.6939  0.3231
 3453TIP3    H134554   2.884   4.784   2.119  0.2897 -0.9543 -0.4985
 3453TIP3    H234555   2.896   4.637   2.084  2.5541 -1.0335  0.4141
 3454TIP3   OH234556   0.233   2.455   8.685  0.1061 -0.3741  0.4936
 3454TIP3    H134557   0.235   2.478   8.592 -0.8411 -1.7318  0.1149
 3454TIP3    H234558   0.314   2.492   8.720 -1.7751  4.8132  0.3167
 3455TIP3   OH234559   5.614   5.797   7.923 -0.3228 -0.1863 -0.1961
 3455TIP3    H134560   5.644   5.825   8.009 -0.0247  0.1181 -0.3973
 3455TIP3    H234561   5.524   5.830   7.917 -1.4388 -2.7109  1.1685
 3456TIP3   OH234562   0.214   3.409   8.156 -0.0658 -0.1167  0.0776
 3456TIP3    H134563   0.281   3.477   8.163 -0.9802  1.0757 -2.0543
 3456TIP3    H234564   0.227   3.371   8.069 -2.5583  0.6699 -0.7314
 3457TIP3   OH234565   1.486   6.971   9.307  0.0241  0.2445 -0.4417
 3457TIP3    H134566   1.581   6.968   9.304  0.1873 -0.2483  2.4208
 3457TIP3    H234567   1.466   7.015   9.390 -2.2666  0.7733 -1.1975
 3458TIP3   OH234568   5.325   6.964   8.825  0.4100 -0.4290 -0.6427
 3458TIP3    H134569   5.304   7.053   8.796 -0.5540 -0.8881 -1.3907
 3458TIP3    H234570   5.243   6.916   8.818  0.6189 -1.0771  0.9789
 3459TIP3   OH234571   5.571   6.064   0.863  0.0579  0.4062  0.0022
 3459TIP3    H134572   5.625   6.079   0.786  0.4082  2.3177  0.5557
 3459TIP3    H234573   5.630   6.025   0.927  0.1225  0.1318 -0.2217
 3460TIP3   OH234574   3.557   4.776   8.194  0.0867  0.2124 -0.1155
 3460TIP3    H134575   3.519   4.809   8.275  0.2750 -3.0625  1.4919
 3460TIP3    H234576   3.647   4.753   8.218  0.6600  0.6590 -1.7234
 3461TIP3   OH234577   6.204   1.365   1.704  0.0359 -0.3597  0.5335
 3461TIP3    H134578   6.162   1.407   1.779 -2.5320 -2.5801  0.4819
 3461TIP3    H234579   6.241   1.284   1.739 -2.4561 -2.1604 -0.6899
 3462TIP3   OH234580   7.530   3.397   8.247 -0.0288 -0.1963  0.1014
 3462TIP3    H134581   7.522   3.490   8.268  2.2595 -0.1143  0.9954
 3462TIP3    H234582   7.508   3.352   8.328 -0.1956 -0.3741 -0.0435
 3463TIP3   OH234583   3.640   3.682   0.322 -0.0051  0.0210  0.1388
 3463TIP3    H134584   3.631   3.661   0.415  0.8697  1.3992  0.5656
 3463TIP3    H234585   3.583   3.619   0.277 -2.7567  1.1503  1.7999
 3464TIP3   OH234586   6.330   5.296   8.315  0.1053 -0.1795 -0.2858
 3464TIP3    H134587   6.347   5.223   8.255  1.9787  0.4169 -0.5423
 3464TIP3    H234588   6.389   5.365   8.287 -1.9054  1.6527 -0.3034
 3465TIP3   OH234589   5.300   6.890   0.591 -0.1781 -0.5155  0.5248
 3465TIP3    H134590   5.359   6.896   0.515 -0.9002  0.5568  0.0359
 3465TIP3    H234591   5.274   6.980   0.609 -1.5510 -0.9572  0.8337
 3466TIP3   OH234592   6.677   0.948   8.440 -0.1821 -0.4016  0.0991
 3466TIP3    H134593   6.745   0.900   8.393 -0.2533 -0.0865 -0.3287
 3466TIP3    H234594   6.607   0.885   8.452  0.1796 -0.7252  0.5304
 3467TIP3   OH234595   7.147   7.027   7.619  0.2549  0.1489  0.1567
 3467TIP3    H134596   7.052   7.034   7.614  0.3028  0.0948 -1.6347
 3467TIP3    H234597   7.163   6.948   7.669 -0.7067 -1.1043 -1.4173
 3468TIP3   OH234598   2.099   7.566   1.777 -0.4467 -1.1697  0.3260
 3468TIP3    H134599   2.104   7.643   1.720  0.2675 -0.7130  0.9928
 3468TIP3    H234600   2.081   7.601   1.864 -1.8028 -1.8865  0.3596
 3469TIP3   OH234601   7.676   2.660   0.968  0.2639 -0.2643  0.3556
 3469TIP3    H134602   7.731   2.589   0.936 -2.1337 -2.3989  0.6182
 3469TIP3    H234603   7.610   2.672   0.899  1.1846  2.5125 -0.1655
 3470TIP3   OH234604   7.035   6.441   0.913 -0.2420  0.6771  0.0372
 3470TIP3    H134605   7.003   6.452   1.003 -1.1925 -2.2188  0.1534
 3470TIP3    H234606   6.970   6.385   0.871  1.9813 -1.0255 -1.3420
 3471TIP3   OH234607   6.542   3.331   9.003 -0.4276 -0.0489  0.3027
 3471TIP3    H134608   6.463   3.368   8.965  0.2817  2.2137  0.8933
 3471TIP3    H234609   6.593   3.407   9.033  1.4748 -1.4755  0.9105
 3472TIP3   OH234610   7.145   2.115   1.949 -0.2351  0.2427  0.0336
 3472TIP3    H134611   7.077   2.101   1.882 -1.4200  0.6143  1.1132
 3472TIP3    H234612   7.101   2.164   2.018  0.6283 -1.0665  1.6002
 3473TIP3   OH234613   0.011   0.602   1.381  0.0874  0.8144  0.0955
 3473TIP3    H134614  -0.022   0.691   1.392  0.3221  0.6240  2.9719
 3473TIP3    H234615  -0.055   0.546   1.422  1.6837  0.0253  1.7213
 3474TIP3   OH234616   1.840   3.732   7.481  0.4356  0.3875 -0.3584
 3474TIP3    H134617   1.775   3.802   7.488  1.3374  1.2245 -0.0707
 3474TIP3    H234618   1.884   3.749   7.398 -0.0510 -0.4853 -0.8061
 3475TIP3   OH234619   0.183   0.824   0.518  0.2338  0.2598  0.4176
 3475TIP3    H134620   0.126   0.750   0.537 -2.4763  2.3617  1.1836
 3475TIP3    H234621   0.154   0.855   0.432  2.7434 -0.6871 -0.8776
 3476TIP3   OH234622   2.962   1.378   2.736  0.3043  0.3126 -0.2442
 3476TIP3    H134623   2.877   1.382   2.692  0.3995 -2.7903 -0.9185
 3476TIP3    H234624   3.026   1.377   2.665  0.7300 -0.2723  0.1472
 3477TIP3   OH234625   3.740   1.311   8.728 -0.0772 -0.1649 -0.8659
 3477TIP3    H134626   3.778   1.288   8.643  0.1577 -0.7266 -0.6183
 3477TIP3    H234627   3.688   1.234   8.752  1.8614 -1.0972  0.6430
 3478TIP3   OH234628   1.028   1.820   8.371  0.2254  0.1286  0.4227
 3478TIP3    H134629   1.052   1.901   8.327  1.8584 -0.4688  0.1204
 3478TIP3    H234630   1.034   1.840   8.464  2.4359 -0.0738  0.3752
 3479TIP3   OH234631   6.404   0.332   0.385  0.8382 -0.1040 -0.3268
 3479TIP3    H134632   6.482   0.276   0.386  0.9965  0.1185 -0.1861
 3479TIP3    H234633   6.371   0.328   0.475  0.5024 -0.4568 -0.4656
 3480TIP3   OH234634   1.118   4.206   8.403  0.1177 -0.6553 -0.0809
 3480TIP3    H134635   1.202   4.238   8.370  0.1403  1.5304  1.8427
 3480TIP3    H234636   1.124   4.110   8.395  1.3749 -0.4351 -3.1381
 3481TIP3   OH234637   2.082   2.013   7.770  0.1640  0.1834 -0.2659
 3481TIP3    H134638   2.148   1.983   7.832 -0.7017 -2.5114 -0.5055
 3481TIP3    H234639   2.106   1.970   7.687  0.2652  2.2559 -1.3719
 3482TIP3   OH234640   1.501   4.825   0.279 -0.3700  0.3903  0.2313
 3482TIP3    H134641   1.431   4.839   0.215 -1.0737 -0.7245  0.7181
 3482TIP3    H234642   1.463   4.765   0.343  0.9083  0.0770  0.7292
 3483TIP3   OH234643   6.491   2.629   1.103 -0.2310  0.3220  0.2523
 3483TIP3    H134644   6.507   2.718   1.072  0.4557  0.2145  0.2868
 3483TIP3    H234645   6.402   2.610   1.074 -0.6860  1.3040  0.9210
 3484TIP3   OH234646   2.613   0.293   1.452  0.4499  0.4961 -0.3416
 3484TIP3    H134647   2.604   0.301   1.357 -0.2042  0.3197 -0.2963
 3484TIP3    H234648   2.546   0.351   1.487 -2.3859 -2.6396 -0.0018
 3485TIP3   OH234649   0.933   4.644   7.735  0.1149  0.2057  0.3650
 3485TIP3    H134650   1.006   4.695   7.770  0.1058  0.5594 -0.1207
 3485TIP3    H234651   0.967   4.606   7.654  0.0834 -0.4707  0.6659
 3486TIP3   OH234652   2.072   3.005   9.708 -0.1472 -0.4139  0.1679
 3486TIP3    H134653   2.037   3.092   9.728  0.3538 -0.0560 -0.4700
 3486TIP3    H234654   2.000   2.960   9.665 -0.4448 -0.3582  0.5965
 3487TIP3   OH234655   4.200   4.190   0.966  1.1981  0.2928  0.2497
 3487TIP3    H134656   4.163   4.134   0.898  0.8372  0.2077  0.5105
 3487TIP3    H234657   4.246   4.259   0.919  0.9364  0.2453 -0.0770
 3488TIP3   OH234658   6.138   3.241   8.571 -0.1943  0.6390 -0.0189
 3488TIP3    H134659   6.141   3.189   8.490  0.5287  0.5471  0.0575
 3488TIP3    H234660   6.227   3.237   8.605 -0.8354 -0.6242  1.6285
 3489TIP3   OH234661   3.227   2.415   2.260  0.2189 -0.8086 -0.0058
 3489TIP3    H134662   3.309   2.378   2.227  1.2127  1.4082 -0.1635
 3489TIP3    H234663   3.159   2.362   2.217  1.5225 -2.2995 -0.3444
 3490TIP3   OH234664   1.472   0.392   9.697  0.6473  0.3971  0.2627
 3490TIP3    H134665   1.450   0.413   9.788 -1.8119  0.0814 -0.1713
 3490TIP3    H234666   1.529   0.316   9.702  0.9217  0.6757  1.5475
 3491TIP3   OH234667   7.382   0.822   1.036  0.3015  0.0085 -0.0855
 3491TIP3    H134668   7.457   0.763   1.041 -0.1203 -0.4595  1.3308
 3491TIP3    H234669   7.306   0.765   1.041 -0.1186  0.6151  0.6902
 3492TIP3   OH234670   4.049   1.236   7.945  0.0442 -0.2498 -1.0456
 3492TIP3    H134671   4.066   1.323   7.907  1.2275  0.1863  0.3942
 3492TIP3    H234672   4.009   1.255   8.030 -0.4087 -1.1594 -1.0443
 3493TIP3   OH234673   2.951   1.894   0.673 -0.1191  0.2535 -0.2691
 3493TIP3    H134674   2.977   1.843   0.750  1.6995 -1.0516 -1.6645
 3493TIP3    H234675   3.031   1.938   0.646 -0.9325  1.3382 -0.9675
 3494TIP3   OH234676   7.149   6.261   8.847  0.2938 -0.7445 -0.4181
 3494TIP3    H134677   7.202   6.286   8.771  0.0373  0.9236 -0.0847
 3494TIP3    H234678   7.081   6.328   8.851 -0.6480 -1.7224  0.3564
 3495TIP3   OH234679   4.053   5.450   9.206 -0.2707  0.0347 -0.4923
 3495TIP3    H134680   3.993   5.399   9.260 -0.8213 -0.6303 -1.6917
 3495TIP3    H234681   4.113   5.491   9.269 -1.0201 -0.5224  0.6220
 3496TIP3   OH234682   6.382   3.782   1.385 -0.2957  0.1429 -0.3936
 3496TIP3    H134683   6.411   3.865   1.347 -1.0384  0.5696 -0.0534
 3496TIP3    H234684   6.287   3.784   1.377 -0.3944 -0.2129  0.5386
 3497TIP3   OH234685   4.151   3.332   8.488 -0.3023 -0.0783  0.2012
 3497TIP3    H134686   4.229   3.299   8.444 -0.6448 -0.5516 -0.0619
 3497TIP3    H234687   4.084   3.265   8.471 -0.5995  0.0229  0.9334
 3498TIP3   OH234688   4.494   5.420   0.922 -0.0984  0.6312 -0.2600
 3498TIP3    H134689   4.553   5.495   0.913 -0.2731  1.0318  1.4845
 3498TIP3    H234690   4.406   5.458   0.911 -0.1416  0.5153 -0.3122
 3499TIP3   OH234691   1.037   5.705   2.553 -0.0025  0.4021  0.0002
 3499TIP3    H134692   0.993   5.639   2.606  0.5157 -0.7373 -0.9426
 3499TIP3    H234693   0.967   5.762   2.521 -0.7772 -1.1204 -1.1152
 3500TIP3   OH234694   3.636   6.926   6.822  0.6017 -0.4389 -0.2848
 3500TIP3    H134695   3.611   7.000   6.767  1.9909  0.3436  0.0855
 3500TIP3    H234696   3.553   6.890   6.853 -0.1088  1.1471 -0.2402
 3501TIP3   OH234697   7.536   6.134   0.513 -0.2845  0.5608 -0.2954
 3501TIP3    H134698   7.503   6.093   0.594 -0.1155  0.2006 -0.4049
 3501TIP3    H234699   7.478   6.100   0.445  0.8566 -0.8168 -0.6271
 3502TIP3   OH234700   4.265   0.019   9.738 -0.1759 -0.7666 -0.3298
 3502TIP3    H134701   4.273   0.114   9.730  0.6124 -0.6916  0.9623
 3502TIP3    H234702   4.194   0.006   9.801  0.3537 -0.9870  0.2344
 3503TIP3   OH234703   6.026   5.794   1.197 -0.0871 -0.1452  0.1128
 3503TIP3    H134704   6.048   5.827   1.284  0.4627  2.0554 -0.7849
 3503TIP3    H234705   6.106   5.750   1.168 -0.7043 -2.1081  1.1742
 3504TIP3   OH234706   1.878   6.823   9.761 -0.1625 -0.3560 -0.0648
 3504TIP3    H134707   1.844   6.751   9.813  0.7604 -0.4552  0.4288
 3504TIP3    H234708   1.814   6.835   9.691 -1.2876 -0.4056  0.9244
 3505TIP3   OH234709   5.654   6.537   1.135 -0.5178  0.5247  0.0588
 3505TIP3    H134710   5.690   6.460   1.178 -0.4464  1.6799  2.1944
 3505TIP3    H234711   5.608   6.585   1.204 -1.6589  1.7728 -1.4662
 3506TIP3   OH234712   3.275   7.419   9.105  0.0147  0.5416 -0.0512
 3506TIP3    H134713   3.325   7.391   9.182  0.8814  1.6405 -0.1940
 3506TIP3    H234714   3.188   7.438   9.139 -0.0382 -0.3985  0.3871
 3507TIP3   OH234715   6.907   2.554   1.092 -0.1910 -0.2463 -0.5237
 3507TIP3    H134716   6.848   2.511   1.154  1.1285 -2.2438 -0.5754
 3507TIP3    H234717   6.852   2.620   1.048 -1.6955 -0.2932  1.1861
 3508TIP3   OH234718   7.082   1.831   2.368 -0.5795 -0.4105  0.0196
 3508TIP3    H134719   7.143   1.831   2.442 -2.0297  2.4747  1.3475
 3508TIP3    H234720   7.099   1.913   2.322 -2.4297 -0.2676 -0.4750
 3509TIP3   OH234721   4.764   5.290   8.401 -0.0722  0.2289  0.7029
 3509TIP3    H134722   4.785   5.287   8.307 -1.2933  1.4060  0.3574
 3509TIP3    H234723   4.714   5.210   8.418 -0.9653  0.6272  0.0345
 3510TIP3   OH234724   7.237   3.652   9.323 -0.4246 -0.2356  0.6877
 3510TIP3    H134725   7.218   3.560   9.344 -0.5930 -0.1542  0.8989
 3510TIP3    H234726   7.278   3.687   9.402 -0.4638 -0.1003  0.6487
 3511TIP3   OH234727   1.069   0.188   9.243 -0.0329 -0.1117  0.4268
 3511TIP3    H134728   1.094   0.102   9.209  0.0592 -0.0163  0.2492
 3511TIP3    H234729   1.129   0.249   9.200  1.0263 -0.1236  1.8086
 3512TIP3   OH234730   0.482   5.858   7.814 -0.6782  0.3493  0.0172
 3512TIP3    H134731   0.462   5.770   7.847  0.2527  0.4882  0.9747
 3512TIP3    H234732   0.397   5.900   7.804 -1.0762 -0.3434  0.4496
 3513TIP3   OH234733   0.977   7.510   0.887  0.0724  0.1764  0.0030
 3513TIP3    H134734   0.947   7.473   0.970  3.7622  0.8389  1.8610
 3513TIP3    H234735   0.977   7.604   0.901  0.5489  0.3036 -0.8060
 3514TIP3   OH234736   4.683   1.374   8.326 -0.7712 -0.2349  0.1285
 3514TIP3    H134737   4.686   1.446   8.389 -0.7832 -0.1192 -0.0032
 3514TIP3    H234738   4.771   1.337   8.327 -0.8443 -0.4014  0.4101
 3515TIP3   OH234739   0.519   0.109   1.418 -0.4202  0.6403  0.2023
 3515TIP3    H134740   0.480   0.095   1.504  0.1042  0.2246  0.3802
 3515TIP3    H234741   0.529   0.204   1.411  0.6578  0.6205  1.1238
 3516TIP3   OH234742   3.647   4.315   9.520 -0.3688 -0.0678  0.5251
 3516TIP3    H134743   3.728   4.338   9.564  0.5668 -1.3065 -0.4839
 3516TIP3    H234744   3.622   4.394   9.471  0.0614  0.4043  1.0635
 3517TIP3   OH234745   1.397   5.085   2.108 -0.0845 -0.0844  0.2873
 3517TIP3    H134746   1.420   5.039   2.189 -1.2713  0.2268  0.8299
 3517TIP3    H234747   1.351   5.019   2.056 -0.6574  0.1221  0.5221
 3518TIP3   OH234748   4.963   4.234   2.117 -0.4068  0.3827  0.0557
 3518TIP3    H134749   5.005   4.246   2.202 -0.9593 -0.2054  0.4132
 3518TIP3    H234750   4.889   4.296   2.118 -1.3235 -0.6947  0.6181
 3519TIP3   OH234751   1.211   3.024   7.584 -0.7009  0.0322  0.5756
 3519TIP3    H134752   1.121   3.053   7.599 -0.7148 -0.1790  0.9114
 3519TIP3    H234753   1.265   3.093   7.623 -0.6487  1.3477 -1.6522
 3520TIP3   OH234754   0.947   1.089   1.261  0.1389  0.3106 -0.1603
 3520TIP3    H134755   0.980   1.127   1.179  0.0348  1.0649  0.1386
 3520TIP3    H234756   0.927   1.165   1.316  1.9281 -0.1871  1.2643
 3521TIP3   OH234757   2.156   4.450   1.759  1.0751  0.0625  0.1122
 3521TIP3    H134758   2.110   4.530   1.735 -0.7905 -0.8711  0.4617
 3521TIP3    H234759   2.126   4.430   1.848  1.6271 -0.9597  0.0919
 3522TIP3   OH234760   4.065   3.398   7.635 -0.3417 -0.1683  0.0117
 3522TIP3    H134761   4.146   3.365   7.674 -0.6401 -0.4913  0.3723
 3522TIP3    H234762   4.091   3.476   7.586  0.1443 -0.1164  0.3482
 3523TIP3   OH234763   5.853   3.967   1.496 -0.1521 -0.5946  0.1575
 3523TIP3    H134764   5.937   3.927   1.517 -0.3399 -1.9138 -1.4594
 3523TIP3    H234765   5.792   3.893   1.490 -1.0032  0.1560 -0.6295
 3524TIP3   OH234766   7.175   6.115   1.613 -0.4494  0.2836  0.2352
 3524TIP3    H134767   7.159   6.035   1.663  1.3602  0.8297  1.8118
 3524TIP3    H234768   7.248   6.094   1.555  0.0872  0.7852  0.7116
 3525TIP3   OH234769   1.304   6.735   0.098  0.7685 -0.3194  0.1697
 3525TIP3    H134770   1.366   6.768   0.033  0.5755 -2.0569 -0.9790
 3525TIP3    H234771   1.352   6.736   0.180  2.2464 -1.2998 -0.6332
 3526TIP3   OH234772   0.551   1.647   1.663  0.1020 -0.7779 -0.4839
 3526TIP3    H134773   0.495   1.708   1.615  1.5426  2.0530  1.1872
 3526TIP3    H234774   0.541   1.564   1.617 -0.7867  1.0424 -3.8689
 3527TIP3   OH234775   6.872   6.433   7.274  0.0537 -0.0127 -0.4212
 3527TIP3    H134776   6.887   6.460   7.364  1.5913  0.4617 -0.7926
 3527TIP3    H234777   6.873   6.514   7.224  2.8963 -0.4825 -1.3121
 3528TIP3   OH234778   5.736   0.466   2.157 -0.0622  0.0050  0.0909
 3528TIP3    H134779   5.682   0.456   2.078 -0.1438 -1.3759  0.2960
 3528TIP3    H234780   5.782   0.382   2.166 -1.5649 -0.6840  2.5893
 3529TIP3   OH234781   3.892   1.061   7.804  0.5965  0.3514 -0.2336
 3529TIP3    H134782   3.943   0.984   7.827  0.0253  0.3683  1.1470
 3529TIP3    H234783   3.943   1.135   7.838 -0.8871  0.2969  2.3166
 3530TIP3   OH234784   5.930   0.996   0.035 -0.2563 -0.0293  0.2816
 3530TIP3    H134785   5.965   0.942   0.106 -0.4537 -0.1490  0.2889
 3530TIP3    H234786   5.963   1.084   0.053  0.5563 -0.2574 -0.0564
 3531TIP3   OH234787   0.908   7.424   9.590 -0.0521 -0.3958  0.2636
 3531TIP3    H134788   0.900   7.365   9.666 -0.9832  0.7328  1.0814
 3531TIP3    H234789   0.939   7.368   9.519  0.0102 -1.6643  1.2554
 3532TIP3   OH234790   6.568   0.855   0.449 -0.6849 -0.7775  0.0023
 3532TIP3    H134791   6.536   0.776   0.405 -3.0703 -0.1346  0.4420
 3532TIP3    H234792   6.567   0.833   0.542 -2.0434 -0.0323  0.1804
 3533TIP3   OH234793   4.528   7.277   7.489  0.5455  0.0769  0.0863
 3533TIP3    H134794   4.621   7.274   7.467  0.5987  0.3602  0.2738
 3533TIP3    H234795   4.497   7.188   7.471  1.0358 -0.2536  0.8400
 3534TIP3   OH234796   1.284   6.592   9.625 -0.1176 -0.9887  0.6840
 3534TIP3    H134797   1.293   6.685   9.648  0.4520 -0.7981 -0.2623
 3534TIP3    H234798   1.265   6.549   9.708 -0.4895 -0.0147  1.1216
 3535TIP3   OH234799   3.976   1.040   2.088  0.4379 -0.6778 -0.1032
 3535TIP3    H134800   3.907   0.982   2.120  0.9590 -1.0896  0.3162
 3535TIP3    H234801   3.931   1.104   2.034 -0.1927 -1.3047 -0.3433
 3536TIP3   OH234802   4.292   7.598   8.980  0.0483  0.3849 -0.4267
 3536TIP3    H134803   4.259   7.536   9.045  0.5062 -0.5613 -1.0735
 3536TIP3    H234804   4.280   7.684   9.021  0.3238 -0.1812  0.9108
 3537TIP3   OH234805   4.215   4.065   7.026  0.7398  0.2739 -0.3981
 3537TIP3    H134806   4.168   4.007   6.966 -0.9380  2.1570 -1.0198
 3537TIP3    H234807   4.301   4.078   6.986 -0.4045  1.6389 -2.5812
 3538TIP3   OH234808   5.622   6.073   7.748 -0.0388  0.1782 -0.1219
 3538TIP3    H134809   5.669   6.067   7.665  1.0789  3.4497  0.1378
 3538TIP3    H234810   5.689   6.099   7.812 -1.1373 -0.9197  1.5716
 3539TIP3   OH234811   6.548   7.383   1.585 -0.0832  0.2539  0.8310
 3539TIP3    H134812   6.578   7.458   1.636 -0.0408  0.5840  0.3318
 3539TIP3    H234813   6.627   7.329   1.573 -0.1208  0.1097  1.2156
 3540TIP3   OH234814   3.771   2.545   8.104  0.0380 -1.2034 -0.2871
 3540TIP3    H134815   3.744   2.492   8.029  0.3366 -0.4883 -0.9134
 3540TIP3    H234816   3.709   2.618   8.105  0.2255 -1.0485 -0.0151
 3541TIP3   OH234817   5.819   0.029   9.269  0.1124  0.0036 -0.0409
 3541TIP3    H134818   5.906  -0.012   9.262 -0.5321 -1.4921  0.3726
 3541TIP3    H234819   5.773  -0.023   9.334 -0.8387  1.3000  0.3745
 3542TIP3   OH234820   5.924   2.562   9.818 -0.0105  0.2137 -0.2385
 3542TIP3    H134821   5.888   2.475   9.838  0.1721  0.3367  0.6890
 3542TIP3    H234822   5.852   2.609   9.778 -0.3859 -0.0846  0.0737
 3543TIP3   OH234823   3.434   6.650   8.186  0.3242 -0.0578  0.1303
 3543TIP3    H134824   3.373   6.723   8.190  0.5954  0.1559  0.4353
 3543TIP3    H234825   3.510   6.679   8.237  0.2099 -0.7545  0.7301
 3544TIP3   OH234826   3.902   5.271   9.385 -0.0645 -0.0521  0.1328
 3544TIP3    H134827   3.896   5.299   9.476  1.4229 -0.3730  0.3546
 3544TIP3    H234828   3.942   5.185   9.389  2.4678  0.9753 -0.9188
 3545TIP3   OH234829   1.616   0.397   7.969  0.9055 -0.1298  0.1596
 3545TIP3    H134830   1.711   0.389   7.955  1.1030 -1.3453  1.8697
 3545TIP3    H234831   1.581   0.313   7.942  0.2908  0.3592 -0.5709
 3546TIP3   OH234832   6.713   4.465   2.035 -0.4028 -0.3846 -0.7548
 3546TIP3    H134833   6.698   4.549   2.078  0.1766 -0.9562  0.6311
 3546TIP3    H234834   6.802   4.471   2.002 -0.0683 -0.7317  0.0580
 3547TIP3   OH234835   3.638   4.807   1.240  0.4594  0.4145 -0.2977
 3547TIP3    H134836   3.675   4.875   1.297  0.0844  1.2838 -1.0499
 3547TIP3    H234837   3.563   4.851   1.198 -1.6171 -1.3210  1.3463
 3548TIP3   OH234838   7.201   4.734   7.704 -0.2061  0.2479 -0.0652
 3548TIP3    H134839   7.151   4.769   7.778 -1.4385  1.1065 -1.2517
 3548TIP3    H234840   7.267   4.801   7.686  1.2083 -0.7267  1.2799
 3549TIP3   OH234841   3.896   7.524   7.713 -0.3035 -0.1989  0.1215
 3549TIP3    H134842   3.985   7.552   7.691  0.3920 -1.5670  0.9935
 3549TIP3    H234843   3.879   7.565   7.798 -0.9360  0.9016 -0.5210
 3550TIP3   OH234844   3.695   6.736   9.583  0.0749 -0.4653 -0.1403
 3550TIP3    H134845   3.754   6.784   9.640  0.3467  0.9064 -1.5051
 3550TIP3    H234846   3.688   6.649   9.623 -0.2645  0.6006  2.2844
 3551TIP3   OH234847   2.074   3.498   9.328 -0.2455 -0.3577 -0.3314
 3551TIP3    H134848   2.056   3.573   9.385 -1.3555 -1.0848  0.3219
 3551TIP3    H234849   2.112   3.433   9.387  0.0649 -0.5636 -0.7561
 3552TIP3   OH234850   3.304   5.889   2.241 -0.6065  0.0377 -0.1690
 3552TIP3    H134851   3.342   5.802   2.227 -1.1763 -0.1212 -0.7385
 3552TIP3    H234852   3.231   5.894   2.180 -1.7992  0.1693  1.2067
 3553TIP3   OH234853   5.420   3.401   1.666 -0.1653  0.0399  0.6240
 3553TIP3    H134854   5.510   3.372   1.680  0.0232  1.2205  2.2629
 3553TIP3    H234855   5.419   3.437   1.577  1.0848  0.2940  0.6955
 3554TIP3   OH234856   0.643   6.904   7.046  0.4862  0.9591  0.1592
 3554TIP3    H134857   0.735   6.901   7.072  0.0084 -0.3550  1.8237
 3554TIP3    H234858   0.600   6.955   7.114 -0.5810 -1.5351  1.5083
 3555TIP3   OH234859   1.751   1.786   8.789 -0.2248 -0.1450  0.4076
 3555TIP3    H134860   1.810   1.711   8.782 -0.7426 -0.5069 -0.2986
 3555TIP3    H234861   1.664   1.749   8.775 -0.5725  0.4534  0.9634
 3556TIP3   OH234862   3.897   0.250   0.319 -0.1954  0.4262  0.1256
 3556TIP3    H134863   3.899   0.292   0.405  0.4259  1.5389 -0.4105
 3556TIP3    H234864   3.966   0.294   0.269 -0.6485 -0.0930 -0.9970
 3557TIP3   OH234865   5.529   2.213   9.825 -0.0846  0.9745 -0.2021
 3557TIP3    H134866   5.504   2.150   9.758 -0.3872  0.9810 -0.0994
 3557TIP3    H234867   5.445   2.243   9.862  0.0953 -0.1168  1.1858
 3558TIP3   OH234868   7.271   2.043   9.232  0.2866  0.1244  0.3658
 3558TIP3    H134869   7.307   1.970   9.181  1.8160  0.4374  0.9292
 3558TIP3    H234870   7.347   2.080   9.277 -0.7815  0.7993  1.6912
 3559TIP3   OH234871   6.527   4.304   2.133  0.0552  0.1469 -0.1283
 3559TIP3    H134872   6.611   4.348   2.117 -0.5066  1.2341 -0.1932
 3559TIP3    H234873   6.551   4.222   2.176  1.0432  1.6432  2.4510
 3560TIP3   OH234874   1.444   1.477   1.070  0.1575  0.8214 -0.5359
 3560TIP3    H134875   1.425   1.476   1.163  0.9668  0.6672 -0.3668
 3560TIP3    H234876   1.445   1.570   1.046 -0.2995  0.8517 -0.4538
 3561TIP3   OH234877   6.513   5.473   8.168 -0.0752  0.2726  0.5327
 3561TIP3    H134878   6.461   5.508   8.096  0.4801 -0.4537 -0.2419
 3561TIP3    H234879   6.603   5.478   8.136  0.0390 -1.6234  0.4836
 3562TIP3   OH234880   5.002   2.503   2.016  0.5049  0.0101  0.4727
 3562TIP3    H134881   4.983   2.503   2.110  1.8056  2.2052  0.8015
 3562TIP3    H234882   4.917   2.495   1.974 -0.1976 -0.0068  1.8431
 3563TIP3   OH234883   2.614   0.080   0.571  0.3573 -0.2903  0.1131
 3563TIP3    H134884   2.641  -0.011   0.584  1.4951 -0.1096 -0.7919
 3563TIP3    H234885   2.694   0.125   0.545 -0.6217  0.4664 -1.8400
 3564TIP3   OH234886   2.089   3.094   8.594 -0.7503 -0.3892  0.1526
 3564TIP3    H134887   2.140   3.094   8.675 -1.9342 -0.4172  0.9157
 3564TIP3    H234888   2.049   3.007   8.591  0.0494 -0.7371 -0.9737
 3565TIP3   OH234889   6.891   7.388   8.317  0.3041  0.1778 -0.4540
 3565TIP3    H134890   6.942   7.315   8.352  0.2560 -0.3943 -1.5253
 3565TIP3    H234891   6.956   7.457   8.302  0.2843  0.5326  0.9614
 3566TIP3   OH234892   0.750   4.070   1.427  0.1322  0.1273  0.0029
 3566TIP3    H134893   0.708   4.089   1.343  0.7134 -2.3192 -0.9234
 3566TIP3    H234894   0.827   4.127   1.429 -1.3115  2.1976  0.1841
 3567TIP3   OH234895   2.562   2.373   3.092 -0.0515  0.4355  0.3656
 3567TIP3    H134896   2.622   2.363   3.166 -0.2265 -0.9185  0.3544
 3567TIP3    H234897   2.574   2.464   3.063  1.0051  0.5814  1.1980
 3568TIP3   OH234898   6.954   3.237   0.341 -0.3222  0.0047 -0.0368
 3568TIP3    H134899   6.996   3.254   0.425 -0.7968  2.0393 -0.1408
 3568TIP3    H234900   6.868   3.202   0.363  0.4828 -1.8688  0.2339
 3569TIP3   OH234901   3.736   1.283   9.610  0.1498  0.2395 -0.0245
 3569TIP3    H134902   3.739   1.242   9.524  0.6860 -0.8414  0.4915
 3569TIP3    H234903   3.778   1.368   9.598  0.5800 -0.0693 -0.7455
 3570TIP3   OH234904   1.486   5.283   7.254 -0.2269 -0.3036 -0.3847
 3570TIP3    H134905   1.424   5.318   7.319 -0.8492 -3.2466  0.7683
 3570TIP3    H234906   1.524   5.206   7.297  4.4007  1.3213 -1.0041
 3571TIP3   OH234907   1.476   7.015   9.589  0.2321  0.1951  0.9784
 3571TIP3    H134908   1.414   6.942   9.597  0.0631  0.3535  1.1237
 3571TIP3    H234909   1.423   7.093   9.604  0.3704  0.3635  0.6002
 3572TIP3   OH234910   6.174   7.464   1.661 -0.4070  0.0884  0.1316
 3572TIP3    H134911   6.117   7.537   1.684 -3.5554 -1.7881 -1.1280
 3572TIP3    H234912   6.192   7.477   1.568  1.4008  0.7043  0.5308
 3573TIP3   OH234913   5.922   6.430   7.295  0.7377 -0.8781 -0.2167
 3573TIP3    H134914   6.004   6.385   7.317  0.4173 -1.2388  0.2510
 3573TIP3    H234915   5.944   6.523   7.300  0.8535 -0.9540  0.9657
 3574TIP3   OH234916   4.408   1.500   1.858  0.3630  0.2436 -0.3319
 3574TIP3    H134917   4.452   1.456   1.785 -0.4245 -1.4517  0.1682
 3574TIP3    H234918   4.427   1.445   1.934 -1.5331  0.1587  0.1338
 3575TIP3   OH234919   5.995   3.100   0.855  0.3544  0.0888 -0.5735
 3575TIP3    H134920   5.983   3.162   0.927 -0.6766  0.3020 -0.9060
 3575TIP3    H234921   5.995   3.154   0.777 -0.5636 -0.3155 -0.8679
 3576TIP3   OH234922   4.265   5.509   2.179 -0.0991  0.4829 -0.0016
 3576TIP3    H134923   4.350   5.496   2.221  1.1960  0.9017 -2.2873
 3576TIP3    H234924   4.264   5.601   2.155 -1.1797  0.4624 -0.0840
 3577TIP3   OH234925   1.254   1.997   1.907  0.3065  0.8463 -0.1048
 3577TIP3    H134926   1.164   2.027   1.896  0.2988  0.5236 -1.0448
 3577TIP3    H234927   1.247   1.904   1.926  0.4261  0.8892  0.1438
 3578TIP3   OH234928   5.997   3.195   8.796  0.0116 -0.3916 -0.4212
 3578TIP3    H134929   6.063   3.232   8.737 -0.8631 -0.4042 -1.4314
 3578TIP3    H234930   5.914   3.211   8.752 -0.6312 -0.7872  0.6212
 3579TIP3   OH234931   3.592   5.443   7.068 -0.1467 -0.2442  0.2493
 3579TIP3    H134932   3.677   5.461   7.109 -0.4983  1.1978  0.4213
 3579TIP3    H234933   3.549   5.529   7.065 -2.0340 -1.0965  1.1568
 3580TIP3   OH234934   3.705   4.834   0.713 -0.2132 -0.2189 -0.1959
 3580TIP3    H134935   3.621   4.870   0.742 -0.9318 -1.0453 -1.1936
 3580TIP3    H234936   3.742   4.902   0.657  1.4580  1.6613  2.8583
 3581TIP3   OH234937   2.274   6.216   8.237 -0.1049 -0.5307 -0.6573
 3581TIP3    H134938   2.200   6.155   8.232 -1.2128  0.5033  1.5500
 3581TIP3    H234939   2.236   6.297   8.271  1.9755  0.1259  0.2548
 3582TIP3   OH234940   6.626   3.983   0.523  0.7435 -0.1409 -0.2790
 3582TIP3    H134941   6.623   3.986   0.428  0.5835  1.4300 -0.2486
 3582TIP3    H234942   6.535   3.976   0.550  0.6930  0.6234 -0.2306
 3583TIP3   OH234943   3.789   0.430   2.540 -0.5516  0.0104 -0.2044
 3583TIP3    H134944   3.815   0.338   2.546  0.5903  0.3823  0.9562
 3583TIP3    H234945   3.752   0.450   2.626  2.8356  1.6426  1.0479
 3584TIP3   OH234946   2.443   0.496   9.124  0.5133  0.4687  0.6538
 3584TIP3    H134947   2.394   0.423   9.085  1.3110 -0.1312  0.7477
 3584TIP3    H234948   2.506   0.454   9.183  1.6496  1.1654 -0.0313
 3585TIP3   OH234949   6.840   1.950   9.808 -0.0104  0.3854  0.0219
 3585TIP3    H134950   6.774   2.013   9.781  0.6785  1.3046  0.4237
 3585TIP3    H234951   6.799   1.903   9.881 -0.6234  0.1883 -0.4413
 3586TIP3   OH234952   1.621   3.498   0.218  0.3139 -0.5283  0.1621
 3586TIP3    H134953   1.709   3.500   0.256  0.1028 -0.7385  0.6652
 3586TIP3    H234954   1.632   3.456   0.133  0.4924 -1.7357  0.7679
 3587TIP3   OH234955   4.098   2.842   8.634  0.5568  0.1978 -0.2186
 3587TIP3    H134956   4.053   2.781   8.692  1.5720  0.4659  0.8862
 3587TIP3    H234957   4.126   2.789   8.560 -0.4925 -0.2123 -0.3316
 3588TIP3   OH234958   4.358   1.690   1.370  0.0601 -0.6973 -0.0361
 3588TIP3    H134959   4.419   1.630   1.328 -0.4359  0.0235 -1.8734
 3588TIP3    H234960   4.271   1.655   1.351 -0.1975 -1.7878  2.6741
 3589TIP3   OH234961   3.526   6.841   7.913 -0.1617 -0.0029 -0.3376
 3589TIP3    H134962   3.587   6.893   7.965 -0.5995 -0.5787  0.7742
 3589TIP3    H234963   3.446   6.837   7.965 -0.1278 -1.8464 -0.3480
 3590TIP3   OH234964   1.731   5.487   8.272 -0.1022  0.4414  0.3649
 3590TIP3    H134965   1.784   5.565   8.254  1.5909 -1.3127 -2.9072
 3590TIP3    H234966   1.662   5.489   8.205  0.3348 -1.1588 -0.1637
 3591TIP3   OH234967   6.858   6.253   8.980  0.1225  0.7196 -0.0832
 3591TIP3    H134968   6.889   6.253   8.890 -2.0699  0.4002 -0.9084
 3591TIP3    H234969   6.813   6.338   8.990 -1.6993 -0.1955 -0.1081
 3592TIP3   OH234970   2.881   2.427   2.484  0.1303 -0.1692 -0.4831
 3592TIP3    H134971   2.923   2.496   2.535  0.5210 -0.7036 -0.0655
 3592TIP3    H234972   2.897   2.347   2.535  0.3040 -0.6709 -1.3132
 3593TIP3   OH234973   6.000   4.811   8.557  0.5716  0.5360 -0.5515
 3593TIP3    H134974   5.958   4.795   8.472  0.1568  0.8559 -0.4107
 3593TIP3    H234975   6.086   4.770   8.549 -0.5440 -2.1035 -0.0910
 3594TIP3   OH234976   0.111   1.212   0.904 -0.2205 -0.0428 -0.1942
 3594TIP3    H134977   0.093   1.119   0.895 -2.3681  0.3196 -0.2101
 3594TIP3    H234978   0.116   1.244   0.814 -0.6473  0.0372 -0.1928
 3595TIP3   OH234979   5.312   3.766   1.168 -0.3111  0.2902  0.2235
 3595TIP3    H134980   5.374   3.836   1.147  2.3110 -1.9633 -0.0461
 3595TIP3    H234981   5.278   3.738   1.083  0.7736 -0.5564  0.0479
 3596TIP3   OH234982   3.450   4.965   0.105  0.7183  0.2930 -0.0314
 3596TIP3    H134983   3.417   4.886   0.061 -2.2037  1.3142  0.0735
 3596TIP3    H234984   3.409   5.037   0.058  0.3680  1.5651  2.0770
 3597TIP3   OH234985   1.937   2.801   1.517 -0.1565  0.1971 -0.0302
 3597TIP3    H134986   1.983   2.744   1.579  0.2221 -0.0779 -0.5588
 3597TIP3    H234987   1.879   2.743   1.469 -0.3997  0.3994  0.0196
 3598TIP3   OH234988   3.353   5.635   2.628 -0.5262  0.6807  0.0975
 3598TIP3    H134989   3.383   5.643   2.719  1.4387  0.2983 -0.4638
 3598TIP3    H234990   3.320   5.722   2.606 -0.1578  1.0377  0.9119
 3599TIP3   OH234991   4.759   4.320   1.599 -0.5955  0.0766 -0.3626
 3599TIP3    H134992   4.706   4.239   1.603  0.0876 -0.3589 -0.0089
 3599TIP3    H234993   4.733   4.369   1.677  1.7191 -1.5498  1.6002
 3600TIP3   OH234994   6.362   3.466   1.600 -0.1193 -0.0007 -0.2032
 3600TIP3    H134995   6.404   3.380   1.596 -0.2610 -0.0442 -1.0898
 3600TIP3    H234996   6.368   3.492   1.692  0.4376 -0.7008 -0.0328
 3601TIP3   OH234997   6.510   2.082   0.451  0.0037  0.3873  0.3912
 3601TIP3    H134998   6.497   1.998   0.407 -0.8810  1.2469 -1.0753
 3601TIP3    H234999   6.494   2.147   0.383 -0.2098  1.7672  1.7111
 3602TIP3   OH235000   1.849   5.577   7.939  0.1983  0.1665 -0.0905
 3602TIP3    H135001   1.848   5.630   8.018  1.4992 -0.8051  0.6129
 3602TIP3    H235002   1.779   5.513   7.952 -0.0080  0.4100 -0.0105
 3603TIP3   OH235003   6.313   2.541   7.949 -1.0739  0.0550 -0.0181
 3603TIP3    H135004   6.310   2.637   7.951  0.6064  0.1194  0.9623
 3603TIP3    H235005   6.396   2.520   7.906  0.1497 -0.8726  2.5686
 3604TIP3   OH235006   2.612   3.794   1.078  0.5691  0.0689  0.0246
 3604TIP3    H135007   2.635   3.826   0.990  0.1232 -0.0840 -0.1535
 3604TIP3    H235008   2.644   3.704   1.080 -0.4755 -0.3339 -0.4280
 3605TIP3   OH235009   1.227   4.019   1.161  0.0721 -0.1284 -0.4291
 3605TIP3    H135010   1.172   4.094   1.141 -1.1430 -0.5346  1.2029
 3605TIP3    H235011   1.232   4.017   1.257  2.2885 -0.5934 -0.4865
 3606TIP3   OH235012   3.941   1.685   1.130  0.4918 -0.3765  0.1051
 3606TIP3    H135013   4.013   1.635   1.168  0.5353 -0.4391 -0.0573
 3606TIP3    H235014   3.981   1.767   1.102  0.3788 -0.1644  0.5613
 3607TIP3   OH235015   0.018   1.879   9.347  0.4732  0.6471  0.5379
 3607TIP3    H135016   0.057   1.890   9.433 -2.4338 -0.2454  2.1160
 3607TIP3    H235017   0.073   1.814   9.303  1.4783  0.4078  2.1012
 3608TIP3   OH235018   4.283   2.278   8.021  0.0603  0.7477 -0.2986
 3608TIP3    H135019   4.282   2.194   7.976  0.3884 -0.4824  1.8443
 3608TIP3    H235020   4.191   2.304   8.025 -0.3711 -0.7853  1.1434
 3609TIP3   OH235021   1.932   2.716   0.693 -0.3384 -0.0835 -0.1910
 3609TIP3    H135022   1.922   2.810   0.709 -0.4178  0.0349 -0.9119
 3609TIP3    H235023   2.006   2.710   0.632 -0.1332 -0.5165  0.0917
 3610TIP3   OH235024   2.028   6.695   7.618  0.5163 -0.4081 -0.4226
 3610TIP3    H135025   1.941   6.656   7.634  1.8114 -2.5743  2.2911
 3610TIP3    H235026   2.009   6.785   7.593 -2.5226 -0.4373  1.2401
 3611TIP3   OH235027   5.896   5.827   2.323  0.1767  0.0380  0.1941
 3611TIP3    H135028   5.804   5.841   2.301 -0.4994 -1.0405  2.1522
 3611TIP3    H235029   5.913   5.888   2.395  0.7837 -0.2943  0.3410
 3612TIP3   OH235030   6.686   4.721   2.155  0.0444 -0.8667 -0.1430
 3612TIP3    H135031   6.773   4.754   2.178 -0.2126 -1.1969  1.4559
 3612TIP3    H235032   6.634   4.799   2.139  0.6162 -0.6650 -1.1049
 3613TIP3   OH235033   5.470   4.280   1.217 -0.8849  0.7228  0.1941
 3613TIP3    H135034   5.532   4.235   1.274  0.3927  0.1456 -1.5784
 3613TIP3    H235035   5.516   4.360   1.190 -1.7911  1.3946  0.5814
 3614TIP3   OH235036   7.054   1.042   0.228  0.0671 -0.2525  0.4340
 3614TIP3    H135037   7.033   1.024   0.319 -2.1253  1.2114  0.3143
 3614TIP3    H235038   7.100   0.964   0.197  1.1644 -0.6317  2.8453
 3615TIP3   OH235039   6.643   5.494   1.309 -0.2173  0.2031  0.2744
 3615TIP3    H135040   6.730   5.468   1.279 -1.4323 -1.5611 -2.0822
 3615TIP3    H235041   6.643   5.472   1.403  1.8231  0.2170  0.3274
 3616TIP3   OH235042   2.883   1.025   1.682 -0.3568  0.4154  0.3757
 3616TIP3    H135043   2.898   0.931   1.695 -0.5140  0.0739 -1.5336
 3616TIP3    H235044   2.787   1.034   1.686 -0.4358  0.2365 -0.7414
 3617TIP3   OH235045   6.654   3.831   8.461  0.2316  0.3193  0.2493
 3617TIP3    H135046   6.726   3.820   8.398 -0.1764 -0.8653 -0.0480
 3617TIP3    H235047   6.698   3.847   8.544  0.7767  2.1452 -0.3490
 3618TIP3   OH235048   4.059   4.532   7.740  0.6508  0.4192  0.4746
 3618TIP3    H135049   4.021   4.508   7.824  2.3932 -1.9469  0.6629
 3618TIP3    H235050   3.993   4.506   7.676 -0.7129  2.2888  1.0052
 3619TIP3   OH235051   4.232   4.968   9.165  0.0068  0.1030  0.1101
 3619TIP3    H135052   4.177   4.980   9.242 -1.6363  0.8535 -1.1359
 3619TIP3    H235053   4.212   5.042   9.109  0.5737 -0.8349 -1.3954
 3620TIP3   OH235054   2.881   4.410   1.255 -0.6990  0.7478 -0.4707
 3620TIP3    H135055   2.882   4.338   1.191 -1.7403  2.0014 -1.9757
 3620TIP3    H235056   2.800   4.395   1.305  0.3250 -0.4691  0.9002
 3621TIP3   OH235057   2.781   3.702   2.162 -0.6644  0.2974 -0.3187
 3621TIP3    H135058   2.749   3.781   2.204  2.3557  1.1978  0.5258
 3621TIP3    H235059   2.839   3.733   2.092 -1.5341 -1.2070 -1.8023
 3622TIP3   OH235060   2.596   1.194   0.418  0.1490  0.0058 -0.0256
 3622TIP3    H135061   2.538   1.194   0.342 -0.2417 -0.1657  0.2690
 3622TIP3    H235062   2.640   1.109   0.416 -2.2196 -1.3743  1.7006
 3623TIP3   OH235063   3.396   2.654   2.033  0.2224  0.1264 -0.5095
 3623TIP3    H135064   3.487   2.664   2.062 -0.0162  0.9582  0.0143
 3623TIP3    H235065   3.346   2.652   2.114 -0.2051 -0.6907 -0.7876
 3624TIP3   OH235066   1.749   5.398   0.628  0.2700  0.0415 -0.4582
 3624TIP3    H135067   1.773   5.321   0.575  2.6861 -1.3352  2.3051
 3624TIP3    H235068   1.671   5.370   0.676 -0.2730  0.2589 -1.1914
 3625TIP3   OH235069   1.762   7.304   8.498 -0.7732  0.0579  0.0340
 3625TIP3    H135070   1.696   7.278   8.562 -2.0416 -1.2266 -1.7034
 3625TIP3    H235071   1.804   7.223   8.471 -0.1679  0.5812 -0.6551
 3626TIP3   OH235072   5.980   6.777   0.213  0.2809  0.5484  0.5662
 3626TIP3    H135073   5.994   6.860   0.258  2.0084  0.4861  0.2249
 3626TIP3    H235074   5.959   6.802   0.123  1.0032  0.6418  0.4131
 3627TIP3   OH235075   4.056   0.044   1.205 -0.7379  0.1149 -0.2718
 3627TIP3    H135076   4.105   0.063   1.285 -0.0453 -0.2515 -0.5930
 3627TIP3    H235077   4.054  -0.051   1.200 -0.3773  0.1296 -0.9124
 3628TIP3   OH235078   3.449   0.520   0.364 -0.0611 -0.0466 -0.3704
 3628TIP3    H135079   3.483   0.442   0.319  0.1608  1.0298 -2.1614
 3628TIP3    H235080   3.463   0.591   0.302 -0.9866  1.3002  0.9074
 3629TIP3   OH235081   1.537   3.913   2.048 -0.3269  0.2739 -0.1971
 3629TIP3    H135082   1.514   3.822   2.066 -0.3558  0.8481  3.3571
 3629TIP3    H235083   1.577   3.911   1.961 -0.5764 -3.0559 -0.3530
 3630TIP3   OH235084   1.156   6.897   8.797  0.1500 -0.0775  1.1144
 3630TIP3    H135085   1.190   6.821   8.750  1.1336  0.0479  1.5855
 3630TIP3    H235086   1.216   6.968   8.773 -0.8715  0.6040  0.5218
 3631TIP3   OH235087   0.670   3.690   0.174 -0.2723  0.0028  0.5274
 3631TIP3    H135088   0.635   3.778   0.158 -1.3344 -0.6572 -1.0525
 3631TIP3    H235089   0.703   3.661   0.088  0.0252 -1.1597  1.0078
 3632TIP3   OH235090   0.023   6.865   0.943 -0.1595 -0.4926  0.0041
 3632TIP3    H135091   0.001   6.952   0.908 -2.1644 -1.5393 -1.5092
 3632TIP3    H235092  -0.048   6.844   1.003  0.6313 -0.8794  0.8372
 3633TIP3   OH235093   2.183   3.908   0.688 -0.2318  0.3277  0.4344
 3633TIP3    H135094   2.260   3.908   0.745 -0.1820 -0.8723  0.3859
 3633TIP3    H235095   2.130   3.834   0.719 -0.2550 -0.2818 -0.9958
 3634TIP3   OH235096   0.359   5.787   8.664 -0.3112  0.3834 -0.7534
 3634TIP3    H135097   0.303   5.864   8.675  0.6268  1.1880 -1.4638
 3634TIP3    H235098   0.445   5.815   8.693  0.0580 -0.3900 -1.0749
 3635TIP3   OH235099   7.285   4.463   7.922 -0.2933 -1.0747  0.1363
 3635TIP3    H135100   7.196   4.498   7.928  0.0058 -0.1331 -0.5516
 3635TIP3    H235101   7.274   4.368   7.919 -1.2549 -0.9791  0.3913
 3636TIP3   OH235102   7.265   2.765   9.420 -0.1622  0.1188 -0.2689
 3636TIP3    H135103   7.258   2.749   9.326  0.2869 -1.6089 -0.0404
 3636TIP3    H235104   7.247   2.859   9.430  1.4747  0.7207 -2.2606
 3637TIP3   OH235105   3.727   4.025   7.511 -0.1288  0.0438 -0.5226
 3637TIP3    H135106   3.689   3.980   7.587  1.2361 -0.1274  0.0735
 3637TIP3    H235107   3.691   4.114   7.515  0.1559  0.1200  0.4802
 3638TIP3   OH235108   0.989   1.735   0.421  0.1735 -0.7368  0.5757
 3638TIP3    H135109   1.084   1.733   0.434  0.2873  0.0425 -0.0707
 3638TIP3    H235110   0.966   1.646   0.395  0.6245 -1.1053  1.3932
 3639TIP3   OH235111   1.245   7.112   9.259  0.7681 -0.4744 -0.7506
 3639TIP3    H135112   1.177   7.049   9.236 -1.1186  0.3152  2.1352
 3639TIP3    H235113   1.324   7.059   9.270 -0.6037 -2.3144  0.9672
 3640TIP3   OH235114   7.107   6.293   7.811  0.3672 -0.2465 -0.2479
 3640TIP3    H135115   7.022   6.327   7.781 -0.6546 -3.0777 -0.8064
 3640TIP3    H235116   7.153   6.272   7.730  1.2172  0.2917  0.0819
 3641TIP3   OH235117   5.459   6.280   9.362 -0.0289  0.1229 -0.2155
 3641TIP3    H135118   5.493   6.297   9.274  0.5061  0.3195  0.0227
 3641TIP3    H235119   5.430   6.189   9.359  1.3532 -0.3482 -0.1843
 3642TIP3   OH235120   6.498   1.172   8.348  0.0046  0.5403  0.5878
 3642TIP3    H135121   6.579   1.199   8.391  0.3612 -0.8499  0.8149
 3642TIP3    H235122   6.524   1.155   8.258  0.0079 -0.0402  0.6937
 3643TIP3   OH235123   3.591   6.326   7.323  0.2925  0.6841 -0.1050
 3643TIP3    H135124   3.518   6.357   7.268 -1.5230 -0.3489  1.5709
 3643TIP3    H235125   3.605   6.236   7.295 -0.5593  0.1918  0.9726
 3644TIP3   OH235126   4.446   5.188   8.551  0.0871  0.3509  0.4084
 3644TIP3    H135127   4.406   5.162   8.468  0.6059  1.2039 -0.1222
 3644TIP3    H235128   4.489   5.271   8.532  2.4334 -0.6695  0.8451
 3645TIP3   OH235129   0.120   2.357   2.222 -0.1391  0.2408  0.7584
 3645TIP3    H135130   0.171   2.427   2.184 -0.8121 -1.1867 -3.2184
 3645TIP3    H235131   0.043   2.400   2.259  1.2425  1.8477  1.8945
 3646TIP3   OH235132   0.568   2.114   1.219 -0.3425  0.5235  0.4249
 3646TIP3    H135133   0.523   2.033   1.193  1.3543 -0.5679  0.7320
 3646TIP3    H235134   0.534   2.180   1.158 -0.5551 -0.7837 -0.9547
 3647TIP3   OH235135   5.362   0.104   7.159  0.3306 -0.4096  0.5287
 3647TIP3    H135136   5.327   0.087   7.072 -3.0124 -0.9895  1.8435
 3647TIP3    H235137   5.392   0.019   7.191 -0.1471 -0.5394  0.6292
 3648TIP3   OH235138   3.151   0.967   1.320 -0.1635  0.6614  0.1540
 3648TIP3    H135139   3.130   1.011   1.238  1.1689  0.7212 -0.1843
 3648TIP3    H235140   3.105   1.017   1.387  0.1598  1.6992 -0.3748
 3649TIP3   OH235141   5.807   5.367   0.254  0.1545 -0.0132 -0.7072
 3649TIP3    H135142   5.721   5.356   0.213 -1.3160  1.9055  1.6252
 3649TIP3    H235143   5.816   5.291   0.311 -0.4798  0.2531 -0.2335
 3650TIP3   OH235144   3.590   0.126   7.579 -0.1531 -0.2955 -0.4050
 3650TIP3    H135145   3.555   0.177   7.652  1.1953 -0.8908  0.7102
 3650TIP3    H235146   3.556   0.037   7.594 -1.1654 -0.1081 -1.4250
 3651TIP3   OH235147   7.286   0.604   9.953 -0.7218 -0.2324  0.4337
 3651TIP3    H135148   7.348   0.565  10.014  1.0534 -0.2637 -1.3146
 3651TIP3    H235149   7.255   0.530   9.900 -1.1302  0.0178  0.3156
 3652TIP3   OH235150   4.255   1.700   1.748 -0.0957  0.5927 -0.2594
 3652TIP3    H135151   4.305   1.631   1.790  2.3049  2.3392 -0.0310
 3652TIP3    H235152   4.179   1.656   1.711  1.1019 -2.0686  0.2423
 3653TIP3   OH235153   3.448   1.213   2.243  0.2369 -0.4381  0.2803
 3653TIP3    H135154   3.537   1.179   2.245  0.2281 -0.4404  0.8569
 3653TIP3    H235155   3.442   1.270   2.320  0.1459  0.6061 -0.4783
 3654TIP3   OH235156   7.257   1.561   8.670 -0.3117 -0.1499 -0.5010
 3654TIP3    H135157   7.198   1.597   8.604  1.1625 -0.4855 -2.0766
 3654TIP3    H235158   7.339   1.545   8.623  0.8010 -0.4272  1.4178
 3655TIP3   OH235159   1.792   3.916   2.655  0.8804 -0.0641 -0.1567
 3655TIP3    H135160   1.855   3.912   2.727 -0.8487  1.5586  1.5941
 3655TIP3    H235161   1.764   4.008   2.653 -2.5652 -0.9612  0.2931
 3656TIP3   OH235162   3.223   3.074   0.660 -0.7917 -0.6311  0.0844
 3656TIP3    H135163   3.231   3.167   0.680  1.2038 -0.4694 -1.1790
 3656TIP3    H235164   3.155   3.042   0.720 -0.2870  1.2710  1.7784
 3657TIP3   OH235165   1.828   7.084   1.672  0.1592 -0.0593  0.2235
 3657TIP3    H135166   1.914   7.101   1.633 -0.5138  1.5888 -0.6669
 3657TIP3    H235167   1.768   7.080   1.597 -0.6291 -0.5860  0.8622
 3658TIP3   OH235168   1.182   4.145   0.831  0.4565 -0.0202 -0.4984
 3658TIP3    H135169   1.106   4.105   0.790 -0.5684 -1.3248  2.4031
 3658TIP3    H235170   1.238   4.071   0.855  1.2070  0.6915  0.0021
 3659TIP3   OH235171   1.848   2.900   9.592  0.0517  0.0989 -0.2010
 3659TIP3    H135172   1.796   2.907   9.673  1.9328 -0.4302  1.1324
 3659TIP3    H235173   1.838   2.809   9.565 -0.0865  0.1160 -0.2068
 3660TIP3   OH235174   0.799   1.775   8.206 -0.3502 -0.3824  0.1852
 3660TIP3    H135175   0.824   1.752   8.295  1.6014 -0.4903 -0.3534
 3660TIP3    H235176   0.748   1.855   8.215 -2.5820 -1.8364  1.6011
 3661TIP3   OH235177   1.194   0.416   9.868 -0.6994 -0.2644  0.0510
 3661TIP3    H135178   1.278   0.394   9.909 -0.5939  1.7633  1.0558
 3661TIP3    H235179   1.158   0.332   9.841  1.3822 -1.2385  0.1211
 3662TIP3   OH235180   6.297   0.634   1.303 -0.0209  0.0705 -0.1353
 3662TIP3    H135181   6.304   0.569   1.373 -0.5862 -0.6737 -0.7399
 3662TIP3    H235182   6.387   0.648   1.274  0.1819  0.1230  0.5034
 3663TIP3   OH235183   1.550   2.077   1.225 -0.2456  0.2558  0.1722
 3663TIP3    H135184   1.624   2.113   1.177  0.0732 -1.6142 -0.8376
 3663TIP3    H235185   1.476   2.087   1.166 -0.1484 -0.7262 -0.1296
 3664TIP3   OH235186   6.674   0.154   9.314 -0.2179  0.3929 -0.0647
 3664TIP3    H135187   6.733   0.210   9.363  1.9556 -0.6757 -1.3395
 3664TIP3    H235188   6.667   0.195   9.228 -0.2371 -0.2160 -0.3602
 3665TIP3   OH235189   2.230   7.571   2.226 -0.1736  0.0549 -0.4636
 3665TIP3    H135190   2.281   7.490   2.227  0.2851  0.3512  0.5205
 3665TIP3    H235191   2.147   7.547   2.268 -0.6303 -0.2646 -1.5017
 3666TIP3   OH235192   2.710   5.258   2.044 -0.2299 -0.4431 -0.3693
 3666TIP3    H135193   2.738   5.204   2.118 -0.7550 -1.8545 -1.1656
 3666TIP3    H235194   2.654   5.200   1.992 -1.4350  1.0967 -0.8698
 3667TIP3   OH235195   2.947   2.590   1.003  0.6718 -0.2858  0.3065
 3667TIP3    H135196   2.928   2.684   1.011 -0.3636 -0.4243 -0.4350
 3667TIP3    H235197   2.952   2.559   1.093  0.8517  0.4458  0.5591
 3668TIP3   OH235198   0.271   0.928   8.340 -0.2343  0.2735  0.5599
 3668TIP3    H135199   0.309   1.016   8.336  1.3363 -0.3838  0.1895
 3668TIP3    H235200   0.288   0.899   8.430 -2.5411  1.0535  1.3247
 3669TIP3   OH235201   7.019   5.724   1.535  0.8428  0.2064 -0.2281
 3669TIP3    H135202   6.923   5.723   1.532  0.8556 -0.6460 -1.8600
 3669TIP3    H235203   7.040   5.715   1.628 -0.6606 -0.0016  0.1227
 3670TIP3   OH235204   6.110   2.181   9.877 -0.1887  0.1814  0.1769
 3670TIP3    H135205   6.083   2.099   9.918  0.0752 -0.1398 -0.2784
 3670TIP3    H235206   6.069   2.249   9.930  1.9160 -0.0999  2.3603
 3671TIP3   OH235207   4.009   1.444   2.093 -0.2857  0.7943  0.2176
 3671TIP3    H135208   3.981   1.519   2.042  1.2731  0.6899 -0.8822
 3671TIP3    H235209   4.051   1.386   2.030  0.6335  0.0874  1.4166
 3672TIP3   OH235210   6.121   0.164   0.233 -0.0310 -0.3960 -0.3860
 3672TIP3    H135211   6.092   0.084   0.276 -1.6893 -0.2045 -1.0630
 3672TIP3    H235212   6.112   0.145   0.139 -0.3742  0.5462 -0.5527
 3673TIP3   OH235213   4.480   7.662   0.761 -0.3836  0.3082  0.0523
 3673TIP3    H135214   4.481   7.577   0.805  0.1969  0.2892  0.0087
 3673TIP3    H235215   4.569   7.696   0.772 -0.3369  0.4660 -0.7921
 3674TIP3   OH235216   4.877   0.651   8.321 -0.1447 -0.1362  0.1472
 3674TIP3    H135217   4.908   0.692   8.402 -0.0391  0.9950 -0.4386
 3674TIP3    H235218   4.925   0.569   8.315 -1.0955 -0.8729  1.8826
 3675TIP3   OH235219   3.242   4.439   0.011  0.0909  0.0172  0.4617
 3675TIP3    H135220   3.249   4.369  -0.054 -0.7247 -0.4195  0.8325
 3675TIP3    H235221   3.332   4.469   0.024  0.6861 -2.0111  1.4372
 3676TIP3   OH235222   4.999   4.036   1.430  0.0783  1.4150 -0.0056
 3676TIP3    H135223   5.069   4.085   1.388  0.9892  0.9064  0.8940
 3676TIP3    H235224   4.949   3.999   1.357  0.4280  2.2149 -0.6600
 3677TIP3   OH235225   0.952   0.305   0.809 -0.6042  0.2385  0.1169
 3677TIP3    H135226   0.876   0.314   0.751  0.8613 -1.7436 -2.3117
 3677TIP3    H235227   0.927   0.236   0.870 -0.6225 -0.8151 -1.0354
 3678TIP3   OH235228   2.480   3.570   8.451 -0.1470  0.2684 -0.0661
 3678TIP3    H135229   2.430   3.562   8.532  1.2535  1.1751  0.9298
 3678TIP3    H235230   2.417   3.603   8.387 -1.2575 -0.3730  0.6586
 3679TIP3   OH235231   7.506   4.478   1.440 -0.0239 -0.1240  0.4350
 3679TIP3    H135232   7.527   4.486   1.347  0.3950  0.1309  0.5527
 3679TIP3    H235233   7.441   4.546   1.456  0.0739 -0.0174  0.3806
 3680TIP3   OH235234   2.697   3.940   2.303 -0.5327 -0.0334 -0.0038
 3680TIP3    H135235   2.621   3.960   2.357  1.5362  3.0865  2.1272
 3680TIP3    H235236   2.699   4.009   2.237  0.2259 -0.3215 -0.2988
 3681TIP3   OH235237   3.277   6.508   8.006  0.1732  0.1957 -0.0077
 3681TIP3    H135238   3.185   6.512   8.033  0.5477 -1.9605  1.8774
 3681TIP3    H235239   3.320   6.574   8.061 -0.2746  1.6589 -1.3375
 3682TIP3   OH235240   5.777   3.103   9.651  0.2259 -0.2902 -0.0165
 3682TIP3    H135241   5.742   3.178   9.698  0.9655 -0.8938  1.5574
 3682TIP3    H235242   5.789   3.135   9.561 -1.4995  0.7925  0.0904
 3683TIP3   OH235243   7.012   0.329   9.051  0.1527  0.2909  0.7428
 3683TIP3    H135244   6.962   0.383   8.990 -0.2424 -0.7367  0.1275
 3683TIP3    H235245   6.965   0.245   9.053 -2.0131  1.2842  5.2049
 3684TIP3   OH235246   5.327   1.537   0.539 -0.4957 -0.3872 -0.2648
 3684TIP3    H135247   5.304   1.620   0.582  2.0817  0.4910 -0.3404
 3684TIP3    H235248   5.320   1.556   0.445 -0.4234 -0.4109 -0.2752
 3685TIP3   OH235249   0.314   3.449   1.297  0.1560 -0.3935 -0.6150
 3685TIP3    H135250   0.346   3.394   1.226 -0.1753 -0.2835 -0.8543
 3685TIP3    H235251   0.389   3.501   1.324  1.2594 -2.8323  1.4380
 3686TIP3   OH235252   6.410   3.512   1.345  0.2350  0.0269 -0.3014
 3686TIP3    H135253   6.416   3.607   1.343  1.4588  0.0154  0.7696
 3686TIP3    H235254   6.384   3.492   1.436  2.1282 -0.6983  0.1251
 3687TIP3   OH235255   2.356   6.538   7.217  0.5749 -0.3452  0.3861
 3687TIP3    H135256   2.410   6.617   7.206  0.1903 -0.0742  0.3998
 3687TIP3    H235257   2.412   6.467   7.185  0.9140 -0.0633  0.3314
 3688TIP3   OH235258   2.487   0.419   8.739  0.3665  0.0398 -0.3408
 3688TIP3    H135259   2.394   0.415   8.717  0.4731 -0.6437 -0.6939
 3688TIP3    H235260   2.531   0.378   8.664  1.1972  3.0618 -1.6767
 3689TIP3   OH235261   4.314   1.065   8.203  0.5704  0.3542 -0.1749
 3689TIP3    H135262   4.276   1.044   8.288  0.4129 -0.3277 -0.4057
 3689TIP3    H235263   4.403   1.095   8.223  0.6907 -0.2349  0.2040
 3690TIP3   OH235264   3.565   1.590   9.035 -0.0575 -0.3713  0.2084
 3690TIP3    H135265   3.542   1.552   8.950 -2.1799  0.0475  0.5460
 3690TIP3    H235266   3.651   1.553   9.055  0.5167 -0.4519 -2.1156
 3691TIP3   OH235267   4.619   4.700   1.971  0.5510  0.0294 -0.6337
 3691TIP3    H135268   4.531   4.728   1.948  0.8942  1.7984  0.0430
 3691TIP3    H235269   4.677   4.760   1.924  1.4461 -1.3879 -1.4332
 3692TIP3   OH235270   1.013   4.553   8.270  0.0543 -0.2196  0.0733
 3692TIP3    H135271   1.028   4.568   8.363 -0.9453 -0.1955  0.2413
 3692TIP3    H235272   0.922   4.523   8.265 -0.7541  2.1430 -1.1228
 3693TIP3   OH235273   6.334   3.619   9.839 -0.1391  0.2175 -0.0250
 3693TIP3    H135274   6.242   3.637   9.817 -0.2347  0.3594  0.4739
 3693TIP3    H235275   6.330   3.582   9.927  0.4214  2.0010  0.7964
 3694TIP3   OH235276   4.600   2.705   9.045 -0.4035 -0.5023  0.0326
 3694TIP3    H135277   4.660   2.652   8.994  0.4431 -1.2712  1.7432
 3694TIP3    H235278   4.656   2.760   9.099 -1.2385 -0.3762  0.8008
 3695TIP3   OH235279   3.456   1.962   8.201  0.0270 -0.3348  0.1458
 3695TIP3    H135280   3.500   1.909   8.268  1.2176  2.5187  1.7938
 3695TIP3    H235281   3.524   2.021   8.168 -1.2032  0.1729 -1.6627
 3696TIP3   OH235282   6.368   2.206   0.246  0.3347 -0.9028  0.4814
 3696TIP3    H135283   6.334   2.149   0.177 -1.8973  1.1222 -0.2327
 3696TIP3    H235284   6.380   2.291   0.203  1.1589 -0.1666  2.0770
 3697TIP3   OH235285   7.669   5.948   0.249  0.2814  0.5978  0.5984
 3697TIP3    H135286   7.637   5.883   0.186 -0.5255  0.6923  0.8998
 3697TIP3    H235287   7.646   6.032   0.211 -1.4235  0.6288  1.6275
 3698TIP3   OH235288   4.722   1.538   1.428  0.5345 -0.1088 -0.3023
 3698TIP3    H135289   4.641   1.527   1.378  0.5794 -0.3295 -0.3269
 3698TIP3    H235290   4.708   1.618   1.480  0.8678  0.7048 -1.4148
 3699TIP3   OH235291   4.348   7.231   0.673  0.5395 -0.3830  0.2838
 3699TIP3    H135292   4.430   7.229   0.624 -0.0693 -0.1815 -0.7831
 3699TIP3    H235293   4.314   7.141   0.667  0.2239 -0.2405 -0.0888
 3700TIP3   OH235294   5.695   3.969   1.194 -0.1511  0.2481 -0.1505
 3700TIP3    H135295   5.654   4.033   1.251  1.1590  0.9340  0.0628
 3700TIP3    H235296   5.778   4.010   1.167 -0.4755 -0.2803 -2.1102
 3701TIP3   OH235297   5.392   1.682   8.019  0.1542  0.2016  0.6930
 3701TIP3    H135298   5.473   1.734   8.019 -0.0430  0.5108  0.4841
 3701TIP3    H235299   5.421   1.592   8.003  0.4651  0.3016  0.6957
 3702TIP3   OH235300   1.063   6.617   1.880 -0.2531 -0.2433 -0.5502
 3702TIP3    H135301   1.154   6.644   1.870  0.0668 -0.7085  0.8699
 3702TIP3    H235302   1.015   6.697   1.899  0.3242 -0.3242  1.4136
 3703TIP3   OH235303   4.410   1.375   0.961 -0.8010  0.1587  0.3986
 3703TIP3    H135304   4.414   1.371   0.865  1.4040  0.1416  0.4336
 3703TIP3    H235305   4.443   1.462   0.983 -0.3653 -0.1936  1.1701
 3704TIP3   OH235306   2.529   3.019   2.265  0.4158  0.1757  0.5162
 3704TIP3    H135307   2.602   3.080   2.276 -1.0121  2.0073  0.2077
 3704TIP3    H235308   2.502   3.030   2.174 -0.1329 -0.6398  0.5701
 3705TIP3   OH235309   5.936   2.992   9.848  0.0611 -0.1170 -0.2005
 3705TIP3    H135310   6.015   2.941   9.828 -0.9616 -2.0082  0.4104
 3705TIP3    H235311   5.895   3.006   9.763  1.5903  1.9179 -0.6863
 3706TIP3   OH235312   3.598   0.126   7.098 -0.3468 -0.2668 -0.4385
 3706TIP3    H135313   3.584   0.191   7.166  0.1845  1.3987 -1.8627
 3706TIP3    H235314   3.686   0.144   7.065 -0.0441 -1.9427 -0.6656
 3707TIP3   OH235315   0.054   4.819   9.408 -0.0566 -0.1167 -0.1811
 3707TIP3    H135316   0.062   4.914   9.415 -0.3969 -0.1391  0.6357
 3707TIP3    H235317   0.134   4.791   9.363 -0.8940  0.7480 -2.3335
 3708TIP3   OH235318   4.000   4.284   7.074  0.0204 -0.3496 -0.2591
 3708TIP3    H135319   4.070   4.224   7.048  0.3354 -0.1043  0.0113
 3708TIP3    H235320   3.935   4.227   7.116  0.4363 -0.4755  0.2288
 3709TIP3   OH235321   3.157   0.030   7.788  0.1421 -0.3694 -0.0572
 3709TIP3    H135322   3.218   0.103   7.803 -1.2838  0.3634  2.7884
 3709TIP3    H235323   3.138   0.035   7.694  1.7359  1.5940 -0.3555
 3710TIP3   OH235324   3.846   5.536   0.623 -0.6011 -0.1027 -0.0649
 3710TIP3    H135325   3.889   5.565   0.543  0.5066 -0.7959  0.2563
 3710TIP3    H235326   3.757   5.570   0.616  0.3996  2.8083  0.0145
 3711TIP3   OH235327   3.234   0.619   2.618 -1.0356  0.5673  0.3285
 3711TIP3    H135328   3.322   0.584   2.602 -1.3935 -0.4399  0.4726
 3711TIP3    H235329   3.237   0.650   2.709 -0.0097  3.1844 -0.4979
 3712TIP3   OH235330   6.342   6.321   0.907  0.1960  0.1840  0.4569
 3712TIP3    H135331   6.269   6.358   0.857 -1.3383 -1.7759  1.1347
 3712TIP3    H235332   6.329   6.355   0.996  1.0643  1.0899  0.2563
 3713TIP3   OH235333   7.442   4.425   8.613 -0.1488 -0.0714 -0.2954
 3713TIP3    H135334   7.360   4.475   8.615 -0.0013  0.3347 -2.1268
 3713TIP3    H235335   7.493   4.460   8.686  0.0286  2.6998 -1.6029
 3714TIP3   OH235336   0.397   1.389   7.890 -0.0118  0.6281  0.0577
 3714TIP3    H135337   0.447   1.449   7.835 -1.4895  2.1931  0.3098
 3714TIP3    H235338   0.440   1.393   7.975  0.4346  0.6492 -0.1689
 3715TIP3   OH235339   4.765   4.674   0.585 -0.1587  0.2318 -0.0221
 3715TIP3    H135340   4.799   4.680   0.674 -0.5349  0.8222  0.0891
 3715TIP3    H235341   4.843   4.654   0.532  0.4435  1.7674  0.2083
 3716TIP3   OH235342   5.841   5.425   9.608  0.3495 -0.2336  0.3547
 3716TIP3    H135343   5.793   5.412   9.690  0.1069 -0.8125  0.1333
 3716TIP3    H235344   5.853   5.519   9.601  0.0475 -0.1536  0.8734
 3717TIP3   OH235345   3.467   6.700   8.533 -0.0315  0.0855  0.5240
 3717TIP3    H135346   3.511   6.736   8.610  0.2011 -0.4209  0.6282
 3717TIP3    H235347   3.538   6.674   8.475 -0.1966  1.5106 -0.3678
 3718TIP3   OH235348   5.495   0.173   0.769  0.1744 -0.3261  0.2494
 3718TIP3    H135349   5.447   0.256   0.756  1.5885  0.1375 -2.8108
 3718TIP3    H235350   5.443   0.108   0.721  0.9063 -0.4668 -0.3625
 3719TIP3   OH235351   2.789   1.124   0.984  0.1402 -0.2306 -0.2716
 3719TIP3    H135352   2.708   1.107   1.032  0.4225 -1.9837 -0.3384
 3719TIP3    H235353   2.760   1.159   0.900 -0.4807  0.3803  0.1897
 3720TIP3   OH235354   2.660   6.361   8.758  0.7941 -0.0621  0.0416
 3720TIP3    H135355   2.648   6.270   8.734  1.2248 -0.1398  0.1127
 3720TIP3    H235356   2.589   6.380   8.820  1.0123 -0.4940  0.4269
 3721TIP3   OH235357   4.104   6.352   8.545 -0.5792  0.5142  0.1851
 3721TIP3    H135358   4.181   6.354   8.487 -0.7295 -1.0013 -0.0930
 3721TIP3    H235359   4.031   6.376   8.488 -0.6722 -0.6004 -0.1823
 3722TIP3   OH235360   3.608   4.068   2.904  0.1012  0.0032  0.3859
 3722TIP3    H135361   3.676   4.100   2.845  0.3313  0.2030  0.7539
 3722TIP3    H235362   3.583   4.145   2.955  0.6078 -0.3799  1.2310
 3723TIP3   OH235363   5.657   7.434   7.249  0.3371 -0.4438 -0.8609
 3723TIP3    H135364   5.747   7.417   7.220  0.8852 -0.5388  0.7780
 3723TIP3    H235365   5.660   7.421   7.344 -0.7728  2.1513 -0.3793
 3724TIP3   OH235366   1.350   0.723   3.309  0.5236  0.4582 -0.0810
 3724TIP3    H135367   1.264   0.761   3.291 -0.5069 -1.4661  0.4017
 3724TIP3    H235368   1.359   0.729   3.404  0.1363 -0.7922  0.0626
 3725TIP3   OH235369   3.582   6.079   0.919  0.1335 -0.3696  0.1590
 3725TIP3    H135370   3.634   6.106   0.843  1.2952 -3.7090 -0.3752
 3725TIP3    H235371   3.627   6.117   0.994  0.6781  0.5216 -0.5987
 3726TIP3   OH235372   4.029   1.505   7.862  0.1905 -0.3589  0.2918
 3726TIP3    H135373   4.082   1.563   7.809 -0.7562  1.4395  1.2354
 3726TIP3    H235374   3.978   1.454   7.799  0.3063  0.5339 -0.5381
 3727TIP3   OH235375   2.892   6.207   1.819 -0.1003 -0.1373  0.3801
 3727TIP3    H135376   2.958   6.142   1.794 -0.5933 -0.7211  0.5731
 3727TIP3    H235377   2.918   6.286   1.772  0.7894 -0.3290  0.5214
 3728TIP3   OH235378   0.170   7.069   0.005 -0.1424 -0.0643  0.4110
 3728TIP3    H135379   0.125   6.984   0.002 -0.1331 -0.0479 -0.3609
 3728TIP3    H235380   0.233   7.060   0.077 -0.9990 -0.2716  1.1544
 3729TIP3   OH235381   3.154   0.379   7.294 -0.5685 -0.3741  0.0358
 3729TIP3    H135382   3.079   0.439   7.291 -0.4405 -0.0761  1.6393
 3729TIP3    H235383   3.116   0.292   7.285 -1.1312 -0.2241  0.8262
 3730TIP3   OH235384   4.062   6.327   7.461 -0.3966  0.0015  0.0716
 3730TIP3    H135385   3.980   6.280   7.473 -0.4734  0.3703  1.1586
 3730TIP3    H235386   4.043   6.417   7.490 -0.0594  0.5314 -1.2585
 3731TIP3   OH235387   6.361   5.652   7.977  0.1128  0.3187 -0.4138
 3731TIP3    H135388   6.303   5.690   7.911  0.1026 -2.5061 -2.1633
 3731TIP3    H235389   6.447   5.649   7.935  1.0999  2.2060  1.2731
 3732TIP3   OH235390   1.720   2.124   2.934  0.0172 -0.3207 -0.1363
 3732TIP3    H135391   1.777   2.196   2.959  1.7499 -1.1596 -1.4668
 3732TIP3    H235392   1.779   2.050   2.918 -1.4783 -1.3853 -1.0717
 3733TIP3   OH235393   0.376   0.838   1.338  0.3967 -0.1227  0.4906
 3733TIP3    H135394   0.442   0.776   1.307 -1.8248 -2.0754 -0.6388
 3733TIP3    H235395   0.348   0.884   1.259 -0.5383 -0.2886  0.7208
 3734TIP3   OH235396   2.945   3.788   2.674  0.1320  0.4541  0.2612
 3734TIP3    H135397   2.861   3.807   2.716  0.0769 -1.3285  1.0550
 3734TIP3    H235398   3.004   3.855   2.708 -0.3402  0.0941  1.8876
 3735TIP3   OH235399   5.694   2.603   0.553  0.4648  0.0960  0.3657
 3735TIP3    H135400   5.787   2.619   0.569  0.7590 -1.2141  0.0384
 3735TIP3    H235401   5.668   2.672   0.491  1.4123 -0.0084 -0.1625
 3736TIP3   OH235402   1.991   2.564   7.822 -0.3636 -0.1396 -0.5709
 3736TIP3    H135403   2.071   2.570   7.771  1.3233  0.4290  1.9274
 3736TIP3    H235404   1.993   2.476   7.860 -0.7221  0.0061 -0.2031
 3737TIP3   OH235405   3.939   2.678   8.904  0.8997 -0.8280 -0.7499
 3737TIP3    H135406   3.973   2.764   8.928 -0.4361 -0.8672  1.5827
 3737TIP3    H235407   3.965   2.620   8.976 -2.2638 -1.2590  0.2090
 3738TIP3   OH235408   2.952   7.545   8.477 -0.3661  0.6472  0.3011
 3738TIP3    H135409   2.898   7.503   8.411  1.2778 -0.7352 -0.2503
 3738TIP3    H235410   2.922   7.636   8.479 -1.1701  0.4622 -1.5691
 3739TIP3   OH235411   1.882   6.689   2.197  0.0700  0.1623 -0.4976
 3739TIP3    H135412   1.854   6.779   2.211  1.6126  0.6635 -0.3914
 3739TIP3    H235413   1.866   6.646   2.281 -1.0503  0.2047 -0.6701
 3740TIP3   OH235414   1.570   3.103   1.348 -0.3000 -0.7870  0.2068
 3740TIP3    H135415   1.648   3.052   1.327 -0.1537 -1.2757  1.7933
 3740TIP3    H235416   1.602   3.191   1.365  0.0314 -1.1715  1.6397
 3741TIP3   OH235417   4.432   2.990   7.919 -0.0607 -0.4607  0.2181
 3741TIP3    H135418   4.501   3.042   7.878 -2.3414  1.6683 -1.2051
 3741TIP3    H235419   4.440   2.903   7.880  3.2899 -1.1202  1.9757
 3742TIP3   OH235420   1.555   1.810   7.200 -0.1720  0.7060  0.4080
 3742TIP3    H135421   1.511   1.891   7.228 -1.1944  0.5678 -0.7255
 3742TIP3    H235422   1.621   1.839   7.138 -0.6818  0.6731 -0.1626
 3743TIP3   OH235423   4.742   2.567   9.811 -0.0009 -0.4659 -0.0503
 3743TIP3    H135424   4.732   2.663   9.815  0.1857 -0.4275 -0.4724
 3743TIP3    H235425   4.808   2.548   9.877 -1.2127 -0.4889  1.2056
 3744TIP3   OH235426   1.101   5.331   0.935 -0.1475  0.0112  0.2368
 3744TIP3    H135427   1.112   5.360   1.026  0.0005 -0.4385  0.3624
 3744TIP3    H235428   1.066   5.242   0.942 -1.1866  0.3706 -0.1469
 3745TIP3   OH235429   3.584   4.965   7.849 -0.2733  0.5079  0.5788
 3745TIP3    H135430   3.629   5.035   7.895  2.1599 -0.4330 -0.2389
 3745TIP3    H235431   3.645   4.937   7.781 -1.6683 -1.5920  0.0915
 3746TIP3   OH235432   6.718   0.888   9.052 -0.1823 -0.3548 -0.5599
 3746TIP3    H135433   6.658   0.882   8.978  0.6009 -1.2085 -1.1433
 3746TIP3    H235434   6.693   0.969   9.097 -2.1742 -1.0068 -0.4075
 3747TIP3   OH235435   2.323   4.266   0.071 -0.0484 -0.3190 -0.1635
 3747TIP3    H135436   2.354   4.185   0.113 -2.5585  0.1464  2.9916
 3747TIP3    H235437   2.233   4.247   0.047 -1.1110  1.7793  1.7581
 3748TIP3   OH235438   6.601   7.557   9.516  0.1141  0.6739  0.3078
 3748TIP3    H135439   6.562   7.602   9.591 -0.4164 -0.0229  0.4588
 3748TIP3    H235440   6.691   7.591   9.513  0.1686  0.6679  1.3043
 3749TIP3   OH235441   6.918   5.960   1.919  0.1880 -0.2771  0.2763
 3749TIP3    H135442   6.860   6.025   1.958  0.5375  0.5092 -0.4889
 3749TIP3    H235443   7.004   6.003   1.916  0.9275 -1.5426  1.7338
 3750TIP3   OH235444   7.003   5.516   0.343  0.6054 -0.4840  0.0683
 3750TIP3    H135445   7.018   5.449   0.410 -0.5998 -0.1818  0.6625
 3750TIP3    H235446   6.952   5.584   0.388  2.1366  1.0414 -0.4046
 3751TIP3   OH235447   7.203   2.795   0.411  0.3538 -0.8479 -0.1144
 3751TIP3    H135448   7.207   2.889   0.426  1.7653 -0.8191 -0.5976
 3751TIP3    H235449   7.250   2.781   0.329 -1.0561 -1.8265 -0.7953
 3752TIP3   OH235450   4.650   5.011   8.414 -0.2747  0.0014  0.2049
 3752TIP3    H135451   4.622   4.951   8.344  0.6542 -0.3557  0.1235
 3752TIP3    H235452   4.713   4.960   8.465 -1.5469 -0.0209  1.8011
 3753TIP3   OH235453   2.072   3.420   0.474  0.0668  0.1790  0.5137
 3753TIP3    H135454   2.165   3.418   0.496  0.8155 -0.7393 -2.2491
 3753TIP3    H235455   2.053   3.330   0.445 -1.8747  0.1899  1.6165
 3754TIP3   OH235456   0.760   4.761   2.569 -0.1617  0.5842  0.3390
 3754TIP3    H135457   0.706   4.732   2.495 -0.2351 -0.4944  0.7869
 3754TIP3    H235458   0.808   4.836   2.536 -1.1323  0.8961 -0.4111
 3755TIP3   OH235459   2.101   6.381   2.137 -0.0582  0.5138 -0.5151
 3755TIP3    H135460   2.125   6.296   2.100 -2.0364  0.1862 -1.1452
 3755TIP3    H235461   2.058   6.360   2.220 -0.8855  0.8672 -0.8500
 3756TIP3   OH235462   7.506   5.474   1.440 -0.1547 -0.2386 -0.4406
 3756TIP3    H135463   7.579   5.446   1.497 -1.4874 -1.5321  0.7019
 3756TIP3    H235464   7.458   5.538   1.493 -1.1846 -1.1554 -0.2533
 3757TIP3   OH235465   4.083   7.128   7.621 -0.3641 -0.2159 -0.6169
 3757TIP3    H135466   4.144   7.189   7.578  1.6239 -0.9207  1.0834
 3757TIP3    H235467   4.035   7.183   7.683 -1.2954  0.2754 -1.7239
 3758TIP3   OH235468   1.138   6.543   7.963  0.4741  0.1900  0.2583
 3758TIP3    H135469   1.225   6.584   7.965  2.0456 -2.6634  3.8503
 3758TIP3    H235470   1.154   6.456   7.926 -0.5941 -0.6337  1.6095
 3759TIP3   OH235471   2.460   3.349   6.254 -0.1822  0.2436  0.3437
 3759TIP3    H135472   2.555   3.343   6.256 -0.1524  0.8427  1.5667
 3759TIP3    H235473   2.430   3.258   6.250  0.4288  0.0804 -1.3367
 3760TIP3   OH235474   4.773   7.599   0.895  0.0640 -0.4086 -0.8319
 3760TIP3    H135475   4.722   7.593   0.975  0.3742  0.0236 -0.5999
 3760TIP3    H235476   4.793   7.692   0.886  1.9264 -0.7179 -0.2156
 3761TIP3   OH235477   3.551   2.022   9.543 -0.2093  0.0513 -0.2629
 3761TIP3    H135478   3.497   1.962   9.594  0.4635 -1.3343 -1.1209
 3761TIP3    H235479   3.598   2.074   9.608 -0.2059 -0.9121  0.5185
 3762TIP3   OH235480   6.080   6.408   1.084 -0.1934  0.8366  0.0405
 3762TIP3    H135481   6.034   6.331   1.050 -1.1217  1.1772  0.4787
 3762TIP3    H235482   6.016   6.479   1.078 -0.3197  0.9864  2.1426
 3763TIP3   OH235483   2.486   4.012   1.859  0.6199  0.0030 -0.3116
 3763TIP3    H135484   2.415   4.071   1.833  0.2329  0.0171  0.7150
 3763TIP3    H235485   2.489   3.945   1.791  0.4071  0.6527 -0.9735
 3764TIP3   OH235486   1.248   2.008   9.489  0.0628  0.5821  0.5945
 3764TIP3    H135487   1.270   2.092   9.529  1.6016 -0.4887  2.1693
 3764TIP3    H235488   1.175   1.975   9.541 -0.9062  1.1481 -0.3690
 3765TIP3   OH235489   2.908   3.816   8.026  0.0321  0.0036 -0.2593
 3765TIP3    H135490   2.844   3.794   8.092  0.8118  0.8342  0.8113
 3765TIP3    H235491   2.858   3.861   7.957 -0.7258 -0.5603 -0.0839
 3766TIP3   OH235492   2.140   0.280   2.910 -0.2648 -0.0419  0.0619
 3766TIP3    H135493   2.112   0.350   2.968  1.4565  0.1664  0.7178
 3766TIP3    H235494   2.189   0.220   2.967  0.7401 -0.2791 -1.0018
 3767TIP3   OH235495   1.129   6.339   7.444  0.2877  0.1144 -0.3405
 3767TIP3    H135496   1.055   6.363   7.388  0.2695 -0.3575 -0.5237
 3767TIP3    H235497   1.196   6.406   7.425  0.3586 -0.1591 -1.0804
 3768TIP3   OH235498   5.804   7.648   2.181  0.4352 -0.3686 -0.1930
 3768TIP3    H135499   5.720   7.604   2.196 -0.2415  0.6293 -0.9645
 3768TIP3    H235500   5.870   7.585   2.212 -0.6070 -1.0074  0.7693
 3769TIP3   OH235501   4.610   1.689   1.996 -0.3923 -0.2742  0.2918
 3769TIP3    H135502   4.515   1.693   1.986 -0.4116  1.6691  0.8397
 3769TIP3    H235503   4.632   1.596   1.982 -2.0625 -0.3929 -2.1665
 3770TIP3   OH235504   6.862   2.617   7.375  0.2107 -0.0033 -0.4508
 3770TIP3    H135505   6.940   2.568   7.350 -0.7910 -1.7374 -0.3552
 3770TIP3    H235506   6.832   2.659   7.294  0.4198 -0.5340 -0.8038
 3771TIP3   OH235507   0.643   1.481   8.075 -0.0649  0.2035 -0.0133
 3771TIP3    H135508   0.658   1.463   8.167  0.1435  2.4638  0.4405
 3771TIP3    H235509   0.623   1.575   8.071  2.4972  0.7837 -2.4953
 3772TIP3   OH235510   1.293   3.772   8.512  0.7966  1.2042 -0.1055
 3772TIP3    H135511   1.356   3.737   8.450  0.9992 -0.4451  0.9608
 3772TIP3    H235512   1.343   3.790   8.591  0.4107  2.5492 -0.1425
 3773TIP3   OH235513   3.518   3.324   2.329  0.1505 -0.9357  0.0728
 3773TIP3    H135514   3.593   3.271   2.302 -0.1268 -2.1148  1.4739
 3773TIP3    H235515   3.442   3.272   2.304 -0.2328  0.1791 -1.1876
 3774TIP3   OH235516   6.217   0.221   1.090 -0.0134  0.3067 -0.7866
 3774TIP3    H135517   6.295   0.276   1.089  1.4782 -1.6625  0.9540
 3774TIP3    H235518   6.154   0.268   1.035  1.9324  2.5845 -1.1957
 3775TIP3   OH235519   2.714   1.920   7.620 -0.4920  0.7232  0.6710
 3775TIP3    H135520   2.659   1.933   7.543 -1.3983 -1.8901  0.7770
 3775TIP3    H235521   2.799   1.896   7.584 -0.0962  2.2188  0.5264
 3776TIP3   OH235522   7.370   0.933   9.573  0.3920 -0.2356 -0.2448
 3776TIP3    H135523   7.442   0.975   9.620 -0.9779  2.3562 -0.2742
 3776TIP3    H235524   7.329   0.876   9.639  1.0319  0.0896  0.4507
 3777TIP3   OH235525   3.376   1.537   1.360 -0.5821 -0.2913  0.3475
 3777TIP3    H135526   3.323   1.473   1.312 -2.3149  1.8288 -0.7010
 3777TIP3    H235527   3.313   1.597   1.398  0.8753 -0.4131  3.2701
 3778TIP3   OH235528   0.385   6.398   9.314 -0.0886 -0.0520 -0.0047
 3778TIP3    H135529   0.294   6.401   9.343  0.0283 -0.1247  0.3672
 3778TIP3    H235530   0.421   6.319   9.355 -0.1771 -0.6721 -1.0762
 3779TIP3   OH235531   4.531   3.867   1.054  0.2115  0.4376  0.2686
 3779TIP3    H135532   4.477   3.907   0.986 -0.6599 -0.2768  0.5292
 3779TIP3    H235533   4.601   3.823   1.006  1.2181  2.2357 -0.0341
 3780TIP3   OH235534   5.044   0.451   2.032 -0.2774  0.3144 -0.0270
 3780TIP3    H135535   5.034   0.357   2.016  0.1597  0.2249  0.2082
 3780TIP3    H235536   5.108   0.479   1.967 -1.7443  0.8238 -1.3323
 3781TIP3   OH235537   3.021   4.767   8.595 -0.2043  0.1252 -0.5829
 3781TIP3    H135538   3.060   4.684   8.623  0.8887  1.3241  1.8177
 3781TIP3    H235539   3.052   4.780   8.506  0.4442 -1.5307 -0.6346
 3782TIP3   OH235540   5.211   5.990   1.813 -0.1040 -0.1075  0.0517
 3782TIP3    H135541   5.250   5.929   1.751  0.4034  2.7640 -2.7653
 3782TIP3    H235542   5.119   5.964   1.818  0.4695 -2.2130  0.5714
 3783TIP3   OH235543   0.985   6.318   9.913 -0.1354 -0.2594  0.0412
 3783TIP3    H135544   0.930   6.376   9.965 -0.1498 -0.8301  0.6720
 3783TIP3    H235545   1.074   6.334   9.945 -0.1193 -0.4653  0.0995
 3784TIP3   OH235546   1.734   6.621   7.674  0.4071 -0.9439 -0.6680
 3784TIP3    H135547   1.735   6.639   7.768  0.5403  0.3554 -0.8970
 3784TIP3    H235548   1.681   6.542   7.665  0.2169 -0.9602  0.4807
 3785TIP3   OH235549   5.422   0.754   0.329 -0.2130 -0.5527 -0.2917
 3785TIP3    H135550   5.462   0.724   0.247 -0.4676 -1.8548  0.0380
 3785TIP3    H235551   5.409   0.848   0.316  1.8834 -0.3002 -0.8334
 3786TIP3   OH235552   7.054   1.772   9.890  0.0514 -0.5426 -0.4863
 3786TIP3    H135553   7.040   1.678   9.881 -0.9032 -0.4419 -0.0825
 3786TIP3    H235554   6.971   1.812   9.864 -0.0663  0.1189  0.8348
 3787TIP3   OH235555   7.149   5.599   2.001  0.6038 -0.2092  0.5858
 3787TIP3    H135556   7.234   5.555   2.000  0.0831 -1.2178 -0.7166
 3787TIP3    H235557   7.162   5.674   2.059  1.9761 -1.1331  1.5172
 3788TIP3   OH235558   1.629   0.543   1.217  0.6105  0.1980  0.7396
 3788TIP3    H135559   1.594   0.615   1.269  0.5268  0.3017  0.5401
 3788TIP3    H235560   1.560   0.476   1.220 -0.2478  0.9576 -0.8408
 3789TIP3   OH235561   5.867   6.920   8.192 -0.3753 -0.0966  0.2213
 3789TIP3    H135562   5.906   6.982   8.254 -0.2870  0.1901 -0.1158
 3789TIP3    H235563   5.781   6.956   8.172 -0.6962 -0.5620  0.7147
 3790TIP3   OH235564   4.193   7.296   1.263 -0.4293  0.2887  0.0079
 3790TIP3    H135565   4.285   7.269   1.260 -0.4099  0.1110 -4.1876
 3790TIP3    H235566   4.146   7.221   1.226 -1.8871  1.3634 -0.3877
 3791TIP3   OH235567   2.506   3.322   6.584 -0.0115 -0.5348  0.0225
 3791TIP3    H135568   2.482   3.388   6.649 -1.2784  0.0398 -0.9937
 3791TIP3    H235569   2.435   3.258   6.587 -0.6841  0.0865 -1.5523
 3792TIP3   OH235570   5.652   1.720   0.598 -0.7654  0.3117  0.0173
 3792TIP3    H135571   5.704   1.729   0.678 -1.8219 -0.2312  0.7916
 3792TIP3    H235572   5.686   1.787   0.540 -1.3193  2.1191  1.6715
 3793TIP3   OH235573   0.216   6.931   8.004 -0.1313  0.0116  0.0215
 3793TIP3    H135574   0.237   6.879   8.082  0.7130  2.3970  1.5204
 3793TIP3    H235575   0.276   7.005   8.008 -0.7353  0.7218 -2.4128
 3794TIP3   OH235576   1.575   3.311   0.452  0.2074  0.4578  0.1210
 3794TIP3    H135577   1.558   3.386   0.395  2.4422  1.3119  0.4810
 3794TIP3    H235578   1.605   3.242   0.392  1.1427  0.8792  0.0927
 3795TIP3   OH235579   2.920   3.088   1.251  0.2313  0.1551  0.3915
 3795TIP3    H135580   2.895   3.120   1.338 -0.4164 -0.5787  0.4866
 3795TIP3    H235581   2.847   3.113   1.195  0.9941  1.3197 -0.1203
 3796TIP3   OH235582   2.032   0.267   0.656 -0.0006 -0.1961  0.1895
 3796TIP3    H135583   1.996   0.192   0.610 -2.5635  0.3958  1.0366
 3796TIP3    H235584   2.040   0.237   0.747 -1.9528  0.7437  0.7287
 3797TIP3   OH235585   2.189   2.608   8.032  0.0718  0.0901  0.0167
 3797TIP3    H135586   2.171   2.617   7.938  1.1157  0.6689 -0.1405
 3797TIP3    H235587   2.276   2.568   8.036 -0.5317 -1.2190  0.7526
 3798TIP3   OH235588   3.319   6.855   7.699  0.4645 -0.3038  0.3981
 3798TIP3    H135589   3.396   6.860   7.755  0.7156 -0.1129  0.0366
 3798TIP3    H235590   3.284   6.768   7.715  1.0630 -0.5915  0.1581
 3799TIP3   OH235591   5.146   5.034   1.828 -0.2986  0.0092  0.0546
 3799TIP3    H135592   5.129   5.077   1.745  1.5990  0.3994 -0.1654
 3799TIP3    H235593   5.132   4.941   1.810 -0.7391  0.1710 -0.4641
 3800TIP3   OH235594   6.832   3.527   1.046  0.6327 -0.0674  0.3702
 3800TIP3    H135595   6.794   3.531   1.134 -1.4299  0.6936 -0.4854
 3800TIP3    H235596   6.808   3.611   1.006  0.3580 -0.9297 -1.3550
 3801TIP3   OH235597   3.529   0.683   9.088 -0.0977 -0.4024  0.2254
 3801TIP3    H135598   3.490   0.690   9.175  0.8497 -1.9696  0.8128
 3801TIP3    H235599   3.566   0.595   9.085  1.1891  0.1419 -1.2302
 3802TIP3   OH235600   2.886   5.803   2.118 -0.5226  0.8263  0.1558
 3802TIP3    H135601   2.880   5.791   2.213 -0.6059  1.5030  0.2378
 3802TIP3    H235602   2.831   5.879   2.099 -0.2765  0.8734 -0.3982
 3803TIP3   OH235603   6.765   4.654   1.325 -0.3679 -0.3503  0.3946
 3803TIP3    H135604   6.680   4.654   1.369 -0.0184  0.9349  1.1100
 3803TIP3    H235605   6.745   4.685   1.236 -0.6734 -0.2219  0.5043
 3804TIP3   OH235606   0.770   3.268   1.013  0.0944 -0.0067 -0.6030
 3804TIP3    H135607   0.794   3.314   0.933  2.3597 -0.4184 -0.2356
 3804TIP3    H235608   0.853   3.234   1.047 -0.9300 -0.6683  1.4107
 3805TIP3   OH235609   7.278   4.009   7.647 -0.3655 -0.0798 -0.2921
 3805TIP3    H135610   7.268   4.104   7.642 -1.6011 -0.1261  0.7363
 3805TIP3    H235611   7.326   3.985   7.568  0.0189  1.3989 -0.5352
 3806TIP3   OH235612   0.547   4.101   0.853 -0.0481 -0.7047 -0.1493
 3806TIP3    H135613   0.466   4.073   0.811 -1.0191 -1.2997  1.9623
 3806TIP3    H235614   0.538   4.072   0.944  1.5733  1.1942  0.6888
 3807TIP3   OH235615   4.574   4.129   9.406 -0.0599  0.2220  0.2131
 3807TIP3    H135616   4.579   4.056   9.344  2.5013 -0.0818  0.6663
 3807TIP3    H235617   4.522   4.096   9.479  0.6207 -0.9890  0.1712
 3808TIP3   OH235618   4.795   6.628   0.578  0.1600  0.2113  0.1299
 3808TIP3    H135619   4.888   6.618   0.561  0.0608 -0.2312 -0.1701
 3808TIP3    H235620   4.788   6.629   0.674  0.1942 -2.7597  0.2483
 3809TIP3   OH235621   3.667   1.440   2.533  0.0696  0.0163  0.1698
 3809TIP3    H135622   3.596   1.402   2.482 -0.4855  1.2332 -0.0106
 3809TIP3    H235623   3.677   1.529   2.497  1.2984  0.0578  0.5749
 3810TIP3   OH235624   4.768   5.013   9.695  0.1109 -0.6331  0.2394
 3810TIP3    H135625   4.803   5.046   9.778 -2.5082  0.3605  1.0773
 3810TIP3    H235626   4.841   4.966   9.655  1.8940  0.0531  2.4312
 3811TIP3   OH235627   4.387   2.660   1.754 -0.1000 -0.0394 -0.1048
 3811TIP3    H135628   4.460   2.696   1.704 -2.3192  3.0797 -1.4654
 3811TIP3    H235629   4.413   2.671   1.845  0.8051  1.8825 -0.5427
 3812TIP3   OH235630   3.122   6.693   8.859  0.8908 -0.3051  0.5655
 3812TIP3    H135631   3.133   6.605   8.823  0.7561  0.6534 -2.0161
 3812TIP3    H235632   3.109   6.679   8.953  2.4447 -2.9077  0.4808
 3813TIP3   OH235633   0.221   7.178   0.847 -0.1839 -0.3109  0.0230
 3813TIP3    H135634   0.131   7.176   0.816  0.7109 -0.0771 -2.8742
 3813TIP3    H235635   0.250   7.087   0.841 -0.1260 -0.3383  0.6688
 3814TIP3   OH235636   3.000   4.909   1.479  0.3602  0.4687 -0.4406
 3814TIP3    H135637   3.036   4.870   1.558 -1.6182  1.2524  0.9333
 3814TIP3    H235638   2.915   4.867   1.469 -0.9629  2.8726 -0.0564
 3815TIP3   OH235639   0.500   6.636   8.123  0.1251 -0.3934  0.7555
 3815TIP3    H135640   0.494   6.597   8.036  2.1049 -2.8004  1.5682
 3815TIP3    H235641   0.417   6.681   8.135 -0.3016 -0.1671 -2.2625
 3816TIP3   OH235642   0.713   6.394   2.010  0.9668  0.5121  0.4167
 3816TIP3    H135643   0.716   6.489   2.016  1.0179  0.5314  0.0725
 3816TIP3    H235644   0.804   6.366   2.015  1.0783  0.5779 -1.0894
 3817TIP3   OH235645   3.398   6.558   0.483  0.4467 -0.3765 -0.4558
 3817TIP3    H135646   3.410   6.544   0.389 -1.1554 -1.0300 -0.6024
 3817TIP3    H235647   3.455   6.493   0.524  0.5399 -0.6407 -0.9879
 3818TIP3   OH235648   3.633   2.096   8.513 -0.4710  0.4378  0.9983
 3818TIP3    H135649   3.587   2.012   8.502 -1.1851  0.8905  0.4460
 3818TIP3    H235650   3.722   2.078   8.482 -0.9963  0.2386 -0.5021
 3819TIP3   OH235651   5.980   1.790   9.493  0.5339 -0.8970 -0.1469
 3819TIP3    H135652   5.974   1.872   9.543  1.5539 -0.7041 -0.3093
 3819TIP3    H235653   6.074   1.769   9.495  0.4477 -1.3940 -1.1783
 3820TIP3   OH235654   0.563   2.495   9.616 -0.0936 -0.3196  0.0009
 3820TIP3    H135655   0.512   2.564   9.660 -1.2572  0.2790 -2.1610
 3820TIP3    H235656   0.642   2.540   9.585 -0.4882 -0.1215 -0.7342
 3821TIP3   OH235657   2.283   5.461   8.399 -0.0900 -0.2108 -0.4715
 3821TIP3    H135658   2.240   5.547   8.404  1.7863  0.9388 -2.2908
 3821TIP3    H235659   2.222   5.401   8.442 -2.3571  1.7119 -0.7723
 3822TIP3   OH235660   3.838   6.722   0.202  1.1764  0.0708 -0.2184
 3822TIP3    H135661   3.846   6.801   0.149 -0.9638  0.2980 -0.2833
 3822TIP3    H235662   3.880   6.654   0.150  2.0173  0.9288 -0.6818
 3823TIP3   OH235663   6.466   6.672   0.492 -0.1534 -0.2927  0.5955
 3823TIP3    H135664   6.400   6.675   0.423  1.2855 -1.1625 -0.8922
 3823TIP3    H235665   6.447   6.748   0.547 -1.5273  0.2427 -0.5651
 3824TIP3   OH235666   4.029   1.102   1.553  0.2536  0.3355  0.3000
 3824TIP3    H135667   4.100   1.153   1.592 -0.3513  1.2154  0.2571
 3824TIP3    H235668   4.020   1.136   1.464  0.8115 -0.8454 -0.2417
 3825TIP3   OH235669   3.308   5.095   8.085  0.2040 -0.6682 -0.1032
 3825TIP3    H135670   3.387   5.087   8.140 -0.0491  0.2761  0.4323
 3825TIP3    H235671   3.333   5.159   8.018 -0.0268 -0.5499 -0.0765
 3826TIP3   OH235672   0.984   6.397   9.120  0.5543 -0.0324 -0.1130
 3826TIP3    H135673   0.949   6.401   9.209 -1.5086  1.3406 -0.9226
 3826TIP3    H235674   0.909   6.374   9.065  0.2187  4.7148 -2.1667
 3827TIP3   OH235675   4.948   1.206   8.117 -0.9073 -0.1436 -0.1137
 3827TIP3    H135676   4.890   1.215   8.041  1.3546 -2.0469 -2.2274
 3827TIP3    H235677   4.924   1.121   8.155 -0.3575 -0.3400 -0.2080
 3828TIP3   OH235678   2.135   6.654   0.055  0.0122  0.0347 -0.1339
 3828TIP3    H135679   2.052   6.627   0.095 -0.3642  0.5240 -0.5609
 3828TIP3    H235680   2.119   6.744   0.025  1.5023  1.0900  2.0143
 3829TIP3   OH235681   2.744   6.696   8.066  0.2515 -0.4241 -0.2733
 3829TIP3    H135682   2.676   6.762   8.049 -0.0707 -0.7506 -0.2605
 3829TIP3    H235683   2.787   6.727   8.145  0.3971  0.0078 -0.5125
 3830TIP3   OH235684   1.870   7.045   8.482 -0.7005 -0.0195  0.0533
 3830TIP3    H135685   1.854   6.953   8.505 -0.3510 -0.2088 -0.4401
 3830TIP3    H235686   1.941   7.072   8.540 -1.5416  0.2781  0.9709
 3831TIP3   OH235687   4.129   7.458   8.595 -0.1458 -0.0721  0.3978
 3831TIP3    H135688   4.071   7.389   8.629 -1.0034  0.1575 -0.5562
 3831TIP3    H235689   4.092   7.539   8.630 -1.3062  0.2104 -1.3626
 3832TIP3   OH235690   7.041   4.313   8.225 -0.0950 -0.2460  0.0332
 3832TIP3    H135691   7.034   4.397   8.269  2.4221  0.4775 -0.7853
 3832TIP3    H235692   7.090   4.257   8.285 -0.9239 -0.8647  0.1660
 3833TIP3   OH235693   6.583   4.025   8.693 -0.5642  0.1843 -0.0460
 3833TIP3    H135694   6.583   3.959   8.763 -0.7248  0.0530 -0.1717
 3833TIP3    H235695   6.548   3.980   8.617 -2.8448  1.0096  0.4311
 3834TIP3   OH235696   3.572   3.470   1.153 -0.1150  0.0379 -0.2734
 3834TIP3    H135697   3.639   3.534   1.175 -0.7232  0.2348  1.0889
 3834TIP3    H235698   3.507   3.478   1.222  0.3071 -2.8105  0.5792
 3835TIP3   OH235699   3.860   5.246   9.677 -0.5716  0.0994 -0.0999
 3835TIP3    H135700   3.934   5.191   9.703 -0.2995 -0.7384 -2.4565
 3835TIP3    H235701   3.875   5.329   9.723 -0.9777 -1.6394  3.5291
 3836TIP3   OH235702   2.192   6.951   1.492  0.5134  0.0231  0.6122
 3836TIP3    H135703   2.153   6.900   1.420 -0.7780  0.9208  0.6374
 3836TIP3    H235704   2.200   6.889   1.564 -0.5950 -0.2815  0.4910
 3837TIP3   OH235705   1.132   5.906   0.725  0.2405  0.3428 -0.4241
 3837TIP3    H135706   1.206   5.891   0.667  0.2208 -0.6976 -0.2081
 3837TIP3    H235707   1.156   5.984   0.776  0.9589  0.3084 -0.7034
 3838TIP3   OH235708   1.164   3.273   1.339  0.4919 -0.3708  0.1655
 3838TIP3    H135709   1.088   3.230   1.378  0.3180 -0.1420  0.0846
 3838TIP3    H235710   1.131   3.360   1.314  0.8150 -0.2268  0.2461
 3839TIP3   OH235711   4.683   0.017   1.924 -0.0644 -0.1791 -0.1467
 3839TIP3    H135712   4.716  -0.062   1.968  1.1587 -0.2478 -1.1302
 3839TIP3    H235713   4.721   0.013   1.836 -1.4827  0.5635 -0.8318
 3840TIP3   OH235714   6.946   3.910   8.262 -0.2572 -0.7065  0.1898
 3840TIP3    H135715   6.947   3.986   8.319  0.0301 -0.9237  0.4816
 3840TIP3    H235716   6.899   3.938   8.184 -0.7240 -0.4290  0.5675
 3841TIP3   OH235717   5.314   0.414   1.629  0.1949 -0.0199 -0.0550
 3841TIP3    H135718   5.258   0.486   1.659 -1.0195 -0.3057 -1.4978
 3841TIP3    H235719   5.259   0.336   1.636  0.2185 -0.2530 -1.8490
 3842TIP3   OH235720   3.334   5.910   7.012 -0.1052  0.3773  0.2546
 3842TIP3    H135721   3.402   5.969   6.981 -0.2044  0.7050  0.6429
 3842TIP3    H235722   3.304   5.863   6.934 -0.4024  1.2342 -0.1511
 3843TIP3   OH235723   0.910   4.050   9.082  0.1591  0.0701  0.3125
 3843TIP3    H135724   0.962   4.035   9.003 -1.2265  0.1744 -0.6483
 3843TIP3    H235725   0.871   3.965   9.101  0.4798  0.0454  0.9063
 3844TIP3   OH235726   2.162   2.870   0.851  0.4029 -0.3657  0.0521
 3844TIP3    H135727   2.182   2.783   0.819  0.6777 -0.3198  0.0986
 3844TIP3    H235728   2.150   2.923   0.772  1.6713 -0.1142  0.0041
 3845TIP3   OH235729   4.694   2.298   7.644  0.6535  0.4499  0.4817
 3845TIP3    H135730   4.710   2.217   7.595 -1.6356 -1.1836  2.1709
 3845TIP3    H235731   4.738   2.284   7.728  2.6228  2.2484 -0.1616
 3846TIP3   OH235732   5.375   1.316   1.102  0.0641  0.0567 -0.4606
 3846TIP3    H135733   5.376   1.401   1.146 -1.5714 -0.4455  0.6740
 3846TIP3    H235734   5.355   1.336   1.011 -3.9986  0.8163  0.3802
 3847TIP3   OH235735   7.157   5.444   1.731 -0.5258  0.1394 -0.5357
 3847TIP3    H135736   7.165   5.455   1.636 -1.2686 -0.8646 -0.7339
 3847TIP3    H235737   7.174   5.531   1.767  3.0971 -0.0628 -1.3580
 3848TIP3   OH235738   1.532   0.561   9.261 -0.0377 -0.2249  0.4650
 3848TIP3    H135739   1.623   0.551   9.288  0.2617  2.0948  0.5356
 3848TIP3    H235740   1.533   0.552   9.166  0.1890 -0.5619  0.4964
 3849TIP3   OH235741   3.567   1.594   1.692  0.2217 -0.4660  0.2319
 3849TIP3    H135742   3.530   1.505   1.695  0.0082 -0.3737  0.3639
 3849TIP3    H235743   3.522   1.637   1.620 -0.1480 -0.2569  0.5861
 3850TIP3   OH235744   2.554   7.036   8.772  0.7322  0.2299 -0.6389
 3850TIP3    H135745   2.554   6.947   8.735  1.3919 -0.7456  1.5480
 3850TIP3    H235746   2.469   7.044   8.815  1.1746  0.1607  0.2575
 3851TIP3   OH235747   7.404   3.433   8.788  0.2189  0.3819 -0.2450
 3851TIP3    H135748   7.311   3.418   8.807  0.0238  1.0160 -0.6935
 3851TIP3    H235749   7.449   3.415   8.871 -0.4453  1.4238  0.3520
 3852TIP3   OH235750   0.242   5.128   1.227  0.1881 -0.7002  0.1655
 3852TIP3    H135751   0.255   5.178   1.308 -1.4693 -0.0200  0.0547
 3852TIP3    H235752   0.148   5.108   1.226 -0.0996  0.3993 -2.1870
 3853TIP3   OH235753   0.956   0.927   8.702  0.2677  0.2499 -0.1972
 3853TIP3    H135754   0.957   0.998   8.638 -1.6513 -0.4148 -1.0284
 3853TIP3    H235755   1.048   0.915   8.725  0.7909  1.9305 -1.2192
 3854TIP3   OH235756   3.209   1.081   0.854  0.2115 -0.6926 -0.6981
 3854TIP3    H135757   3.212   1.170   0.890 -2.1706 -0.7222 -0.2631
 3854TIP3    H235758   3.197   1.094   0.760  0.4056 -0.5669 -0.7066
 3855TIP3   OH235759   0.877   3.883   1.986  0.0593 -0.2007  0.2718
 3855TIP3    H135760   0.824   3.849   2.058  0.8384 -0.2211  0.8402
 3855TIP3    H235761   0.956   3.916   2.027 -0.0650  1.0321 -0.4357
 3856TIP3   OH235762   1.662   5.021   2.956 -0.0606  0.3495  0.0429
 3856TIP3    H135763   1.742   4.975   2.980  0.2659  0.7980 -0.1890
 3856TIP3    H235764   1.622   4.965   2.889  1.0535  1.0769 -1.2905
 3857TIP3   OH235765   0.999   2.555   0.443  0.2060 -0.5567  0.0496
 3857TIP3    H135766   1.038   2.586   0.361 -2.2870 -1.2869 -1.5370
 3857TIP3    H235767   1.022   2.622   0.507  0.5277  1.1414 -1.7314
 3858TIP3   OH235768   3.020   7.256   1.697  0.2247 -0.2937 -0.1546
 3858TIP3    H135769   3.077   7.324   1.663  0.8924 -0.2219  1.0471
 3858TIP3    H235770   2.938   7.302   1.718  0.6766  0.1652  0.6701
 3859TIP3   OH235771   6.436   0.023   8.541  0.8634  0.4442  0.2612
 3859TIP3    H135772   6.442   0.038   8.446 -1.7863  0.4353 -0.0003
 3859TIP3    H235773   6.421  -0.071   8.549 -3.7117  0.9408  0.1684
 3860TIP3   OH235774   6.322   5.655   1.588 -0.1372  0.1583  0.0475
 3860TIP3    H135775   6.281   5.599   1.653  1.7737  0.3980  1.5625
 3860TIP3    H235776   6.408   5.615   1.572  0.4194  1.4696 -0.4463
 3861TIP3   OH235777   3.789   3.770   0.088 -0.1035 -0.0129 -0.3167
 3861TIP3    H135778   3.763   3.766   0.180 -1.7318  0.0428 -0.7401
 3861TIP3    H235779   3.876   3.729   0.086 -1.0877 -2.3814  0.8967
 3862TIP3   OH235780   5.306   2.795   8.811  0.2386 -0.5190 -0.0028
 3862TIP3    H135781   5.347   2.767   8.893  0.5221  1.3503  0.5497
 3862TIP3    H235782   5.213   2.802   8.832  0.4918  1.4808  0.6912
 3863TIP3   OH235783   4.781   5.977   7.042 -0.4111  0.3148 -0.5717
 3863TIP3    H135784   4.687   5.970   7.056 -0.1709 -0.0041  1.2056
 3863TIP3    H235785   4.811   5.886   7.036 -0.2739  0.4214 -1.8293
 3864TIP3   OH235786   1.122   4.422   9.736 -0.3822 -0.4999 -0.4799
 3864TIP3    H135787   1.046   4.373   9.702 -0.4605 -0.1012 -0.8966
 3864TIP3    H235788   1.125   4.501   9.682 -2.0642  1.4677  2.0821
 3865TIP3   OH235789   2.441   5.124   8.352 -0.2404  0.4619 -0.1744
 3865TIP3    H135790   2.450   5.030   8.336  1.4636  0.5219  0.3080
 3865TIP3    H235791   2.379   5.130   8.424 -1.0457 -0.2256 -0.7746
 3866TIP3   OH235792   7.580   6.162   7.669  0.8579 -0.5688 -0.4368
 3866TIP3    H135793   7.621   6.115   7.741  0.3210  0.2986  0.4632
 3866TIP3    H235794   7.487   6.139   7.674  0.9168 -1.0228 -1.2706
 3867TIP3   OH235795   6.880   0.184   0.946 -0.0718  0.4764 -0.3097
 3867TIP3    H135796   6.793   0.211   0.974 -0.2399 -0.6914  0.3402
 3867TIP3    H235797   6.869   0.152   0.857  0.2293  2.9756 -1.3192
 3868TIP3   OH235798   4.860   7.094   0.294 -0.6262  0.2800  0.5592
 3868TIP3    H135799   4.839   7.044   0.373 -0.1591 -0.2517  0.3568
 3868TIP3    H235800   4.870   7.184   0.325 -1.5643  0.2707  0.9147
 3869TIP3   OH235801   2.306   1.916   0.273 -0.0832  0.0844  0.5422
 3869TIP3    H135802   2.264   1.830   0.279  2.5363 -1.2175  2.9074
 3869TIP3    H235803   2.268   1.967   0.344 -0.6991  0.4493 -0.0391
 3870TIP3   OH235804   1.366   3.769   0.044  0.1382  0.2659 -0.0592
 3870TIP3    H135805   1.380   3.856   0.083  2.0496 -0.7521  1.7558
 3870TIP3    H235806   1.280   3.742   0.076  0.3944  0.6941  1.0334
 3871TIP3   OH235807   6.641   0.626   8.415 -0.3629 -0.0624 -0.1969
 3871TIP3    H135808   6.651   0.618   8.320  1.1312  0.9154 -0.1531
 3871TIP3    H235809   6.689   0.551   8.450  1.5217  1.0956 -0.1740
 3872TIP3   OH235810   2.446   2.915   6.996  0.0815 -0.0186 -0.3837
 3872TIP3    H135811   2.422   2.905   7.088  1.1628 -2.4032 -0.2823
 3872TIP3    H235812   2.460   3.009   6.985 -1.6398  0.5328  1.4365
 3873TIP3   OH235813   5.404   2.163   2.065  0.1357 -0.0341  0.2192
 3873TIP3    H135814   5.377   2.071   2.074  0.9150 -0.4313 -1.1812
 3873TIP3    H235815   5.494   2.165   2.098 -0.8657  0.9139  3.1629
 3874TIP3   OH235816   6.306   5.399   2.138 -0.9422  0.0257  0.0717
 3874TIP3    H135817   6.328   5.455   2.064  2.5143  0.7868  1.4467
 3874TIP3    H235818   6.306   5.458   2.214 -0.9951 -1.2259  1.0865
 3875TIP3   OH235819   5.567   6.034   8.940  0.5703  0.3352 -0.1317
 3875TIP3    H135820   5.631   5.977   8.982 -0.1953  0.3210  1.0598
 3875TIP3    H235821   5.517   5.976   8.882  0.6495  0.0526  0.0832
 3876TIP3   OH235822   3.920   7.630   9.191 -0.4795  0.4959  0.1186
 3876TIP3    H135823   3.915   7.665   9.280 -1.9787  1.8911 -0.4565
 3876TIP3    H235824   3.936   7.706   9.136 -1.4701 -0.0444 -0.9714
 3877TIP3   OH235825   5.859   2.665   0.113 -0.4800 -0.2585  0.1627
 3877TIP3    H135826   5.812   2.593   0.071 -2.9368  0.8518  0.8370
 3877TIP3    H235827   5.849   2.738   0.053 -0.5103  0.2706  0.8047
 3878TIP3   OH235828   2.524   6.380   0.372  0.5787 -0.1108  0.0499
 3878TIP3    H135829   2.462   6.450   0.353  0.9276  0.5892  1.3545
 3878TIP3    H235830   2.518   6.321   0.297 -0.2672  0.9254 -0.7201
 3879TIP3   OH235831   1.713   5.722   2.286 -0.3413 -0.0256 -0.3000
 3879TIP3    H135832   1.617   5.720   2.292 -0.4364 -0.5294 -1.7329
 3879TIP3    H235833   1.735   5.657   2.219  1.1713 -1.5530  1.5367
 3880TIP3   OH235834   3.485   0.703   9.385 -0.3992  0.0400  0.0932
 3880TIP3    H135835   3.579   0.689   9.377 -0.4645 -0.8522  0.8133
 3880TIP3    H235836   3.471   0.789   9.345  0.6283 -0.0727 -0.5598
 3881TIP3   OH235837   3.829   5.763   9.423 -0.0684 -0.4241  0.3386
 3881TIP3    H135838   3.884   5.798   9.493 -0.5198  0.2470  0.3578
 3881TIP3    H235839   3.797   5.680   9.458  0.8113 -0.7589  0.3822
 3882TIP3   OH235840   2.303   0.589   1.466 -0.0112 -0.0944 -0.4801
 3882TIP3    H135841   2.357   0.658   1.428  0.2894  0.0242  0.1380
 3882TIP3    H235842   2.357   0.554   1.537 -0.8041  0.1250  0.2440
 3883TIP3   OH235843   4.651   4.641   2.264  0.2016  0.1632  0.6158
 3883TIP3    H135844   4.651   4.669   2.172  0.7836 -2.4219 -0.2672
 3883TIP3    H235845   4.674   4.719   2.313 -0.2512  1.6611 -1.4248
 3884TIP3   OH235846   6.702   3.970   1.280  0.0449  0.2920 -0.2761
 3884TIP3    H135847   6.620   4.003   1.242 -0.5651 -1.1259 -0.2797
 3884TIP3    H235848   6.737   4.043   1.330 -1.6119  0.7214  0.3228
 3885TIP3   OH235849   1.385   4.913   8.521  0.2151  0.3336  0.1693
 3885TIP3    H135850   1.400   4.866   8.603 -1.7315 -2.9542 -1.1358
 3885TIP3    H235851   1.295   4.946   8.529  0.2418  0.5535 -0.3951
 3886TIP3   OH235852   5.755   2.827   1.340 -0.1382 -0.7759 -0.5091
 3886TIP3    H135853   5.834   2.827   1.394 -0.4219  0.1105 -0.0865
 3886TIP3    H235854   5.690   2.780   1.393  0.0509 -1.3592 -0.7869
 3887TIP3   OH235855   6.283   3.616   0.127  0.0845 -0.2386  1.0056
 3887TIP3    H135856   6.211   3.586   0.182 -0.0205  0.9760  1.5529
 3887TIP3    H235857   6.289   3.710   0.144  0.3935  0.0755 -0.6783
 3888TIP3   OH235858   0.045   4.156   0.395 -0.2174  0.8047  0.5081
 3888TIP3    H135859   0.032   4.163   0.301  4.4426  1.1029 -0.3687
 3888TIP3    H235860   0.082   4.241   0.421 -0.5227  0.4104  2.4055
 3889TIP3   OH235861   6.066   6.585   9.730 -0.7455  0.2332 -0.3415
 3889TIP3    H135862   6.089   6.622   9.645 -2.9272 -1.5320 -1.8224
 3889TIP3    H235863   6.124   6.510   9.740  1.3508  1.9210  1.0867
 3890TIP3   OH235864   6.014   0.419   9.428 -0.0687  0.0708 -0.2770
 3890TIP3    H135865   5.973   0.359   9.367 -1.2349  0.1776  0.3792
 3890TIP3    H235866   6.061   0.481   9.373 -2.2386  1.0148 -1.1763
 3891TIP3   OH235867   6.292   1.838   1.322 -0.2467 -0.3049  0.9375
 3891TIP3    H135868   6.345   1.809   1.396 -1.4264  1.8882  2.7651
 3891TIP3    H235869   6.322   1.927   1.304 -0.2218 -0.6597 -1.0650
 3892TIP3   OH235870   7.401   5.620   9.274 -0.0776 -0.1208 -0.2036
 3892TIP3    H135871   7.311   5.598   9.250  0.3382 -0.3448 -1.6645
 3892TIP3    H235872   7.408   5.714   9.255 -0.5869  0.3879  1.9114
 3893TIP3   OH235873   6.230   1.838   2.444  0.0977  0.0776  0.2294
 3893TIP3    H135874   6.153   1.888   2.418  0.5990  1.0743  0.6073
 3893TIP3    H235875   6.273   1.814   2.362 -0.0572  0.4243  0.0460
 3894TIP3   OH235876   1.748   5.312   2.725 -0.4804 -0.4048  0.3818
 3894TIP3    H135877   1.685   5.264   2.779  0.7821 -0.3446  1.9873
 3894TIP3    H235878   1.760   5.396   2.770  2.1609 -1.1575  1.2707
 3895TIP3   OH235879   0.304   4.546   8.413  0.4122 -0.3662  0.0222
 3895TIP3    H135880   0.247   4.607   8.368 -0.8915 -1.6989 -0.2408
 3895TIP3    H235881   0.245   4.500   8.474  2.0589  1.3061  3.1038
 3896TIP3   OH235882   6.676   7.577   1.243 -0.0135 -0.1503  0.4820
 3896TIP3    H135883   6.745   7.628   1.286  0.3035 -0.3129  0.1700
 3896TIP3    H235884   6.602   7.580   1.304  0.3650 -0.2142  0.9430
 3897TIP3   OH235885   7.069   4.859   7.895 -0.0653 -0.9109 -0.5279
 3897TIP3    H135886   7.015   4.827   7.968 -0.9353 -0.4776 -0.9734
 3897TIP3    H235887   7.007   4.881   7.827  0.5468  1.1133 -0.4836
 3898TIP3   OH235888   4.041   3.061   7.382 -0.1355  0.0544 -0.8307
 3898TIP3    H135889   4.040   2.966   7.376 -1.1662  0.0373 -0.5202
 3898TIP3    H235890   4.133   3.085   7.370  0.3808 -1.0688  0.6521
 3899TIP3   OH235891   3.419   0.869   1.418  0.0215  0.1617  0.2238
 3899TIP3    H135892   3.348   0.923   1.383  0.6398  0.3151 -0.8426
 3899TIP3    H235893   3.384   0.780   1.416 -0.4561  0.3352  0.5566
 3900TIP3   OH235894   3.165   3.860   1.786 -0.4808 -0.8607  0.2816
 3900TIP3    H135895   3.158   3.825   1.698  0.3827 -0.3918  0.0145
 3900TIP3    H235896   3.257   3.850   1.809 -0.2240  1.0084  0.2672
 3901TIP3   OH235897   3.078   3.221   1.732 -0.3971  0.8923 -0.6400
 3901TIP3    H135898   3.040   3.144   1.774  0.4442  0.5152 -0.5324
 3901TIP3    H235899   3.165   3.229   1.773  0.8138  0.0142 -2.8756
 3902TIP3   OH235900   3.299   0.963   1.997  0.0097  0.2105  0.4698
 3902TIP3    H135901   3.382   0.933   2.032  0.7097  2.5623  1.0341
 3902TIP3    H235902   3.316   0.981   1.905 -0.2053 -0.3885  0.3090
 3903TIP3   OH235903   3.199   4.209   9.201 -0.4365 -0.2561 -0.2388
 3903TIP3    H135904   3.166   4.265   9.132 -0.9493  1.4167  1.2920
 3903TIP3    H235905   3.148   4.233   9.279  2.2236  0.2528  1.4857
 3904TIP3   OH235906   3.408   5.132   1.578  0.3122  0.1525  0.0603
 3904TIP3    H135907   3.438   5.173   1.497 -2.2219  1.3240 -0.3819
 3904TIP3    H235908   3.469   5.059   1.592  1.5568  0.6567 -2.2101
 3905TIP3   OH235909   7.256   7.380   1.380  0.2031  0.4269 -0.2277
 3905TIP3    H135910   7.232   7.400   1.471  2.4857 -0.4851  0.6370
 3905TIP3    H235911   7.224   7.291   1.365 -2.7395  1.5384 -1.3827
 3906TIP3   OH235912   7.541   0.266   9.138 -0.4607 -0.4890 -0.1315
 3906TIP3    H135913   7.502   0.348   9.166  0.8915 -0.2545  1.1708
 3906TIP3    H235914   7.592   0.288   9.060 -2.4136 -0.7157 -1.5825
 3907TIP3   OH235915   6.426   2.414   9.556  0.1663 -0.3081  0.5474
 3907TIP3    H135916   6.341   2.398   9.514 -0.3104  1.8636  0.5772
 3907TIP3    H235917   6.490   2.377   9.495 -0.5830  1.6688 -1.6067
 3908TIP3   OH235918   1.738   3.207   1.963 -0.4800 -0.3885 -0.7093
 3908TIP3    H135919   1.700   3.137   2.016  3.1907 -2.5673 -0.6270
 3908TIP3    H235920   1.818   3.232   2.010  0.4345  0.9747 -2.8559
 3909TIP3   OH235921   6.699   6.144   1.389 -0.0296 -0.6420 -0.1046
 3909TIP3    H135922   6.668   6.131   1.299  1.4896  0.5291 -0.8541
 3909TIP3    H235923   6.784   6.099   1.391 -1.1138 -2.8509  1.5577
 3910TIP3   OH235924   3.531   5.785   0.885  0.7346  0.3656 -0.0196
 3910TIP3    H135925   3.545   5.875   0.914  1.3067 -0.2619  1.7703
 3910TIP3    H235926   3.490   5.741   0.960  1.2812 -1.0764 -0.5332
 3911TIP3   OH235927   1.423   3.807   1.800 -0.1023 -0.1778  0.3233
 3911TIP3    H135928   1.375   3.793   1.718  1.2509  0.5438 -0.6290
 3911TIP3    H235929   1.510   3.835   1.772  0.5757 -0.4987  2.0170
 3912TIP3   OH235930   4.983   6.847   1.297  0.2987 -0.1167  0.3003
 3912TIP3    H135931   4.935   6.824   1.218 -0.1700 -1.3090  0.8915
 3912TIP3    H235932   4.951   6.934   1.321  0.8749  0.5134 -1.1178
 3913TIP3   OH235933   3.464   4.352   1.753 -0.2117 -0.1157 -0.3403
 3913TIP3    H135934   3.369   4.362   1.747 -0.5454 -2.5546 -0.2026
 3913TIP3    H235935   3.488   4.304   1.673  0.7580 -0.3336  0.0671
 3914TIP3   OH235936   4.918   3.234   0.758 -0.1534  0.3084 -0.8353
 3914TIP3    H135937   4.943   3.265   0.844 -0.2564  0.3046 -0.8042
 3914TIP3    H235938   4.993   3.254   0.702  0.6770 -1.3471 -0.3615
 3915TIP3   OH235939   5.369   5.680   8.516  0.5747  0.6909 -0.0864
 3915TIP3    H135940   5.426   5.754   8.538  1.4410 -0.2201  0.8780
 3915TIP3    H235941   5.282   5.706   8.547  0.3480  2.2153 -1.8183
 3916TIP3   OH235942   3.760   3.192   9.345  0.4696 -0.5750  0.4090
 3916TIP3    H135943   3.732   3.102   9.359 -0.7864 -0.0808  1.1876
 3916TIP3    H235944   3.686   3.245   9.372  0.8510  0.6867 -0.8898
 3917TIP3   OH235945   4.082   6.297   8.146  0.3862 -0.7112  0.0959
 3917TIP3    H135946   4.003   6.254   8.180  0.7853 -0.1187  1.9078
 3917TIP3    H235947   4.094   6.260   8.058 -2.6909  0.2607 -0.8377
 3918TIP3   OH235948   2.595   3.741   0.495 -0.1203  0.2871  0.1508
 3918TIP3    H135949   2.688   3.764   0.494  0.0999 -0.5147  0.9115
 3918TIP3    H235950   2.593   3.648   0.515 -1.0794  0.1997 -0.2989
 3919TIP3   OH235951   3.705   1.072   2.239  0.3130 -0.1137  0.0958
 3919TIP3    H135952   3.735   1.009   2.305  0.1434 -0.9567 -0.6211
 3919TIP3    H235953   3.774   1.138   2.237  0.3416 -0.0886  1.0889
 3920TIP3   OH235954   3.968   5.460   0.862  0.2600  0.0515 -0.2804
 3920TIP3    H135955   3.893   5.450   0.920  0.2561 -0.2966 -0.3448
 3920TIP3    H235956   3.929   5.475   0.776  0.2577 -0.6845 -0.4132
 3921TIP3   OH235957   3.288   0.798   8.181  0.8256  0.3219  0.1326
 3921TIP3    H135958   3.214   0.767   8.234 -0.2560 -0.0238 -1.5172
 3921TIP3    H235959   3.272   0.892   8.171  1.2336  0.4578  0.7087
 3922TIP3   OH235960   1.895   1.824   9.658  0.6278 -0.1201  0.4772
 3922TIP3    H135961   1.954   1.751   9.672  0.4869 -0.0181  1.6799
 3922TIP3    H235962   1.826   1.790   9.601  0.7611 -0.8172  0.7313
 3923TIP3   OH235963   5.882   4.317   0.184  0.1813  0.2191  0.0231
 3923TIP3    H135964   5.964   4.270   0.200 -0.4329 -0.3749  1.6374
 3923TIP3    H235965   5.818   4.249   0.166 -0.3210  0.5674  0.4850
 3924TIP3   OH235966   4.707   0.107   0.708  0.3649 -0.1633  0.4971
 3924TIP3    H135967   4.635   0.116   0.646  1.4593  0.3464 -0.7611
 3924TIP3    H235968   4.765   0.180   0.686  0.6658  0.1780  2.3146
 3925TIP3   OH235969   6.262   4.155   7.850  0.2022 -0.2486 -0.4066
 3925TIP3    H135970   6.232   4.229   7.796 -0.9872  0.9652  1.7412
 3925TIP3    H235971   6.237   4.077   7.801 -2.4786  0.7862 -0.8504
 3926TIP3   OH235972   0.248   7.316   1.682 -0.3914 -0.2260  0.3360
 3926TIP3    H135973   0.291   7.230   1.687  1.2397  0.4791 -0.6527
 3926TIP3    H235974   0.313   7.377   1.715 -2.1265  0.5293  2.6345
 3927TIP3   OH235975   1.200   7.418   8.853  0.1267  0.4085 -0.1154
 3927TIP3    H135976   1.149   7.344   8.888 -0.2309  0.8615  0.3385
 3927TIP3    H235977   1.291   7.397   8.876  0.2769 -0.8412 -1.7122
 3928TIP3   OH235978   5.494   5.655   9.780  0.2576 -0.5522 -0.4330
 3928TIP3    H135979   5.536   5.603   9.849 -0.7598  2.6768  2.9909
 3928TIP3    H235980   5.405   5.620   9.774 -0.5058  0.6698  2.0388
 3929TIP3   OH235981   1.923   4.817   0.094  0.2284 -0.2577 -0.3330
 3929TIP3    H135982   1.834   4.842   0.069  0.1965 -0.6140 -0.5796
 3929TIP3    H235983   1.913   4.733   0.139  0.4470 -0.3467 -0.4471
 3930TIP3   OH235984   1.223   6.964   2.355  0.0019  0.0133  0.3054
 3930TIP3    H135985   1.129   6.961   2.374  0.4085 -1.5832  2.5376
 3930TIP3    H235986   1.249   6.872   2.346  1.6374  0.2897  1.6453
 3931TIP3   OH235987   3.721   0.722   7.997  0.2975 -0.0303 -0.6872
 3931TIP3    H135988   3.677   0.793   7.951 -0.5573  0.6209  1.0394
 3931TIP3    H235989   3.762   0.765   8.073 -2.0343 -1.5836  1.6145
 3932TIP3   OH235990   6.808   4.020   0.044  0.0691 -0.0393 -0.1924
 3932TIP3    H135991   6.745   4.017   0.117  1.4009  0.5332  1.0222
 3932TIP3    H235992   6.802   3.933   0.004 -1.1771 -0.1347  0.1634
 3933TIP3   OH235993   3.488   0.080   1.227  0.5605  0.2226  0.2951
 3933TIP3    H135994   3.582   0.086   1.208  0.3862  1.2265 -0.3556
 3933TIP3    H235995   3.475   0.139   1.301  0.2237  1.2307 -0.5461
 3934TIP3   OH235996   6.044   4.389   1.390 -0.4599  0.0044  0.5011
 3934TIP3    H135997   6.110   4.442   1.436  1.1768 -0.9045 -0.6766
 3934TIP3    H235998   6.058   4.300   1.422  0.2195 -0.5242 -1.1229
 3935TIP3   OH235999   7.390   3.712   2.042  0.2068  0.5157  0.0752
 3935TIP3    H136000   7.301   3.705   2.078 -0.0330 -0.7462 -0.7115
 3935TIP3    H236001   7.423   3.795   2.076 -0.7668  0.3484  1.5140
 3936TIP3   OH236002   4.685   6.155   0.484  0.1687 -0.1737 -0.0758
 3936TIP3    H136003   4.690   6.227   0.421 -2.5067 -0.6710 -1.0124
 3936TIP3    H236004   4.743   6.181   0.555  0.7618  1.9819 -1.2545
 3937TIP3   OH236005   4.500   3.845   8.061  0.3422 -0.0480  0.3979
 3937TIP3    H136006   4.539   3.788   8.128  1.0311 -0.2701 -0.1753
 3937TIP3    H236007   4.527   3.806   7.978  0.9290  1.1790 -0.0161
 3938TIP3   OH236008   7.347   2.695   9.125 -0.3681 -0.0489  0.2928
 3938TIP3    H136009   7.322   2.610   9.159  1.2606 -0.6709  0.0060
 3938TIP3    H236010   7.270   2.750   9.140 -0.8358 -1.0971  2.0869
 3939TIP3   OH236011   2.117   6.527   9.553 -0.0280 -0.1087 -0.1305
 3939TIP3    H136012   2.160   6.553   9.635  1.6270 -2.2248 -0.2486
 3939TIP3    H236013   2.067   6.604   9.527  1.0847  1.3488  1.7752
 3940TIP3   OH236014   4.751   0.344   1.793  0.2743 -0.1324  0.1359
 3940TIP3    H136015   4.808   0.395   1.735 -2.6138  1.5120 -1.4353
 3940TIP3    H236016   4.751   0.393   1.876  0.2037  0.5426 -0.2556
 3941TIP3   OH236017   3.091   5.379   7.186  0.3734  0.7426  0.5041
 3941TIP3    H136018   3.091   5.413   7.097  0.3503 -0.9432 -0.1643
 3941TIP3    H236019   3.184   5.372   7.209  0.4199 -0.2848  0.0236
 3942TIP3   OH236020   7.523   6.811   1.730 -0.3348 -0.1009 -0.6213
 3942TIP3    H136021   7.527   6.850   1.817 -0.8447  1.2040 -1.1612
 3942TIP3    H236022   7.573   6.871   1.674  0.9217 -1.4903 -1.0452
 3943TIP3   OH236023   4.584   2.383   1.655  0.2731 -0.1000  0.9232
 3943TIP3    H136024   4.530   2.346   1.724  0.4511 -0.2621  0.9778
 3943TIP3    H236025   4.562   2.332   1.577 -2.1288  1.9873  0.1264
 3944TIP3   OH236026   6.617   2.276   8.800  0.3403 -0.1402 -0.0578
 3944TIP3    H136027   6.701   2.274   8.845  1.1562  1.5764 -1.3889
 3944TIP3    H236028   6.637   2.249   8.711  0.0512  2.6700 -1.0825
 3945TIP3   OH236029   1.732   7.462   8.241  0.3328 -0.1349 -0.1966
 3945TIP3    H136030   1.694   7.479   8.327  1.0869 -0.6407  0.2549
 3945TIP3    H236031   1.781   7.541   8.220 -1.5942  0.8620 -1.1650
 3946TIP3   OH236032   5.572   3.154   1.019  0.5215  0.2791  0.0558
 3946TIP3    H136033   5.532   3.082   0.971  1.7935 -0.1408 -0.4333
 3946TIP3    H236034   5.645   3.113   1.066  0.8327  1.1262  0.3287
 3947TIP3   OH236035   5.601   6.962   2.440  0.2478 -0.5341 -0.2984
 3947TIP3    H136036   5.610   6.955   2.535 -0.4892 -0.5639 -0.2258
 3947TIP3    H236037   5.550   6.885   2.414  1.2838 -1.0555 -0.8503
 3948TIP3   OH236038   2.681   4.037   1.256  0.5494  0.4647  0.3352
 3948TIP3    H136039   2.647   3.961   1.209 -0.4933  0.4881  1.0130
 3948TIP3    H236040   2.713   4.001   1.339  0.1223  0.7536  0.6253
 3949TIP3   OH236041   1.534   6.651   8.536 -0.3265  0.0635 -0.1084
 3949TIP3    H136042   1.501   6.563   8.519 -0.3164  0.2426 -1.1297
 3949TIP3    H236043   1.456   6.701   8.561 -0.2468 -0.3569  1.0026
 3950TIP3   OH236044   5.992   2.994   2.194  0.1172  0.0539 -0.4416
 3950TIP3    H136045   6.055   3.026   2.259 -1.4134  0.2269  1.0417
 3950TIP3    H236046   6.028   2.910   2.165  2.0814  1.1214 -1.2670
 3951TIP3   OH236047   3.425   7.024   1.715 -0.1952 -0.1808 -0.2818
 3951TIP3    H136048   3.332   7.023   1.690 -1.0586 -0.4265  2.5563
 3951TIP3    H236049   3.443   6.934   1.744  0.5335  0.1866  0.4328
 3952TIP3   OH236050   4.524   1.264   7.798  0.1139 -0.8979 -0.3302
 3952TIP3    H136051   4.452   1.314   7.837  0.4515 -0.2509 -0.5257
 3952TIP3    H236052   4.482   1.184   7.764 -0.4185 -0.7834  0.0418
 3953TIP3   OH236053   1.790   2.648   1.374 -0.0017  0.7571  0.6466
 3953TIP3    H136054   1.717   2.586   1.382  0.6123  0.1052  1.4182
 3953TIP3    H236055   1.852   2.605   1.315  0.3625  0.6870  1.0722
 3954TIP3   OH236056   3.878   3.170   1.217 -0.2630 -0.7212 -0.9787
 3954TIP3    H136057   3.945   3.103   1.230 -1.6311 -2.1043 -0.8796
 3954TIP3    H236058   3.832   3.176   1.301 -0.7939 -0.3711 -1.2884
 3955TIP3   OH236059   2.094   2.286   9.447  0.4511 -0.6246 -0.1656
 3955TIP3    H136060   2.080   2.197   9.479 -0.1626 -0.7571 -0.7864
 3955TIP3    H236061   2.152   2.275   9.372  1.4617 -0.3640  0.5546
 3956TIP3   OH236062   6.075   4.740   1.709  0.1272  0.1201 -1.0058
 3956TIP3    H136063   6.141   4.671   1.700 -0.3454 -0.7638  1.5121
 3956TIP3    H236064   5.992   4.696   1.694 -0.1536  0.1871  0.2323
 3957TIP3   OH236065   5.379   5.459   9.570  0.1121 -0.4721 -0.7520
 3957TIP3    H136066   5.429   5.534   9.538  0.6903 -0.4657  0.1291
 3957TIP3    H236067   5.330   5.429   9.494  1.1545 -0.2241 -1.5527
 3958TIP3   OH236068   5.606   0.473   9.480  0.2709 -0.5926  0.5340
 3958TIP3    H136069   5.616   0.559   9.440  1.1391  0.4516  2.8556
 3958TIP3    H236070   5.656   0.414   9.423 -1.4916  0.1070 -1.8713
 3959TIP3   OH236071   4.509   1.875   2.318  0.0633 -0.3413  0.2581
 3959TIP3    H136072   4.441   1.811   2.340 -1.4114  1.2396  0.5206
 3959TIP3    H236073   4.588   1.823   2.304 -0.4902 -2.0353  2.7995
 3960TIP3   OH236074   2.892   7.512   9.656  0.2964 -0.4213 -0.0439
 3960TIP3    H136075   2.988   7.521   9.659  0.3490 -1.1667  1.1338
 3960TIP3    H236076   2.878   7.418   9.640 -0.2568 -0.0935 -1.7552
 3961TIP3   OH236077   6.472   2.539   0.414 -0.0827  0.1652  0.2020
 3961TIP3    H136078   6.540   2.592   0.372 -0.2803 -0.6024 -1.1257
 3961TIP3    H236079   6.481   2.452   0.376 -0.7841 -0.3687  1.1955
 3962TIP3   OH236080   2.166   1.792   1.306  0.4218  0.2135 -0.0104
 3962TIP3    H136081   2.186   1.884   1.321 -1.8177  1.0274 -1.5191
 3962TIP3    H236082   2.248   1.754   1.276  0.7989  2.3882 -2.0420
 3963TIP3   OH236083   2.125   7.436   1.517  0.1494  0.6392  0.2437
 3963TIP3    H136084   2.119   7.492   1.594  1.6053 -0.6289  1.3360
 3963TIP3    H236085   2.196   7.473   1.465  0.6583  0.2342  0.6341
 3964TIP3   OH236086   2.698   3.606   0.120  0.0530 -0.0070 -0.1754
 3964TIP3    H136087   2.775   3.618   0.065 -0.5801 -1.9852 -1.6048
 3964TIP3    H236088   2.645   3.684   0.105  0.9713  0.5657 -0.5160
 3965TIP3   OH236089   7.662   2.540   7.725  0.0268 -0.3266 -0.2611
 3965TIP3    H136090   7.639   2.473   7.789 -0.1976 -0.0303 -0.0346
 3965TIP3    H236091   7.650   2.623   7.770 -0.8620 -0.0816 -0.9003
 3966TIP3   OH236092   5.186   6.159   9.959 -0.3972 -0.1439 -0.4625
 3966TIP3    H136093   5.126   6.120   9.895  0.0976  0.0104 -1.0362
 3966TIP3    H236094   5.130   6.192  10.029 -0.8611 -1.5398 -0.1460
 3967TIP3   OH236095   4.003   4.662   8.483 -0.2684 -0.2650  0.1770
 3967TIP3    H136096   4.086   4.620   8.463 -0.0915  0.1227  0.0877
 3967TIP3    H236097   3.987   4.641   8.575  0.0016 -0.2170  0.2351
 3968TIP3   OH236098   4.322   0.837   8.922  0.0770 -0.0936  0.6994
 3968TIP3    H136099   4.296   0.754   8.962  0.5264 -0.8506 -0.5035
 3968TIP3    H236100   4.244   0.892   8.925 -0.0110 -0.2481  2.2212
 3969TIP3   OH236101   0.600   5.548   6.953 -0.2366  0.3898  0.4825
 3969TIP3    H136102   0.642   5.625   6.913  1.2821 -0.4852  0.2884
 3969TIP3    H236103   0.645   5.538   7.037 -1.0047  0.1806  0.8792
 3970TIP3   OH236104   5.351   7.619   7.584 -0.7804 -0.2677  0.0645
 3970TIP3    H136105   5.302   7.607   7.503  0.6319 -0.9147 -0.7223
 3970TIP3    H236106   5.443   7.626   7.556 -0.4469  1.5311  1.4292
 3971TIP3   OH236107   2.715   2.490   8.417  0.2509  0.7295  0.2198
 3971TIP3    H136108   2.715   2.572   8.367 -0.5108  0.1047 -0.8586
 3971TIP3    H236109   2.629   2.489   8.459  0.5881  0.8733  0.9256
 3972TIP3   OH236110   5.000   7.374   9.998  0.2590  0.4353  0.1206
 3972TIP3    H136111   4.911   7.408   9.987 -0.1388 -0.5609  0.0828
 3972TIP3    H236112   5.044   7.394   9.916 -0.2476  0.0648 -0.2484
 3973TIP3   OH236113   4.406   0.749   7.665  0.0638 -0.3824  0.3364
 3973TIP3    H136114   4.454   0.672   7.632  1.8393  0.9598 -0.3586
 3973TIP3    H236115   4.443   0.764   7.752 -0.1075 -0.1519  0.3680
 3974TIP3   OH236116   0.674   6.531   1.674 -0.8288 -0.7570 -0.1426
 3974TIP3    H136117   0.723   6.450   1.657 -1.2605 -1.0630  0.0791
 3974TIP3    H236118   0.679   6.579   1.591 -0.6439 -1.0455 -0.2995
 3975TIP3   OH236119   4.043   3.064   9.942 -0.1473 -0.2899 -0.2411
 3975TIP3    H136120   3.964   3.118   9.948 -0.1582 -0.3175 -0.1346
 3975TIP3    H236121   4.112   3.116   9.983 -0.2294 -0.4921  0.1626
 3976TIP3   OH236122   0.066   1.814   0.505  0.5788  0.6537 -0.2814
 3976TIP3    H136123   0.132   1.752   0.474  0.6031  1.9986 -3.1695
 3976TIP3    H236124  -0.001   1.814   0.436 -0.2798  2.5475  0.4923
 3977TIP3   OH236125   3.071   3.085   8.441  0.3285 -0.3087 -0.1303
 3977TIP3    H136126   3.089   3.001   8.484 -1.0961 -0.6559 -0.1759
 3977TIP3    H236127   3.143   3.141   8.470  0.4119 -1.0621  1.2622
 3978TIP3   OH236128   7.387   3.536   7.762 -0.0698  0.3390  0.5279
 3978TIP3    H136129   7.430   3.520   7.846  1.4428  0.5780 -0.1752
 3978TIP3    H236130   7.317   3.472   7.759 -0.7108  0.8872  2.3413
 3979TIP3   OH236131   3.577   3.720   9.679  0.4220 -0.0491 -0.1736
 3979TIP3    H136132   3.516   3.794   9.687  2.3976  1.5072  1.7403
 3979TIP3    H236133   3.656   3.749   9.725  1.9722 -2.6725 -0.9827
 3980TIP3   OH236134   3.443   7.051   0.137 -0.0904 -0.8793  0.7149
 3980TIP3    H136135   3.451   7.032   0.230 -1.0028 -0.3905  0.9006
 3980TIP3    H236136   3.524   7.017   0.099 -0.4065 -2.5888  1.4354
 3981TIP3   OH236137   3.802   4.675   1.537  0.5948  0.0737 -0.0148
 3981TIP3    H136138   3.709   4.660   1.556  0.3787  0.1127 -0.9972
 3981TIP3    H236139   3.841   4.588   1.537  0.2833 -0.0710 -0.9704
 3982TIP3   OH236140   4.438   5.173   1.064  0.0843  0.1461 -0.2634
 3982TIP3    H136141   4.395   5.247   1.105  1.0172  0.1285  0.7789
 3982TIP3    H236142   4.516   5.210   1.023  0.3614 -0.2007 -0.0524
 3983TIP3   OH236143   4.826   1.413   9.209 -0.7753  0.2079  0.2900
 3983TIP3    H136144   4.908   1.379   9.244 -0.6634  1.0028  0.8304
 3983TIP3    H236145   4.758   1.356   9.247 -0.4712 -0.5581 -0.2968
 3984TIP3   OH236146   5.248   5.802   0.835 -1.0009  0.4129 -0.1346
 3984TIP3    H136147   5.250   5.725   0.892 -1.9568 -1.2469 -2.2166
 3984TIP3    H236148   5.335   5.804   0.795 -0.8331  0.6963  0.2335
 3985TIP3   OH236149   3.693   7.655   9.835 -0.2375 -0.3890 -0.4119
 3985TIP3    H136150   3.664   7.578   9.786  0.8425  0.2372 -2.1054
 3985TIP3    H236151   3.630   7.723   9.813  0.2225 -0.1191 -0.9125
 3986TIP3   OH236152   1.976   1.316   1.304 -0.3979  0.5397  0.5832
 3986TIP3    H136153   2.067   1.290   1.287 -0.9620  0.3235 -2.7588
 3986TIP3    H236154   1.926   1.276   1.233 -3.3416 -0.1645  2.8324
 3987TIP3   OH236155   2.295   2.015   8.745 -0.1978 -0.1563  0.4504
 3987TIP3    H136156   2.375   1.966   8.727  0.0142  0.0792  0.7360
 3987TIP3    H236157   2.322   2.083   8.807 -0.3024  0.8405 -0.5567
 3988TIP3   OH236158   5.174   4.956   0.909 -0.0053  0.2351 -0.0715
 3988TIP3    H136159   5.088   4.979   0.946 -0.6111  0.6550 -1.6435
 3988TIP3    H236160   5.164   4.972   0.815  0.6757 -3.0795 -0.8342
 3989TIP3   OH236161   4.436   2.965   0.680 -0.3104  0.4144  0.4033
 3989TIP3    H136162   4.497   2.972   0.607  0.0832 -0.4889  0.6345
 3989TIP3    H236163   4.451   3.045   0.731  0.1554  0.5518  0.0623
 3990TIP3   OH236164   7.272   1.091   8.801  0.4495  0.4295 -0.5786
 3990TIP3    H136165   7.255   1.050   8.886 -0.3308 -1.4112 -1.5376
 3990TIP3    H236166   7.272   1.185   8.818 -1.7181  0.1885  1.1223
 3991TIP3   OH236167   0.483   1.027   9.992  0.0349 -0.3028  0.4693
 3991TIP3    H136168   0.468   0.970  10.068 -1.3855 -0.5408  0.0264
 3991TIP3    H236169   0.399   1.070   9.977 -0.3033 -1.6570 -2.1174
 3992TIP3   OH236170   5.199   6.856   9.540  0.7626  0.1947  0.2932
 3992TIP3    H136171   5.154   6.939   9.558 -0.8822 -0.4928 -0.4123
 3992TIP3    H236172   5.194   6.846   9.445  1.1315 -0.6085  0.3457
 3993TIP3   OH236173   5.937   2.055   9.314  0.2872 -0.2065  0.5023
 3993TIP3    H136174   5.858   2.044   9.262  0.3696 -0.0403  0.3419
 3993TIP3    H236175   5.908   2.045   9.405  0.1411 -0.4728  0.4264
 3994TIP3   OH236176   7.050   2.089   1.046  0.5122 -0.5391  0.3797
 3994TIP3    H136177   7.143   2.073   1.036  0.5763 -0.4878  0.8785
 3994TIP3    H236178   7.020   2.023   1.108  0.8370  1.3381  2.7039
 3995TIP3   OH236179   6.642   4.559   0.412  0.0798 -0.1762 -0.5156
 3995TIP3    H136180   6.698   4.485   0.386 -1.2641 -1.5444  0.2843
 3995TIP3    H236181   6.700   4.615   0.464  0.8612 -1.3051 -0.1101
 3996TIP3   OH236182   3.604   3.802   2.156 -0.2652 -0.1519  0.0111
 3996TIP3    H136183   3.540   3.800   2.085 -0.4406 -0.8625  0.1780
 3996TIP3    H236184   3.575   3.734   2.216  0.7111 -0.5644  0.0351
 3997TIP3   OH236185   5.898   0.425   7.850  0.4500  0.3033  0.4754
 3997TIP3    H136186   5.823   0.475   7.882  0.6533  0.8653  0.0904
 3997TIP3    H236187   5.905   0.448   7.757  1.9985  1.4474  0.8315
 3998TIP3   OH236188   1.628   6.024   9.548 -0.1407  0.0471  0.5259
 3998TIP3    H136189   1.654   6.086   9.616  0.9769  1.1048 -0.8146
 3998TIP3    H236190   1.643   6.070   9.466 -3.0937 -0.5347 -0.4659
 3999TIP3   OH236191   4.862   1.940   9.615  0.3703  0.2188 -0.0695
 3999TIP3    H136192   4.828   1.855   9.645  1.1858  0.5964  2.1190
 3999TIP3    H236193   4.952   1.942   9.646 -0.6611  3.3603  3.4822
 4000TIP3   OH236194   4.796   0.666   0.305 -0.3070  0.4494 -0.3583
 4000TIP3    H136195   4.844   0.710   0.234 -0.4550  0.6845 -0.3115
 4000TIP3    H236196   4.771   0.737   0.365  0.8975  0.1251  0.5786
 4001TIP3   OH236197   2.594   1.322   8.362  0.0930  0.7354  0.1017
 4001TIP3    H136198   2.596   1.329   8.457 -2.1195  1.1443  0.1631
 4001TIP3    H236199   2.501   1.326   8.339  0.5048 -0.2395 -2.0193
 4002TIP3   OH236200   3.230   6.769   9.120  0.1538  0.0955 -0.1290
 4002TIP3    H136201   3.264   6.686   9.155  0.5087  0.2840 -0.0251
 4002TIP3    H236202   3.292   6.835   9.150 -0.5195  0.5011  0.4029
 4003TIP3   OH236203   7.510   5.941   8.452  0.6461 -0.0349  0.3156
 4003TIP3    H136204   7.471   5.853   8.448  0.2968 -0.0072  2.0544
 4003TIP3    H236205   7.589   5.935   8.399 -0.8863 -0.5376 -2.0598
 4004TIP3   OH236206   4.476   2.565   0.374  0.0206  0.0668 -0.6109
 4004TIP3    H136207   4.383   2.576   0.353 -0.1354  1.0970  0.5296
 4004TIP3    H236208   4.519   2.639   0.331 -0.1224  1.3849  1.3796
 4005TIP3   OH236209   6.892   1.575   0.132  0.5835 -0.0683 -0.1561
 4005TIP3    H136210   6.932   1.532   0.056 -0.7726 -1.8218  0.0599
 4005TIP3    H236211   6.798   1.572   0.114  0.3687  1.8522  0.4307
 4006TIP3   OH236212   0.707   2.117   1.992  0.5094  0.1814  0.0056
 4006TIP3    H136213   0.712   2.160   1.906 -0.4600 -1.0987 -0.7166
 4006TIP3    H236214   0.733   2.186   2.054  2.0296  0.9058 -1.3500
 4007TIP3   OH236215   0.912   6.938   7.013  0.4150 -0.7761  0.0189
 4007TIP3    H136216   0.953   7.012   6.968 -0.0504 -0.5868 -0.1036
 4007TIP3    H236217   0.983   6.874   7.024  1.0870  0.1234  1.1000
 4008TIP3   OH236218   0.640   7.528   0.910 -0.1051 -0.1999 -0.4971
 4008TIP3    H136219   0.696   7.477   0.968 -0.1539 -0.3414 -0.5740
 4008TIP3    H236220   0.678   7.516   0.823  0.5219  0.7643 -0.3731
 4009TIP3   OH236221   5.027   2.716   8.952 -0.1876  0.5118  0.1545
 4009TIP3    H136222   5.001   2.652   8.885  3.9036 -0.2188 -0.9880
 4009TIP3    H236223   5.083   2.667   9.012  1.4379  2.5637  0.4237
 4010TIP3   OH236224   4.617   5.639   2.100 -0.0654 -0.1564 -0.4970
 4010TIP3    H136225   4.606   5.597   2.185  0.1187 -0.0120 -0.4011
 4010TIP3    H236226   4.683   5.585   2.056 -0.0780 -0.1655 -0.5045
 4011TIP3   OH236227   3.003   0.486   8.724 -0.8829 -0.2207  0.4817
 4011TIP3    H136228   3.039   0.568   8.757 -1.8799 -0.0239  1.1656
 4011TIP3    H236229   2.950   0.511   8.648  2.0229 -0.7669 -1.8864
 4012TIP3   OH236230   4.212   3.852   1.332 -0.1312 -0.4545  0.2469
 4012TIP3    H136231   4.188   3.821   1.245 -1.3866 -1.1425  0.8106
 4012TIP3    H236232   4.271   3.926   1.316  0.5624 -1.2758 -1.1562
 4013TIP3   OH236233   6.934   2.325   0.897  0.0317  0.1452  0.6690
 4013TIP3    H136234   6.904   2.404   0.943  1.4651  0.7926  0.5595
 4013TIP3    H236235   7.011   2.296   0.946 -0.0168 -0.7324  0.2453
 4014TIP3   OH236236   0.877   0.601   9.425 -0.3849 -0.3487 -0.3694
 4014TIP3    H136237   0.820   0.630   9.355  0.2670  0.5014 -0.5700
 4014TIP3    H236238   0.832   0.626   9.506  0.5369  2.1291 -0.5316
 4015TIP3   OH236239   2.146   6.340   9.349 -0.0851  0.0097  0.1666
 4015TIP3    H136240   2.113   6.405   9.286  0.6355 -0.1453 -0.3854
 4015TIP3    H236241   2.157   6.389   9.430  0.3788  0.5662 -0.2207
 4016TIP3   OH236242   7.029   4.754   8.229 -0.2844 -0.2391 -0.1105
 4016TIP3    H136243   6.965   4.686   8.207 -0.5540  0.0483 -0.2363
 4016TIP3    H236244   7.095   4.710   8.282 -0.6823 -0.5024  0.1688
 4017TIP3   OH236245   3.341   3.253   8.537 -0.0165 -0.1230  0.4030
 4017TIP3    H136246   3.416   3.264   8.595  0.8376 -1.1940 -0.4423
 4017TIP3    H236247   3.330   3.338   8.495  2.6714 -0.6700 -1.6799
 4018TIP3   OH236248   0.588   5.126   7.685  0.2343 -0.0724  0.0180
 4018TIP3    H136249   0.564   5.123   7.593 -0.7029 -1.1863  0.2817
 4018TIP3    H236250   0.549   5.208   7.717 -1.4489 -0.7991 -0.0657
 4019TIP3   OH236251   5.281   6.288   2.642  0.5175 -0.2048  0.2093
 4019TIP3    H136252   5.372   6.317   2.637 -0.0917  1.6148 -2.3102
 4019TIP3    H236253   5.276   6.215   2.580 -0.0028  0.6707 -0.8197
 4020TIP3   OH236254   1.248   6.322   0.097 -0.3173  0.3054  0.0511
 4020TIP3    H136255   1.172   6.368   0.133  0.1167  1.0670  0.0044
 4020TIP3    H236256   1.244   6.235   0.137 -1.2330  0.3259  0.0146
 4021TIP3   OH236257   5.109   6.551   9.657  0.8081 -0.3808  0.1288
 4021TIP3    H136258   5.170   6.624   9.666  2.5228 -1.6681 -0.5826
 4021TIP3    H236259   5.159   6.483   9.613 -0.6458 -2.1333  1.0636
 4022TIP3   OH236260   3.495   7.238   9.236  0.1088  0.3057 -0.5956
 4022TIP3    H136261   3.567   7.299   9.222  0.2792  0.1431 -0.4297
 4022TIP3    H236262   3.504   7.210   9.327  0.9602 -1.1431 -1.0869
 4023TIP3   OH236263   6.515   1.475   8.903 -0.5693 -0.0886 -0.8654
 4023TIP3    H136264   6.461   1.429   8.967  0.8938  0.9652  1.2474
 4023TIP3    H236265   6.573   1.408   8.867 -1.4832 -0.7129 -1.2203
 4024TIP3   OH236266   0.418   2.188   0.766 -0.2412  0.5956  0.2561
 4024TIP3    H136267   0.445   2.098   0.745  1.1243  1.0252  0.0812
 4024TIP3    H236268   0.326   2.191   0.741  0.5988  0.3686 -3.5959
 4025TIP3   OH236269   4.910   2.179   8.587  0.6471 -0.2802 -0.1529
 4025TIP3    H136270   4.860   2.108   8.547 -1.9315  0.6250  1.2031
 4025TIP3    H236271   5.001   2.163   8.561 -0.0745 -3.0688 -1.2797
 4026TIP3   OH236272   1.300   0.351   9.473 -0.4153  0.3457 -0.0777
 4026TIP3    H136273   1.210   0.321   9.488 -0.0302 -1.0215 -0.3294
 4026TIP3    H236274   1.329   0.383   9.558 -0.4753 -1.1213  0.5188
 4027TIP3   OH236275   3.828   3.712   9.149 -0.6855 -0.0220  0.1235
 4027TIP3    H136276   3.818   3.617   9.159 -1.2852  0.0435  0.1830
 4027TIP3    H236277   3.912   3.723   9.105 -1.2743 -0.6529 -1.2124
 4028TIP3   OH236278   1.378   2.539   7.530  0.3579  0.3915  0.3948
 4028TIP3    H136279   1.372   2.453   7.571 -0.7893  0.8700  1.2741
 4028TIP3    H236280   1.319   2.534   7.455  1.9808 -0.2789 -0.8996
 4029TIP3   OH236281   1.708   4.131   7.174 -0.0145 -0.4738  1.1001
 4029TIP3    H136282   1.702   4.153   7.082 -0.4522  2.3349  1.7299
 4029TIP3    H236283   1.645   4.060   7.186  0.1374 -0.9651 -0.7370
 4030TIP3   OH236284   7.594   4.050   8.245 -0.2942  0.4131  0.3084
 4030TIP3    H136285   7.517   4.097   8.279 -1.0192  0.0830 -0.8185
 4030TIP3    H236286   7.557   3.981   8.190  0.8134  0.3714 -0.4122
 4031TIP3   OH236287   6.311   2.369   1.402 -0.0604 -0.4985  1.2562
 4031TIP3    H136288   6.368   2.438   1.435  0.0710  1.2262 -2.1080
 4031TIP3    H236289   6.228   2.414   1.385  0.6208 -0.4261 -2.9333
 4032TIP3   OH236290   4.413   5.477   9.187 -0.0102  0.2920 -0.1352
 4032TIP3    H136291   4.350   5.515   9.248  2.1581  3.8180  0.2283
 4032TIP3    H236292   4.473   5.426   9.241  0.4894  1.4076  0.4042
 4033TIP3   OH236293   6.165   2.800   7.835  0.0367  0.2963  0.0296
 4033TIP3    H136294   6.071   2.801   7.818 -0.2383 -2.6373  0.7843
 4033TIP3    H236295   6.184   2.886   7.872 -2.2762  1.0670 -0.4076
 4034TIP3   OH236296   0.309   5.913   1.173 -0.5357 -0.0770  0.0394
 4034TIP3    H136297   0.276   5.991   1.218  0.0527  0.1087  0.1606
 4034TIP3    H236298   0.236   5.883   1.120 -0.3852  1.2831 -0.9699
 4035TIP3   OH236299   3.064   0.364   1.523 -0.3006  0.1645 -0.3426
 4035TIP3    H136300   3.070   0.271   1.546  0.1699 -0.3131 -2.1978
 4035TIP3    H236301   3.146   0.402   1.552 -0.6165  0.0835  0.6948
 4036TIP3   OH236302   1.883   1.647   0.337  0.3187  0.3604 -0.4496
 4036TIP3    H136303   1.793   1.618   0.353  0.5819 -1.1694 -1.5142
 4036TIP3    H236304   1.889   1.731   0.381 -0.8350 -0.6939  1.9004
 4037TIP3   OH236305   2.356   2.603   8.436  0.5916 -0.1151  0.0974
 4037TIP3    H136306   2.312   2.651   8.366 -0.4031 -2.1321 -0.7394
 4037TIP3    H236307   2.329   2.648   8.517 -0.3715  0.6528 -0.6222
 4038TIP3   OH236308   3.050   6.590   0.274  0.3568 -0.0726 -0.4691
 4038TIP3    H136309   3.127   6.610   0.220  0.8026 -1.1216 -0.2460
 4038TIP3    H236310   3.066   6.502   0.307 -0.5777  0.0050  0.2359
 4039TIP3   OH236311   2.094   2.555   0.457  0.3982  0.1433 -0.0553
 4039TIP3    H136312   2.165   2.499   0.424  1.3494  1.4382 -0.2789
 4039TIP3    H236313   2.053   2.502   0.526  0.5415 -1.2596 -0.9951
 4040TIP3   OH236314   1.701   0.647   8.173  0.5928  0.1982  0.4721
 4040TIP3    H136315   1.759   0.646   8.098  0.9776  1.0788  0.7507
 4040TIP3    H236316   1.614   0.665   8.137  0.7121  0.2393  0.2072
 4041TIP3   OH236317   3.736   4.851   9.487  0.0269 -0.0464  0.5356
 4041TIP3    H136318   3.814   4.906   9.479  0.9212 -1.2501  0.7728
 4041TIP3    H236319   3.744   4.810   9.573 -1.7798  1.1367  1.3321
 4042TIP3   OH236320   5.000   4.441   1.781  0.6413 -0.7924 -0.0842
 4042TIP3    H136321   4.932   4.505   1.762  0.1906 -1.0256  0.7102
 4042TIP3    H236322   5.048   4.431   1.698  0.2278 -0.0195 -0.4228
 4043TIP3   OH236323   5.438   1.950   0.357  0.1517  0.3550  0.6080
 4043TIP3    H136324   5.369   1.955   0.291  1.5872  2.2387 -0.8832
 4043TIP3    H236325   5.450   2.040   0.386  2.8363  0.3468 -0.1893
 4044TIP3   OH236326   4.499   4.272   7.441 -0.2289 -0.2766 -0.4340
 4044TIP3    H136327   4.498   4.306   7.352  0.5240  0.2407 -0.2530
 4044TIP3    H236328   4.577   4.217   7.446 -1.7792 -2.6918 -0.9323
 4045TIP3   OH236329   2.330   0.186   6.312  0.3101 -0.0901 -0.3462
 4045TIP3    H136330   2.370   0.100   6.318  1.2164  0.1557 -2.0318
 4045TIP3    H236331   2.396   0.240   6.269 -0.4649  1.2948  0.1281
 4046TIP3   OH236332   6.406   6.947   2.498 -0.3071  0.5043 -0.3735
 4046TIP3    H136333   6.377   7.031   2.533 -0.0188  0.1721  0.6833
 4046TIP3    H236334   6.490   6.967   2.455 -0.0202  0.6868  0.2550
 4047TIP3   OH236335   6.075   5.135   7.944 -0.2244  0.2744  0.2932
 4047TIP3    H136336   6.146   5.175   7.895  0.1331  0.4334  0.9302
 4047TIP3    H236337   6.036   5.073   7.882 -0.5944  1.3698 -0.5953
 4048TIP3   OH236338   5.212   1.716   8.889 -0.0320  0.5697  0.0180
 4048TIP3    H136339   5.251   1.736   8.804 -0.2015 -3.1580 -1.1237
 4048TIP3    H236340   5.118   1.716   8.872 -0.2513  2.3744  0.9585
 4049TIP3   OH236341   3.130   3.717   7.638  0.2458  0.2610  0.1004
 4049TIP3    H136342   3.065   3.787   7.637  0.9137  0.8911 -0.0133
 4049TIP3    H236343   3.165   3.718   7.727 -0.7506 -0.8957  0.5304
 4050TIP3   OH236344   1.047   5.703   9.724  0.2583  0.3418 -0.1252
 4050TIP3    H136345   1.112   5.720   9.791 -0.0348  1.9999 -0.2109
 4050TIP3    H236346   1.096   5.707   9.641  0.0834  1.5247 -0.1856
 4051TIP3   OH236347   3.482   3.468   0.238 -0.5541  0.4795  0.0874
 4051TIP3    H136348   3.390   3.492   0.239 -0.7149 -0.1302  1.0016
 4051TIP3    H236349   3.495   3.419   0.319  0.1871 -0.8854 -0.8218
 4052TIP3   OH236350   6.404   1.894   8.094  0.0898  0.3182 -0.5697
 4052TIP3    H136351   6.416   1.799   8.097  0.5249  0.3912  0.2811
 4052TIP3    H236352   6.353   1.909   8.014 -1.8179 -0.8330  0.3587
 4053TIP3   OH236353   5.355   3.520   9.924  0.3782 -0.3561  0.3134
 4053TIP3    H136354   5.312   3.498  10.007  0.3506 -2.2361 -0.1542
 4053TIP3    H236355   5.447   3.502   9.940  0.8257  1.9259  0.7383
 4054TIP3   OH236356   5.976   7.517   0.142 -0.4008 -0.0770 -0.4169
 4054TIP3    H136357   6.019   7.539   0.224 -0.8753 -1.0565  0.1177
 4054TIP3    H236358   6.030   7.448   0.104 -1.2813 -1.0804  0.0999
 4055TIP3   OH236359   1.588   3.314   2.283 -0.3128  0.2983 -0.3863
 4055TIP3    H136360   1.514   3.368   2.256  0.0638  0.2655 -1.5592
 4055TIP3    H236361   1.563   3.279   2.368 -0.8130  1.8415  0.1388
 4056TIP3   OH236362   1.233   4.910   1.756 -0.2136  0.2070 -0.4342
 4056TIP3    H136363   1.204   4.896   1.846  0.8688  0.0131 -0.1037
 4056TIP3    H236364   1.226   5.005   1.744 -0.8955  0.1713 -0.3347
 4057TIP3   OH236365   5.156   7.678   9.869 -0.0205  0.2265 -0.3575
 4057TIP3    H136366   5.234   7.733   9.877 -0.3054  0.4289  1.2887
 4057TIP3    H236367   5.085   7.739   9.849  0.0330  0.1923 -0.6519
 4058TIP3   OH236368   7.556   3.731   6.973 -0.2262 -0.0433 -0.3902
 4058TIP3    H136369   7.644   3.739   7.010 -0.0753 -0.2865 -0.6884
 4058TIP3    H236370   7.511   3.810   7.002  0.4663  0.6900 -1.2322
 4059TIP3   OH236371   1.521   1.464   8.658  0.0884  0.1041 -0.3996
 4059TIP3    H136372   1.447   1.409   8.686  0.2677 -0.4115 -0.9308
 4059TIP3    H236373   1.510   1.545   8.709 -0.3165 -0.3208  0.2172
 4060TIP3   OH236374   1.046   3.965   0.530  0.1641 -0.1778 -0.2867
 4060TIP3    H136375   0.998   3.934   0.453 -0.3595  0.8131 -0.3744
 4060TIP3    H236376   0.992   4.035   0.566 -0.1591 -1.3342  1.6550
 4061TIP3   OH236377   2.911   5.160   1.423  0.2913 -0.4810  0.0860
 4061TIP3    H136378   2.928   5.066   1.419  2.0973 -0.1568 -0.9192
 4061TIP3    H236379   2.992   5.197   1.460  0.6234  0.8837 -1.8524
 4062TIP3   OH236380   1.595   2.772   9.273  0.0452  0.0624 -0.2751
 4062TIP3    H136381   1.542   2.815   9.205 -0.4744 -1.1837 -0.6954
 4062TIP3    H236382   1.648   2.842   9.311 -3.0877  1.7627  1.3276
 4063TIP3   OH236383   4.167   5.225   9.057 -0.4053  0.1420  0.2379
 4063TIP3    H136384   4.187   5.293   8.992  2.0402 -0.8442 -0.1435
 4063TIP3    H236385   4.182   5.267   9.142  2.2918 -0.1476 -0.0099
 4064TIP3   OH236386   3.204   2.133   2.388  0.0009  0.2754  0.5565
 4064TIP3    H136387   3.281   2.099   2.343 -0.6515  1.0600 -1.2234
 4064TIP3    H236388   3.209   2.096   2.476  0.7404 -2.1854 -0.4557
 4065TIP3   OH236389   6.433   1.537   8.169  0.3721 -0.0198  0.2617
 4065TIP3    H136390   6.418   1.453   8.125 -0.7975  0.0964  0.4126
 4065TIP3    H236391   6.424   1.517   8.262  0.7738  0.1434  0.3363
 4066TIP3   OH236392   1.427   0.433   7.509 -0.3210  0.2122  0.0540
 4066TIP3    H136393   1.408   0.511   7.561 -0.3702  1.4196 -1.6739
 4066TIP3    H236394   1.352   0.426   7.449  0.4865 -0.1623 -0.9371
 4067TIP3   OH236395   1.656   2.549   8.740 -0.0113  0.4236 -0.5995
 4067TIP3    H136396   1.730   2.539   8.800  0.5288 -0.1463 -1.3384
 4067TIP3    H236397   1.689   2.604   8.669 -0.1635 -0.1588 -1.1352
 4068TIP3   OH236398   7.202   3.044   8.151  0.4131  0.2807 -0.1059
 4068TIP3    H136399   7.260   2.990   8.097  0.0861  1.6468 -1.9269
 4068TIP3    H236400   7.240   3.040   8.239  0.5609 -2.6179 -0.2076
 4069TIP3   OH236401   5.183   4.918   0.603  0.3509  0.1157 -0.2866
 4069TIP3    H136402   5.233   4.938   0.524  0.1511 -0.1490 -0.4778
 4069TIP3    H236403   5.147   4.831   0.588  1.6562 -0.6383  0.7670
 4070TIP3   OH236404   5.551   4.282   8.981  0.3432 -0.0327 -0.5531
 4070TIP3    H136405   5.574   4.357   8.926  2.1945  1.3671  1.9175
 4070TIP3    H236406   5.636   4.251   9.014 -0.6890 -0.0938  2.2992
 4071TIP3   OH236407   3.132   1.762   7.002  0.6548 -0.5606 -0.4539
 4071TIP3    H136408   3.110   1.733   6.914  1.6281 -0.3229 -0.7821
 4071TIP3    H236409   3.176   1.686   7.042  1.9328 -0.0382 -0.8330
 4072TIP3   OH236410   2.128   4.966   0.209  0.3272  0.5035 -0.2922
 4072TIP3    H136411   2.048   4.925   0.177  0.9780 -0.4806 -0.7121
 4072TIP3    H236412   2.148   5.034   0.144  1.0146 -0.7155 -1.3896
 4073TIP3   OH236413   0.172   1.344   2.534 -0.0753 -0.1893 -0.4990
 4073TIP3    H136414   0.138   1.267   2.580 -1.3034 -0.2250 -1.3987
 4073TIP3    H236415   0.180   1.411   2.602  1.4468 -1.2141  0.3813
 4074TIP3   OH236416   3.034   1.797   8.545 -0.2441 -0.1209  0.4439
 4074TIP3    H136417   2.947   1.810   8.507 -0.5639 -0.7309  0.9432
 4074TIP3    H236418   3.088   1.767   8.472 -0.7376 -0.8309  0.3516
 4075TIP3   OH236419   3.972   3.593   7.108  0.6737 -0.6304  0.3158
 4075TIP3    H136420   3.933   3.538   7.175 -0.8038  1.2594  1.0699
 4075TIP3    H236421   3.960   3.544   7.027 -0.7836 -1.3489  0.9349
 4076TIP3   OH236422   0.727   0.602   0.741  0.5195  0.2412  0.0908
 4076TIP3    H136423   0.715   0.528   0.800 -0.2437  0.6470  0.4568
 4076TIP3    H236424   0.677   0.673   0.781 -0.5938  0.3293 -1.3984
 4077TIP3   OH236425   3.552   6.249   0.318  0.2737  0.2028 -0.3291
 4077TIP3    H136426   3.538   6.239   0.224  0.0409 -1.4150 -0.1518
 4077TIP3    H236427   3.594   6.167   0.344 -0.0512  0.4615  1.0569
 4078TIP3   OH236428   0.744   1.972   8.887 -0.0824 -0.0457 -0.1421
 4078TIP3    H136429   0.788   2.056   8.871 -0.1886  0.2176  0.8606
 4078TIP3    H236430   0.692   1.987   8.966  0.8687 -1.4275  0.7813
 4079TIP3   OH236431   0.628   2.233   7.888 -0.2402  0.1023 -0.4395
 4079TIP3    H136432   0.537   2.245   7.860 -1.4019 -2.1214  1.9732
 4079TIP3    H236433   0.641   2.138   7.886  2.1782  0.3865 -1.0086
 4080TIP3   OH236434   2.881   6.908   2.730  0.4769 -0.4837  0.2103
 4080TIP3    H136435   2.850   6.840   2.671  0.6206  0.3192 -0.8211
 4080TIP3    H236436   2.970   6.880   2.753  0.0003 -1.4091  1.0405
 4081TIP3   OH236437   3.942   3.692   1.573 -0.4846 -0.1141 -0.3267
 4081TIP3    H136438   3.963   3.679   1.666  0.2740  1.5893 -0.2159
 4081TIP3    H236439   3.939   3.604   1.536  0.3544 -0.7648  1.0786
 4082TIP3   OH236440   2.035   6.071   8.217  0.3537  0.1261  0.3540
 4082TIP3    H136441   1.963   6.135   8.214  1.0205  1.2379  3.5160
 4082TIP3    H236442   1.993   5.987   8.201 -1.4268  0.8865  0.7196
 4083TIP3   OH236443   2.475   6.216   9.107 -0.3112  0.0346 -0.3070
 4083TIP3    H136444   2.558   6.201   9.061 -0.2805  0.0266 -0.2494
 4083TIP3    H236445   2.414   6.155   9.067 -0.3533  0.2176 -0.5223
 4084TIP3   OH236446   0.140   6.836   8.465 -0.5338 -0.6103  0.1266
 4084TIP3    H136447   0.146   6.930   8.451  1.4413 -0.0461  3.5426
 4084TIP3    H236448   0.058   6.823   8.512  0.1697 -0.1786  1.5518
 4085TIP3   OH236449   2.109   2.250   1.590  0.6244 -0.0533  0.2939
 4085TIP3    H136450   2.066   2.253   1.676 -0.5161 -1.3081 -0.1774
 4085TIP3    H236451   2.202   2.250   1.610  0.3835 -1.0801  1.5999
 4086TIP3   OH236452   5.427   1.605   0.059 -0.5252  0.4245  0.2514
 4086TIP3    H136453   5.333   1.601   0.039 -0.6198 -0.7560  0.8401
 4086TIP3    H236454   5.430   1.647   0.146 -0.4928  0.6169  0.1578
 4087TIP3   OH236455   3.338   0.132   0.224 -0.2055 -0.0948  0.1255
 4087TIP3    H136456   3.433   0.129   0.235 -0.3816 -1.3042  1.7954
 4087TIP3    H236457   3.304   0.144   0.313 -1.6395 -0.4149 -0.3520
 4088TIP3   OH236458   6.020   2.823   8.428 -0.1601  0.0457 -0.5338
 4088TIP3    H136459   6.099   2.824   8.375  0.0805  0.2129 -0.1754
 4088TIP3    H236460   6.041   2.876   8.505 -0.9845  1.0255 -0.9527
 4089TIP3   OH236461   3.198   6.838   9.973 -0.7305 -0.0465 -0.0791
 4089TIP3    H136462   3.286   6.845   9.935 -0.3899 -2.2168  0.2121
 4089TIP3    H236463   3.214   6.831  10.067 -1.1715 -1.0199 -0.0732
 4090TIP3   OH236464   1.360   4.960   2.355  0.3636 -0.2035 -0.2261
 4090TIP3    H136465   1.371   4.875   2.399  4.0269 -0.8511 -2.0359
 4090TIP3    H236466   1.265   4.970   2.347 -0.2733 -3.1739  1.7658
 4091TIP3   OH236467   3.589   2.046   8.801 -0.1510  0.0789  0.0865
 4091TIP3    H136468   3.524   2.112   8.780 -1.2910 -0.8866  0.4321
 4091TIP3    H236469   3.565   1.970   8.748 -2.0956 -1.8326  3.3980
 4092TIP3   OH236470   0.484   0.426   7.007  0.9383 -0.5868 -0.6509
 4092TIP3    H136471   0.543   0.501   7.011 -0.2956  0.4258  4.0114
 4092TIP3    H236472   0.540   0.351   7.028  1.3884 -0.3086 -0.8483
 4093TIP3   OH236473   3.223   7.480   7.251 -0.5344  0.2178 -0.3823
 4093TIP3    H136474   3.129   7.475   7.264 -0.7329 -0.4061 -1.9477
 4093TIP3    H236475   3.252   7.389   7.252 -0.3929  0.1900 -2.8248
 4094TIP3   OH236476   4.581   5.178   0.498 -0.5313  0.2839  0.0110
 4094TIP3    H136477   4.573   5.269   0.526  1.0507  0.8557 -1.2891
 4094TIP3    H236478   4.669   5.152   0.525 -1.3557 -1.2898  1.4220
 4095TIP3   OH236479   1.218   4.160   9.594  0.0262 -0.4912 -0.0356
 4095TIP3    H136480   1.191   4.232   9.650 -0.6801  0.4970 -1.5922
 4095TIP3    H236481   1.307   4.181   9.567  0.6200 -1.3048  1.2036
 4096TIP3   OH236482   7.679   0.518   9.494 -1.0459  0.3969  0.3442
 4096TIP3    H136483   7.584   0.530   9.486 -1.1765  0.6386  1.8066
 4096TIP3    H236484   7.701   0.562   9.577  0.4604  0.9491 -0.3217
 4097TIP3   OH236485   1.809   3.785   9.237  0.0904 -0.2416 -0.3742
 4097TIP3    H136486   1.743   3.846   9.205  0.7197  0.0781 -1.0949
 4097TIP3    H236487   1.880   3.791   9.174  1.0129 -0.2373  0.6279
 4098TIP3   OH236488   0.043   3.036   1.843 -0.4191 -0.6009 -0.1707
 4098TIP3    H136489   0.005   3.124   1.835  1.6567  0.8614  3.3429
 4098TIP3    H236490   0.119   3.038   1.784  0.5837  0.7021  1.0720
 4099TIP3   OH236491   4.066   1.026   8.562  0.0723  0.5960  0.3010
 4099TIP3    H136492   4.008   0.991   8.629  0.0731  0.5366  0.2717
 4099TIP3    H236493   4.069   1.120   8.578 -0.5565  0.6945 -0.1037
 4100TIP3   OH236494   1.891   0.047   1.109 -0.2031 -0.4832 -0.2527
 4100TIP3    H136495   1.962  -0.017   1.117 -0.2294 -0.4704  0.1097
 4100TIP3    H236496   1.811  -0.005   1.107 -0.3183 -0.4332  1.2903
 4101TIP3   OH236497   5.310   2.534   1.113  0.5359  0.0536 -0.2263
 4101TIP3    H136498   5.394   2.567   1.145  0.6955 -1.1613  0.7018
 4101TIP3    H236499   5.260   2.613   1.092  1.2288  0.8631  1.0024
 4102TIP3   OH236500   2.077   0.852   2.606  0.1019  0.3759  0.0459
 4102TIP3    H136501   2.114   0.807   2.682 -0.3986 -1.6335 -0.8227
 4102TIP3    H236502   2.144   0.916   2.581  2.0941 -1.6736 -0.1769
 4103TIP3   OH236503   6.107   5.195   2.646  0.1330  0.1720  0.2233
 4103TIP3    H136504   6.069   5.110   2.668 -0.4064 -0.1739 -1.8004
 4103TIP3    H236505   6.032   5.250   2.625  0.5771  0.4450 -0.6958
 4104TIP3   OH236506   5.290   4.727   8.173  0.1804  0.1497 -0.7073
 4104TIP3    H136507   5.329   4.805   8.133  0.0617 -0.3308 -1.8119
 4104TIP3    H236508   5.361   4.689   8.224 -0.3696  2.1853  1.7749
 4105TIP3   OH236509   6.546   0.184   1.703  0.4246 -0.0258 -0.3590
 4105TIP3    H136510   6.549   0.183   1.799  0.6568 -0.6383 -0.3735
 4105TIP3    H236511   6.523   0.275   1.682  1.1947  0.3243  0.2520
 4106TIP3   OH236512   0.254   0.770   2.508 -0.0011  0.7167  0.1901
 4106TIP3    H136513   0.291   0.790   2.423  0.7802  4.1032  1.1703
 4106TIP3    H236514   0.330   0.762   2.566 -0.5646  1.4299  1.0667
 4107TIP3   OH236515   2.978   1.197   1.461 -0.0939 -0.0733 -0.2307
 4107TIP3    H136516   2.886   1.215   1.441 -0.3639  0.0119  1.0176
 4107TIP3    H236517   2.978   1.168   1.552  1.2846  1.2908  0.2372
 4108TIP3   OH236518   4.557   2.249   0.361  0.0953  0.0625 -0.2761
 4108TIP3    H136519   4.495   2.322   0.361  0.9532  0.8517 -2.1979
 4108TIP3    H236520   4.510   2.178   0.316 -0.1477 -0.0473  0.1413
 4109TIP3   OH236521   4.811   1.964   0.749 -0.3230  0.0196  0.3233
 4109TIP3    H136522   4.788   2.018   0.673 -0.4564  0.4072  0.6361
 4109TIP3    H236523   4.728   1.933   0.782 -0.2781  0.0124  0.4282
 4110TIP3   OH236524   3.778   0.002   0.088 -0.3457  0.0027  0.1065
 4110TIP3    H136525   3.705  -0.029   0.141 -0.7906 -1.2345 -1.1912
 4110TIP3    H236526   3.742   0.013   0.000  0.3850  2.0121 -0.0010
 4111TIP3   OH236527   7.473   0.746   7.446  0.4718  0.0073  0.8196
 4111TIP3    H136528   7.566   0.752   7.424 -0.2179 -0.1088 -2.7309
 4111TIP3    H236529   7.436   0.830   7.417 -0.4800  0.2638  2.6534
 4112TIP3   OH236530   4.390   2.348   7.376 -0.0216 -0.1552 -0.4762
 4112TIP3    H136531   4.355   2.432   7.346  0.2051 -0.6163 -2.1876
 4112TIP3    H236532   4.485   2.361   7.379  0.0192 -0.3439 -0.7996
 4113TIP3   OH236533   6.379   2.261   9.804  0.2007  0.2804  0.2433
 4113TIP3    H136534   6.291   2.229   9.822  0.7003 -1.2875  0.0428
 4113TIP3    H236535   6.366   2.330   9.739 -0.9362  0.6277  0.8090
 4114TIP3   OH236536   5.506   5.107   8.456 -0.1007 -0.3230  0.2259
 4114TIP3    H136537   5.552   5.099   8.372 -1.6565  0.8033 -0.8160
 4114TIP3    H236538   5.558   5.168   8.507 -0.7559  1.5546 -1.2362
 4115TIP3   OH236539   2.733   2.835   2.703  0.5042  0.6822 -0.0959
 4115TIP3    H136540   2.798   2.905   2.700  1.3621 -0.1301 -1.5360
 4115TIP3    H236541   2.656   2.872   2.660 -0.4444  2.0037  2.5102
 4116TIP3   OH236542   2.077   2.543   9.188 -0.1277 -0.2713  0.1829
 4116TIP3    H136543   2.146   2.486   9.221 -0.3561 -0.3849  0.4639
 4116TIP3    H236544   2.093   2.547   9.093  0.4964  0.0206  0.2953
 4117TIP3   OH236545   0.279   5.325   2.264 -0.6605 -0.0264 -0.6074
 4117TIP3    H136546   0.209   5.278   2.310 -0.4243 -0.0839 -0.3041
 4117TIP3    H236547   0.248   5.416   2.260 -1.0681 -0.1837 -1.0970
 4118TIP3   OH236548   7.386   6.495   8.727  0.0477  0.4349  0.5218
 4118TIP3    H136549   7.368   6.407   8.693  0.8502  0.0899  0.9502
 4118TIP3    H236550   7.392   6.550   8.649 -2.7833  0.6209  0.3212
 4119TIP3   OH236551   1.799   4.707   9.747 -0.3352 -0.0485 -0.0199
 4119TIP3    H136552   1.749   4.640   9.699  0.8943 -1.5088  0.6498
 4119TIP3    H236553   1.755   4.789   9.726 -1.4474 -0.9647 -1.4951
 4120TIP3   OH236554   5.993   5.710   7.947 -0.2407 -0.0519  0.0024
 4120TIP3    H136555   5.948   5.791   7.925 -2.0043 -0.9004  0.3282
 4120TIP3    H236556   6.050   5.692   7.873  0.3875  1.6091  0.0483
 4121TIP3   OH236557   2.890   0.138   7.794 -0.0493 -0.8886  0.5920
 4121TIP3    H136558   2.939   0.065   7.754 -0.3864  0.0530 -1.7072
 4121TIP3    H236559   2.799   0.111   7.787 -0.1879 -0.2224 -0.4338
 4122TIP3   OH236560   5.433   1.019   8.794 -0.5076 -0.0265  0.1270
 4122TIP3    H136561   5.338   1.012   8.807 -0.3551  1.4173  2.5564
 4122TIP3    H236562   5.459   0.932   8.764 -2.4438 -0.7605  0.3948
 4123TIP3   OH236563   0.870   5.833   9.430 -0.0465  0.2558  0.1133
 4123TIP3    H136564   0.801   5.792   9.483  1.9905  0.2535  3.0291
 4123TIP3    H236565   0.863   5.926   9.451 -0.0902  0.4704 -0.8073
 4124TIP3   OH236566   2.910   4.433   0.619  0.4903  0.5195  0.3769
 4124TIP3    H136567   2.820   4.456   0.595 -0.7497 -2.4685  1.5750
 4124TIP3    H236568   2.954   4.416   0.536  0.0524  2.2287 -0.2436
 4125TIP3   OH236569   5.293   7.569   0.964 -0.3211 -0.3286  0.1192
 4125TIP3    H136570   5.246   7.639   1.009  0.3641  1.0060 -1.1531
 4125TIP3    H236571   5.386   7.588   0.979 -0.0572  0.3004 -1.9673
 4126TIP3   OH236572   2.039   2.524   1.614  0.2558  0.0100 -0.3920
 4126TIP3    H136573   1.952   2.535   1.652  0.6231 -0.9847  0.8161
 4126TIP3    H236574   2.055   2.429   1.616  2.2843  0.2946  1.7027
 4127TIP3   OH236575   3.497   6.185   1.571 -0.0287 -0.3816  0.7843
 4127TIP3    H136576   3.474   6.115   1.631 -1.7674 -0.9084 -0.3994
 4127TIP3    H236577   3.445   6.260   1.600 -0.8191 -0.6173  0.0177
 4128TIP3   OH236578   1.362   6.265   2.075 -0.1859 -0.5608 -0.4675
 4128TIP3    H136579   1.389   6.330   2.139  1.2814 -0.8629 -0.7459
 4128TIP3    H236580   1.287   6.221   2.116  1.1324 -1.2099  1.3436
 4129TIP3   OH236581   0.645   1.359   2.262  0.5505  0.3596  0.3528
 4129TIP3    H136582   0.585   1.327   2.329  0.7685  2.0751  1.4087
 4129TIP3    H236583   0.603   1.437   2.226  1.7248  1.0995  0.5086
 4130TIP3   OH236584   3.482   6.329   7.798 -0.2336  0.0420 -0.2646
 4130TIP3    H136585   3.421   6.384   7.749 -1.2235 -1.3755 -0.6889
 4130TIP3    H236586   3.426   6.273   7.852  0.6461 -1.4228 -0.7967
 4131TIP3   OH236587   3.869   2.920   7.117 -0.0773  0.5588 -0.3250
 4131TIP3    H136588   3.951   2.902   7.071  0.1456 -0.3470  0.4007
 4131TIP3    H236589   3.806   2.938   7.047  0.6072  0.7347 -0.9111
 4132TIP3   OH236590   1.195   1.533   2.274  0.1843  0.0425  0.0521
 4132TIP3    H136591   1.188   1.441   2.298 -0.9759 -0.3009 -1.4336
 4132TIP3    H236592   1.177   1.535   2.180  2.3958  1.5352 -0.4088
 4133TIP3   OH236593   7.468   3.373   1.958  0.1220 -0.1303  0.1820
 4133TIP3    H136594   7.553   3.352   1.918  1.4818  1.3762  2.1196
 4133TIP3    H236595   7.490   3.409   2.044 -2.4061  1.7115  0.1635
 4134TIP3   OH236596   0.213   4.826   8.775 -0.0304  0.1349  0.1986
 4134TIP3    H136597   0.308   4.821   8.770  0.0147  0.9216  0.0212
 4134TIP3    H236598   0.196   4.911   8.817 -0.6751  1.4747 -2.5450
 4135TIP3   OH236599   1.964   3.130   7.030  0.0923 -0.3927 -0.7304
 4135TIP3    H136600   1.891   3.169   7.079  0.5101  1.5892 -1.5793
 4135TIP3    H236601   1.959   3.037   7.051 -0.3586  0.1809  2.2600
 4136TIP3   OH236602   2.075   6.669   2.509 -0.6300  0.0111 -0.1929
 4136TIP3    H136603   2.138   6.623   2.454  1.1183 -0.5593  2.1266
 4136TIP3    H236604   1.991   6.628   2.489  0.3165 -1.7353 -0.7936
 4137TIP3   OH236605   6.968   3.218   8.119 -0.2285 -0.8386 -0.2392
 4137TIP3    H136606   6.979   3.249   8.029 -0.2048  2.5116  0.7688
 4137TIP3    H236607   7.057   3.203   8.150 -0.0495  0.4766 -0.0581
 4138TIP3   OH236608   7.246   6.009   9.006  0.0886  0.4542  0.2925
 4138TIP3    H136609   7.283   5.939   8.953 -1.7540 -0.3350 -0.0348
 4138TIP3    H236610   7.249   6.086   8.949 -0.0566  0.0736 -0.2360
 4139TIP3   OH236611   0.439   2.995   7.814 -0.0522  0.2505  0.5598
 4139TIP3    H136612   0.468   3.078   7.779  0.1510  0.0289  0.2018
 4139TIP3    H236613   0.459   3.000   7.908 -1.9954  1.4489  0.9557
 4140TIP3   OH236614   0.578   3.387   9.982 -1.2669 -0.0133 -0.2973
 4140TIP3    H136615   0.492   3.388   9.939  0.2768  0.5173 -3.6951
 4140TIP3    H236616   0.605   3.479   9.985 -0.0309 -0.3240 -1.0923
 4141TIP3   OH236617   1.814   2.984   0.395 -0.0219  0.4735 -0.3723
 4141TIP3    H136618   1.843   2.902   0.354 -0.5998 -0.9830  1.9354
 4141TIP3    H236619   1.727   3.000   0.358  0.3617  0.4365 -1.3272
 4142TIP3   OH236620   3.121   4.894   1.025  0.0200  0.1548  0.0366
 4142TIP3    H136621   3.032   4.903   0.990  0.1278 -0.6653 -0.4494
 4142TIP3    H236622   3.113   4.829   1.094  0.3742 -0.4544 -0.4910
 4143TIP3   OH236623   5.624   5.244   9.511 -0.2275  0.1914  0.2766
 4143TIP3    H136624   5.589   5.330   9.536 -4.0662 -1.0482 -0.2712
 4143TIP3    H236625   5.642   5.201   9.594 -0.8669  0.5816  0.6311
 4144TIP3   OH236626   3.479   2.245   1.303 -0.1896  0.1303  0.1015
 4144TIP3    H136627   3.436   2.324   1.270  2.2305  1.0095 -1.1185
 4144TIP3    H236628   3.500   2.265   1.394  2.1325  1.7533 -0.7044
 4145TIP3   OH236629   5.680   1.888   9.407  0.3038 -0.2550  0.1631
 4145TIP3    H136630   5.631   1.882   9.325  0.7397  0.5716 -0.1627
 4145TIP3    H236631   5.727   1.805   9.413  1.1086  0.0931 -0.9673
 4146TIP3   OH236632   5.466   5.435   1.598 -0.0673  0.3409 -0.5701
 4146TIP3    H136633   5.372   5.428   1.580 -0.2991  2.0708 -0.2073
 4146TIP3    H236634   5.505   5.454   1.512 -0.1254  0.3073 -0.6043
 4147TIP3   OH236635   2.922   5.522   7.380 -0.4016 -0.2624 -0.0058
 4147TIP3    H136636   2.978   5.577   7.436  0.0663 -1.1556  0.4403
 4147TIP3    H236637   2.963   5.527   7.294  0.1098 -0.5313  0.2116
 4148TIP3   OH236638   5.337   1.339   0.759 -0.2307  0.1421 -0.0220
 4148TIP3    H136639   5.348   1.244   0.759 -0.3703  0.1144  1.3735
 4148TIP3    H236640   5.353   1.365   0.668 -1.1859 -1.3198 -0.6345
 4149TIP3   OH236641   3.760   2.955   7.452 -0.5289 -0.5293  0.2673
 4149TIP3    H136642   3.831   3.011   7.484 -1.4405  0.4438  0.6433
 4149TIP3    H236643   3.799   2.907   7.379  0.5904 -0.2218  0.6325
 4150TIP3   OH236644   3.896   6.810   0.459  0.0607  0.2568  0.1661
 4150TIP3    H136645   3.877   6.809   0.366  0.8674 -2.6536 -0.0931
 4150TIP3    H236646   3.954   6.885   0.472 -3.0117  2.9959 -0.8792
 4151TIP3   OH236647   6.626   1.107   8.644 -0.0283  0.0789  0.4319
 4151TIP3    H136648   6.540   1.072   8.666  0.7790 -0.6718  2.5588
 4151TIP3    H236649   6.656   1.054   8.570 -0.5974 -0.9118  0.9053
 4152TIP3   OH236650   1.643   0.643   9.885  0.1369  0.0665  0.2511
 4152TIP3    H136651   1.597   0.719   9.923 -1.6889 -1.8364  2.1140
 4152TIP3    H236652   1.670   0.591   9.961  3.2234 -0.2277 -0.9052
 4153TIP3   OH236653   4.249   6.960   1.280  0.4487  0.5113  0.3850
 4153TIP3    H136654   4.187   7.019   1.238  0.0496 -1.0910 -1.4049
 4153TIP3    H236655   4.332   7.008   1.279  0.6395  0.3499 -2.9719
 4154TIP3   OH236656   7.442   4.202   8.459  0.2923  0.1367  0.4463
 4154TIP3    H136657   7.454   4.267   8.528  0.1176  0.3890  0.2390
 4154TIP3    H236658   7.468   4.119   8.500  2.3799  0.5819  0.1594
 4155TIP3   OH236659   5.717   1.949   0.461  0.8191  0.4779 -0.3114
 4155TIP3    H136660   5.633   1.934   0.419  1.0896 -0.3982 -0.5714
 4155TIP3    H236661   5.756   2.022   0.413  0.1757  0.9457 -0.1323
 4156TIP3   OH236662   2.618   2.678   7.017  0.2965 -0.0317 -0.4356
 4156TIP3    H136663   2.665   2.715   6.942 -0.4705  1.3536 -0.2642
 4156TIP3    H236664   2.528   2.708   7.005 -0.3318 -1.7417 -0.1842
 4157TIP3   OH236665   2.358   7.078   8.949 -0.1249 -0.0147  0.2800
 4157TIP3    H136666   2.433   7.037   8.991  1.3994  0.6783 -1.5966
 4157TIP3    H236667   2.287   7.073   9.014  1.4092 -1.0608  1.9475
 4158TIP3   OH236668   5.743   4.741   0.357 -0.1394 -0.2364  0.7596
 4158TIP3    H136669   5.769   4.796   0.283 -0.8614  0.7119  1.1951
 4158TIP3    H236670   5.808   4.758   0.424 -0.6649  0.5237  1.0898
 4159TIP3   OH236671   1.982   0.174   1.884 -0.6502 -0.3255  0.7029
 4159TIP3    H136672   1.966   0.258   1.926 -0.5724 -0.3066  0.6955
 4159TIP3    H236673   2.023   0.120   1.953 -1.9821 -0.8208  1.1344
 4160TIP3   OH236674   3.276   4.700   7.161  0.1911  0.3670 -0.2926
 4160TIP3    H136675   3.235   4.776   7.202  0.1260  0.0316  0.2709
 4160TIP3    H236676   3.215   4.674   7.092 -0.2805  0.2162  0.1730
 4161TIP3   OH236677   6.586   2.763   2.326 -0.2432  0.1324 -0.6259
 4161TIP3    H136678   6.647   2.717   2.268 -1.4036 -1.7163 -0.4911
 4161TIP3    H236679   6.524   2.695   2.353 -1.2160  1.5122  0.7740
 4162TIP3   OH236680   2.271   1.744   8.362 -0.2690  0.0169 -0.0803
 4162TIP3    H136681   2.237   1.696   8.437 -1.2304  1.0169  0.1458
 4162TIP3    H236682   2.199   1.800   8.334  0.7211  1.1411 -0.4978
 4163TIP3   OH236683   4.653   2.218   8.783  0.0567  0.2156 -0.0992
 4163TIP3    H136684   4.740   2.249   8.757  0.8256 -0.9942  0.9151
 4163TIP3    H236685   4.635   2.266   8.865 -1.4944  2.5409 -1.6762
 4164TIP3   OH236686   4.369   3.562   8.386 -0.3683  0.4368 -0.4671
 4164TIP3    H136687   4.429   3.613   8.332 -0.0158 -0.0482 -0.5374
 4164TIP3    H236688   4.382   3.472   8.358 -1.6718  0.3968 -1.0030
 4165TIP3   OH236689   7.537   5.627   0.285 -0.3260  0.3559 -0.0060
 4165TIP3    H136690   7.503   5.647   0.197 -0.9371  0.8189  0.3291
 4165TIP3    H236691   7.622   5.586   0.269 -0.3803  0.5423 -0.8111
 4166TIP3   OH236692   7.512   2.862   8.593  0.3986  0.1396  0.1110
 4166TIP3    H136693   7.434   2.826   8.634  0.7161 -0.9181 -0.1776
 4166TIP3    H236694   7.498   2.957   8.592  0.3204  0.1983  2.5237
 4167TIP3   OH236695   5.127   4.377   1.541  0.0789  0.1575 -0.4890
 4167TIP3    H136696   5.124   4.411   1.452 -0.9064 -0.4145 -0.6899
 4167TIP3    H236697   5.146   4.284   1.532 -1.9031 -0.3139 -0.2518
 4168TIP3   OH236698   7.290   7.305   8.221 -1.0965 -0.8223 -0.1520
 4168TIP3    H136699   7.375   7.333   8.254 -1.3312  1.4676 -1.3438
 4168TIP3    H236700   7.302   7.212   8.200  0.5786 -0.9690  1.2648
 4169TIP3   OH236701   4.907   4.528   8.763 -0.8914  0.6062 -0.4363
 4169TIP3    H136702   4.928   4.579   8.685  0.8851 -0.8793 -1.0139
 4169TIP3    H236703   4.992   4.508   8.801 -1.7125  1.0800  1.7856
 4170TIP3   OH236704   1.584   0.295   2.530  0.4465 -0.2163 -0.0333
 4170TIP3    H136705   1.524   0.244   2.584 -0.3624 -1.4485 -1.9953
 4170TIP3    H236706   1.553   0.281   2.441  1.8264  1.6204 -0.8466
 4171TIP3   OH236707   6.511   1.947   1.944 -0.4209  0.1919 -0.0290
 4171TIP3    H136708   6.516   1.858   1.978 -1.0443 -0.3461 -1.2933
 4171TIP3    H236709   6.497   1.937   1.850  1.6521  1.6371 -0.5628
 4172TIP3   OH236710   1.351   5.323   9.007 -0.2590  0.2425 -0.1198
 4172TIP3    H136711   1.311   5.242   8.976 -0.6609  0.0765  0.8183
 4172TIP3    H236712   1.282   5.367   9.056  0.1976  0.7771  0.0555
 4173TIP3   OH236713   4.454   3.397   1.650  0.2967  0.3909  0.1182
 4173TIP3    H136714   4.420   3.483   1.674 -0.6087  0.4698 -1.3281
 4173TIP3    H236715   4.436   3.389   1.556 -0.3558 -1.6922  0.3671
 4174TIP3   OH236716   3.497   7.033   2.028 -0.5402  0.0139 -0.2688
 4174TIP3    H136717   3.559   6.968   2.062 -0.9969  0.1360  0.8615
 4174TIP3    H236718   3.443   6.984   1.965 -0.5234 -0.5736  0.1600
 4175TIP3   OH236719   5.237   6.255   9.007 -0.1606 -0.2135 -0.2992
 4175TIP3    H136720   5.188   6.332   9.036  0.9832  0.2515  0.4789
 4175TIP3    H236721   5.177   6.182   9.021  0.0177  0.0882  2.6302
 4176TIP3   OH236722   6.168   2.047   7.748  0.1642  0.2698 -0.0576
 4176TIP3    H136723   6.114   2.126   7.744  1.4894  1.1786 -0.7617
 4176TIP3    H236724   6.223   2.051   7.670  2.4068  0.2542  1.4200
 4177TIP3   OH236725   4.186   2.153   1.719 -0.1019  0.7744  0.1127
 4177TIP3    H136726   4.215   2.244   1.707  0.9613  0.3281 -0.8062
 4177TIP3    H236727   4.239   2.120   1.791  1.3811  0.1268 -1.2139
 4178TIP3   OH236728   6.614   4.425   7.701  0.0667  0.4234  0.2080
 4178TIP3    H136729   6.556   4.382   7.639  1.8275 -1.3265 -0.3327
 4178TIP3    H236730   6.629   4.512   7.663 -0.0396 -0.0922 -1.0687
 4179TIP3   OH236731   1.923   5.563   9.237  0.2501 -0.1588 -0.2041
 4179TIP3    H136732   1.912   5.490   9.177 -1.5321 -1.2388  1.3464
 4179TIP3    H236733   1.904   5.641   9.184 -1.5940 -1.0952 -0.9931
 4180TIP3   OH236734   3.027   6.692   9.814 -0.1016  0.1316  0.1306
 4180TIP3    H136735   2.951   6.670   9.869  1.6948 -1.6015  2.1148
 4180TIP3    H236736   3.097   6.711   9.877  1.3550  0.8487 -1.6241
 4181TIP3   OH236737   4.635   1.860   9.444  0.4479 -0.7121  0.0435
 4181TIP3    H136738   4.709   1.911   9.476  0.4335  0.1228 -1.1958
 4181TIP3    H236739   4.627   1.883   9.351 -1.3979 -0.7273  0.1507
 4182TIP3   OH236740   3.055   6.293   2.657 -0.0542 -0.0369  0.0602
 4182TIP3    H136741   3.025   6.268   2.744 -1.0138  2.1724  0.4247
 4182TIP3    H236742   3.059   6.210   2.609 -2.0268 -1.0144  1.4385
 4183TIP3   OH236743   7.030   1.614   7.854 -0.5393 -0.2270 -0.0702
 4183TIP3    H136744   7.083   1.536   7.835 -0.6943 -0.2184 -0.5504
 4183TIP3    H236745   7.028   1.618   7.949  1.5640  0.6240 -0.0100
 4184TIP3   OH236746   2.439   1.766   0.511  0.3063  0.3831  0.2907
 4184TIP3    H136747   2.533   1.786   0.513  0.2206  1.4911 -2.3623
 4184TIP3    H236748   2.435   1.671   0.503  1.2327  0.3292  0.3414
 4185TIP3   OH236749   3.738   0.058   2.255 -0.0062 -0.5577  0.2960
 4185TIP3    H136750   3.722   0.136   2.203 -2.5197  0.3756  2.3279
 4185TIP3    H236751   3.706  -0.014   2.200 -1.6062  0.2915  0.0655
 4186TIP3   OH236752   4.933   1.792   8.529  0.5035 -0.3679  0.1664
 4186TIP3    H136753   4.981   1.720   8.488  0.8825  0.7732 -1.5007
 4186TIP3    H236754   4.994   1.866   8.526 -0.6804  0.6131 -0.2763
 4187TIP3   OH236755   2.030   3.226   0.817  0.3704  0.2808  0.4964
 4187TIP3    H136756   2.124   3.235   0.833  0.9439 -0.8554 -1.8202
 4187TIP3    H236757   2.001   3.313   0.789  0.6694  0.6833  1.4214
 4188TIP3   OH236758   2.043   3.126   1.194  0.1648  0.7825  0.1973
 4188TIP3    H136759   2.050   3.131   1.289 -1.3339 -0.3743  0.4070
 4188TIP3    H236760   2.020   3.035   1.176 -1.4505  1.3878 -1.1038
 4189TIP3   OH236761   5.647   6.984   1.593  0.1811 -0.4154  0.5715
 4189TIP3    H136762   5.553   7.000   1.599  0.2041 -0.7428  2.2022
 4189TIP3    H236763   5.675   7.035   1.517 -1.6144 -1.8968 -1.1937
 4190TIP3   OH236764   7.496   6.228   0.207  0.1178  0.0718 -0.7042
 4190TIP3    H136765   7.473   6.236   0.115  0.6462 -1.4409 -1.0012
 4190TIP3    H236766   7.436   6.162   0.242  1.1193 -0.7364 -0.4446
 4191TIP3   OH236767   0.923   2.133   9.090  0.3783  0.4882  0.2425
 4191TIP3    H136768   0.992   2.112   9.027  0.5712 -3.1788  1.4512
 4191TIP3    H236769   0.969   2.158   9.170  0.2998 -0.1883  0.5078
 4192TIP3   OH236770   5.182   6.138   1.040 -0.0270 -0.0036  0.4065
 4192TIP3    H136771   5.214   6.162   0.953  0.8279  0.1585  0.7498
 4192TIP3    H236772   5.097   6.181   1.047  0.3757  0.8857  0.0582
 4193TIP3   OH236773   6.623   1.395   0.080 -0.0378  0.6245 -0.2380
 4193TIP3    H136774   6.584   1.480   0.102 -0.5403  0.4941 -0.6140
 4193TIP3    H236775   6.549   1.342   0.050  0.4239  0.3674 -0.9405
 4194TIP3   OH236776   1.361   0.475   8.051 -0.2170 -0.0406  0.6680
 4194TIP3    H136777   1.449   0.443   8.035  0.2570  1.0701  0.9391
 4194TIP3    H236778   1.368   0.570   8.042 -1.8701 -0.0422 -1.6260
 4195TIP3   OH236779   1.101   6.102   0.952 -0.0688 -0.2940  0.0376
 4195TIP3    H136780   1.042   6.028   0.967 -0.4411 -0.1376 -0.5835
 4195TIP3    H236781   1.057   6.176   0.992 -0.2310 -0.2055 -0.2971
 4196TIP3   OH236782   3.009   7.393   1.290  0.4137  0.2772 -0.5838
 4196TIP3    H136783   3.069   7.333   1.334 -0.2727 -0.6236 -0.8475
 4196TIP3    H236784   2.956   7.430   1.360 -0.9621 -1.4709 -0.6454
 4197TIP3   OH236785   2.861   7.588   2.282 -0.4113 -0.1610  0.5321
 4197TIP3    H136786   2.765   7.590   2.281 -0.4072  1.7350 -0.2538
 4197TIP3    H236787   2.884   7.586   2.375 -1.2228  1.0367  0.7812
 4198TIP3   OH236788   1.934   3.185   9.394  0.2538 -0.1955  0.3929
 4198TIP3    H136789   1.866   3.224   9.449  0.2983  0.0671  0.2670
 4198TIP3    H236790   2.015   3.223   9.426  0.2494  0.2189 -0.0660
 4199TIP3   OH236791   0.679   5.846   7.399 -0.0580  0.3476  0.4249
 4199TIP3    H136792   0.714   5.908   7.463  1.5608  2.3180 -2.1767
 4199TIP3    H236793   0.740   5.773   7.400 -0.7688 -0.2625  1.9833
 4200TIP3   OH236794   0.544   7.331   0.389  0.0664  0.1653  0.3638
 4200TIP3    H136795   0.540   7.414   0.436 -0.8635  1.0161 -1.1285
 4200TIP3    H236796   0.512   7.352   0.301  0.8801 -1.5413 -0.3862
 4201TIP3   OH236797   3.460   2.756   0.868 -0.4955  0.1087  0.4447
 4201TIP3    H136798   3.455   2.753   0.963  0.2270  1.2097  0.5413
 4201TIP3    H236799   3.552   2.741   0.848 -0.9705 -2.3505 -0.2365
 4202TIP3   OH236800   5.825   3.523   7.930  0.2090  0.3322 -0.8222
 4202TIP3    H136801   5.831   3.534   7.835 -0.8494  0.6579 -0.8618
 4202TIP3    H236802   5.738   3.485   7.944  0.4021  0.1866  0.0113
 4203TIP3   OH236803   4.798   4.975   2.112  0.5856  0.7780  0.4700
 4203TIP3    H136804   4.836   5.060   2.138 -0.1535  1.1404  0.3906
 4203TIP3    H236805   4.748   4.947   2.189 -1.9630  2.0569 -0.6054
 4204TIP3   OH236806   4.084   0.340   1.543  0.0199  0.4358 -0.0894
 4204TIP3    H136807   4.042   0.334   1.628 -1.8325  1.1759 -0.8864
 4204TIP3    H236808   4.092   0.435   1.527  1.4514  0.3083 -0.2441
 4205TIP3   OH236809   5.980   1.464   9.830 -0.0998  0.6645 -0.4654
 4205TIP3    H136810   6.048   1.428   9.773 -0.5355 -0.2840 -0.4034
 4205TIP3    H236811   5.930   1.524   9.774 -0.1602  0.1892 -0.9265
 4206TIP3   OH236812   1.077   3.214   7.316 -0.2195 -0.0592 -0.3841
 4206TIP3    H136813   1.097   3.237   7.406 -0.0621  0.1772 -0.4785
 4206TIP3    H236814   1.044   3.124   7.320 -0.2664 -0.0271 -0.0862
 4207TIP3   OH236815   5.162   3.963   8.571  0.4665 -0.2383 -0.4387
 4207TIP3    H136816   5.076   3.998   8.593  1.0192  0.3737  0.9062
 4207TIP3    H236817   5.158   3.871   8.597  0.4323 -0.0279  0.3456
 4208TIP3   OH236818   7.345   3.197   9.818 -0.2807 -0.1482 -0.7902
 4208TIP3    H136819   7.284   3.258   9.861  0.8032  1.0648 -0.9125
 4208TIP3    H236820   7.297   3.163   9.743 -1.7741 -1.3559  0.6464
 4209TIP3   OH236821   1.845   7.014   1.087  0.7325  0.0725  0.1744
 4209TIP3    H136822   1.841   7.035   0.993 -0.7968 -0.2535  0.1423
 4209TIP3    H236823   1.910   6.943   1.093  0.1047 -0.6097 -0.7911
 4210TIP3   OH236824   5.722   0.099   9.722 -0.7349  0.1770 -0.1896
 4210TIP3    H136825   5.719   0.194   9.736 -0.1249 -0.1088  2.5053
 4210TIP3    H236826   5.699   0.061   9.807  0.7762 -2.0802 -0.6864
 4211TIP3   OH236827   4.710   1.106   9.622  0.0881  0.5885  0.4846
 4211TIP3    H136828   4.697   1.014   9.602 -1.5744  1.0575 -0.7739
 4211TIP3    H236829   4.622   1.142   9.632  0.7140  1.8152  2.1571
 4212TIP3   OH236830   4.022   4.227   7.813 -0.1179  0.4794 -0.1731
 4212TIP3    H136831   3.964   4.301   7.833 -2.3491 -0.7875 -1.4942
 4212TIP3    H236832   3.967   4.150   7.826  1.3965 -0.8225 -1.1310
 4213TIP3   OH236833   2.941   6.387   8.935 -0.5076 -0.5251  0.1268
 4213TIP3    H136834   2.982   6.309   8.972  2.1260  0.3897 -0.6321
 4213TIP3    H236835   2.929   6.445   9.009 -1.2054 -1.0995  0.4790
 4214TIP3   OH236836   6.873   1.504   2.128 -0.0668 -0.0037 -0.6752
 4214TIP3    H136837   6.946   1.561   2.101 -0.4449  1.1282  0.6070
 4214TIP3    H236838   6.885   1.493   2.222 -2.2834  1.2767 -0.2020
 4215TIP3   OH236839   7.185   2.757   1.591 -0.3737 -0.4418  0.0104
 4215TIP3    H136840   7.095   2.759   1.558 -1.0480 -0.3098  1.7609
 4215TIP3    H236841   7.202   2.664   1.608 -0.5421 -0.3717  0.5860
 4216TIP3   OH236842   7.383   4.389   9.861  0.5206  0.0315  1.2016
 4216TIP3    H136843   7.364   4.394   9.767  0.1928 -1.1416  1.1884
 4216TIP3    H236844   7.348   4.471   9.896 -0.8315 -0.2235  0.5339
 4217TIP3   OH236845   2.234   2.151   2.808 -0.1518  0.3425  0.0833
 4217TIP3    H136846   2.206   2.169   2.897 -1.6049 -0.4866 -0.1593
 4217TIP3    H236847   2.317   2.105   2.817 -0.8509 -0.7677  1.0758
 4218TIP3   OH236848   2.069   4.152   0.031  0.1796  0.5709  0.2600
 4218TIP3    H136849   1.977   4.178   0.034  0.0777  0.1689  0.5841
 4218TIP3    H236850   2.075   4.093  -0.044 -0.3616 -1.4430  1.7229
 4219TIP3   OH236851   3.802   1.638   0.092  0.5875 -0.0968 -0.3065
 4219TIP3    H136852   3.727   1.687   0.057  0.3051  0.1770  0.6589
 4219TIP3    H236853   3.878   1.684   0.058  0.3204  0.2823 -0.3984
 4220TIP3   OH236854   0.439   4.973   0.149 -0.0189  0.1241 -0.1555
 4220TIP3    H136855   0.508   5.035   0.172  0.7907 -0.4206 -1.0555
 4220TIP3    H236856   0.444   4.904   0.216  0.1926  0.1758 -0.1194
 4221TIP3   OH236857   0.500   4.891   0.864 -0.2891 -0.4943  0.5901
 4221TIP3    H136858   0.465   4.811   0.824 -1.1302 -1.0505  2.3301
 4221TIP3    H236859   0.440   4.960   0.839 -1.5113 -1.0617  1.8223
 4222TIP3   OH236860   7.633   6.593   0.132 -0.0455  0.5596 -0.3551
 4222TIP3    H136861   7.581   6.622   0.207 -2.9565  0.5793 -2.2050
 4222TIP3    H236862   7.568   6.563   0.069  2.3349 -0.5183 -2.4491
 4223TIP3   OH236863   4.339   0.183   2.797  0.2894  0.6081 -0.0364
 4223TIP3    H136864   4.249   0.150   2.806 -0.2306  1.6116 -1.2199
 4223TIP3    H236865   4.329   0.266   2.750  1.9613 -0.0393 -1.6282
 4224TIP3   OH236866   7.542   1.285   1.599  0.0594  0.0221  0.2131
 4224TIP3    H136867   7.520   1.375   1.573  1.6244  0.8133  1.4275
 4224TIP3    H236868   7.616   1.261   1.543 -0.9854 -0.9349 -0.8104
 4225TIP3   OH236869   1.658   3.838   8.544 -0.2147  0.4682 -0.2696
 4225TIP3    H136870   1.718   3.905   8.576 -1.6653  1.4918  0.4796
 4225TIP3    H236871   1.669   3.839   8.449  2.1226 -0.5944 -0.0730
 4226TIP3   OH236872   7.021   2.892   9.953  0.1158 -0.1275  0.2933
 4226TIP3    H136873   7.049   2.803   9.934  0.4084  0.0337 -0.0611
 4226TIP3    H236874   7.038   2.904  10.047  0.8265 -0.1865  0.1812
 4227TIP3   OH236875   5.387   7.552   7.289  0.0582  0.3213 -0.0462
 4227TIP3    H136876   5.482   7.539   7.284 -0.0602 -0.9001  0.5162
 4227TIP3    H236877   5.355   7.476   7.337 -1.2406  0.6109 -0.4153
 4228TIP3   OH236878   3.450   0.118   9.832 -0.3033  0.1342 -0.0413
 4228TIP3    H136879   3.396   0.133   9.754 -1.6977  0.6078  0.9825
 4228TIP3    H236880   3.391   0.074   9.894  0.9819 -0.8653  0.5115
 4229TIP3   OH236881   6.149   3.938   9.311  0.2749 -0.7101 -0.3693
 4229TIP3    H136882   6.198   4.013   9.343  1.2769 -0.6898 -1.8458
 4229TIP3    H236883   6.081   3.976   9.255  0.4633 -0.8737 -0.7115
 4230TIP3   OH236884   2.778   6.385   0.705 -0.0162 -0.1624  0.1322
 4230TIP3    H136885   2.787   6.432   0.788  0.9563  0.4538 -0.3074
 4230TIP3    H236886   2.764   6.453   0.640 -0.6979 -0.6371 -0.2280
 4231TIP3   OH236887   1.793   1.474   6.998 -0.3622 -0.2835 -0.0139
 4231TIP3    H136888   1.714   1.495   7.048 -0.6299 -1.1147 -0.0613
 4231TIP3    H236889   1.784   1.381   6.978  1.2456 -0.7185  1.0758
 4232TIP3   OH236890   2.869   0.239   8.557 -0.5671 -0.0531 -0.4588
 4232TIP3    H136891   2.886   0.214   8.467 -1.2692 -1.4050 -0.2477
 4232TIP3    H236892   2.938   0.301   8.579 -0.2961  0.1689 -1.8627
 4233TIP3   OH236893   0.993   3.709   8.750  0.0309  0.0952  0.1754
 4233TIP3    H136894   1.072   3.661   8.725 -0.4509 -0.5687 -0.1370
 4233TIP3    H236895   0.941   3.645   8.800 -0.0387  0.7089  0.8979
 4234TIP3   OH236896   5.419   4.630   0.565  0.6514 -0.9656  0.0056
 4234TIP3    H136897   5.499   4.676   0.593  0.1474  0.5326 -0.8960
 4234TIP3    H236898   5.356   4.648   0.635 -0.5054  2.4960 -1.6706
 4235TIP3   OH236899   0.561   4.388   2.429  0.1548  0.9562  0.0422
 4235TIP3    H136900   0.516   4.379   2.513 -0.6122  0.7804 -0.3824
 4235TIP3    H236901   0.648   4.350   2.444 -0.0964  0.6138  0.6530
 4236TIP3   OH236902   5.171   6.792   8.185 -0.3268  0.7887  0.4992
 4236TIP3    H136903   5.100   6.816   8.245 -1.9762  0.7490 -1.3264
 4236TIP3    H236904   5.190   6.701   8.205 -1.2996  0.5861  0.5380
 4237TIP3   OH236905   1.188   4.573   2.006  0.0333  0.2179 -0.7544
 4237TIP3    H136906   1.092   4.568   2.009  0.0542 -0.1982 -0.8155
 4237TIP3    H236907   1.215   4.573   2.098 -0.0402  0.6617 -0.7296
 4238TIP3   OH236908   4.795   4.111   0.484 -0.0325  0.5775  0.1795
 4238TIP3    H136909   4.830   4.035   0.438  0.0131 -1.3274  3.0908
 4238TIP3    H236910   4.869   4.145   0.534 -0.8647  0.2045  1.7487
 4239TIP3   OH236911   0.769   2.324   2.193 -0.2284 -0.2189 -0.4551
 4239TIP3    H136912   0.830   2.398   2.191  0.0433 -0.4300 -0.0480
 4239TIP3    H236913   0.687   2.360   2.159 -0.2546  0.4253  0.2544
 4240TIP3   OH236914   5.470   7.134   9.778 -0.3352 -0.2708 -0.3960
 4240TIP3    H136915   5.507   7.189   9.709  1.7204  0.6421  1.3132
 4240TIP3    H236916   5.477   7.045   9.745 -0.3799  0.2064 -1.7576
 4241TIP3   OH236917   5.853   5.285   9.880  0.1564  0.6293 -0.7246
 4241TIP3    H136918   5.931   5.296   9.826  0.4810  2.3532  0.0080
 4241TIP3    H236919   5.883   5.236   9.956  0.2220  0.1916 -1.0287
 4242TIP3   OH236920   1.818   5.066   7.009  0.1450  0.4120 -0.5767
 4242TIP3    H136921   1.722   5.063   7.005  0.1399  0.8290 -4.9425
 4242TIP3    H236922   1.841   5.153   6.976  2.0969  0.3134  0.3872
 4243TIP3   OH236923   4.354   6.490   9.213 -0.0686 -0.2336  0.7277
 4243TIP3    H136924   4.426   6.492   9.276  0.8595 -0.6492 -0.2810
 4243TIP3    H236925   4.349   6.399   9.184  0.4321  0.1870 -0.7843
 4244TIP3   OH236926   1.571   5.301   9.339  0.0469 -0.0352 -0.1541
 4244TIP3    H136927   1.647   5.245   9.359  0.2721 -0.0704 -1.0770
 4244TIP3    H236928   1.550   5.343   9.422  0.3425 -0.9283  0.3840
 4245TIP3   OH236929   3.930   2.056   8.500  0.1808  0.2179  0.0367
 4245TIP3    H136930   3.991   2.098   8.561 -0.4825  1.2755 -0.0063
 4245TIP3    H236931   3.982   1.986   8.459  1.1965  0.7386  0.3970
 4246TIP3   OH236932   7.460   6.396   2.209  0.1368  0.2163 -0.1591
 4246TIP3    H136933   7.437   6.408   2.301 -0.0287  1.2385 -0.3246
 4246TIP3    H236934   7.538   6.341   2.211 -1.4607 -2.1475  0.4659
 4247TIP3   OH236935   2.681   7.086   8.142  0.0646 -0.3695 -0.4289
 4247TIP3    H136936   2.753   7.144   8.117 -0.4365  0.0635 -0.9076
 4247TIP3    H236937   2.672   7.026   8.067 -1.0313  0.5280 -1.0373
 4248TIP3   OH236938   2.516   2.239   9.903  0.1441 -0.3188 -0.3395
 4248TIP3    H136939   2.472   2.175   9.848 -0.9551  0.4362 -0.3872
 4248TIP3    H236940   2.514   2.320   9.852  1.0310 -0.1171 -0.0697
 4249TIP3   OH236941   0.795   0.402   3.344  0.0897  0.1982 -0.1113
 4249TIP3    H136942   0.843   0.363   3.271 -1.7852 -3.1512  0.2679
 4249TIP3    H236943   0.850   0.385   3.421  0.1229 -0.0737 -0.1935
 4250TIP3   OH236944   3.394   3.486   2.080  0.5629 -0.4490  0.0149
 4250TIP3    H136945   3.418   3.548   2.011  0.0095 -2.3723 -2.0420
 4250TIP3    H236946   3.458   3.501   2.149  0.1276  2.7312 -0.1105
 4251TIP3   OH236947   2.634   7.663   7.920  0.0685 -0.2926 -0.4895
 4251TIP3    H136948   2.566   7.620   7.971  1.5545 -0.0397  1.8465
 4251TIP3    H236949   2.617   7.636   7.830 -3.0136 -0.3114  0.0013
 4252TIP3   OH236950   0.914   4.595   1.148  0.2242 -0.2724 -0.5595
 4252TIP3    H136951   0.964   4.523   1.109 -0.3727 -1.1480  0.2386
 4252TIP3    H236952   0.823   4.567   1.145  0.1843 -0.6583  1.8970
 4253TIP3   OH236953   3.044   2.621   7.725 -0.7341 -0.8548 -0.0641
 4253TIP3    H136954   3.000   2.597   7.643  1.1242  0.8350 -1.6506
 4253TIP3    H236955   3.118   2.560   7.731 -0.6720 -0.7571  0.1708
 4254TIP3   OH236956   4.010   1.506   9.882 -0.2022  0.8790  0.4046
 4254TIP3    H136957   4.045   1.443   9.819 -0.1140  1.7538 -0.4462
 4254TIP3    H236958   4.031   1.469   9.968 -1.8690 -1.2272 -0.0146
 4255TIP3   OH236959   4.740   0.575   9.656 -0.2094 -0.6227 -0.4549
 4255TIP3    H136960   4.737   0.648   9.594  2.4251  0.4951  0.5943
 4255TIP3    H236961   4.796   0.605   9.727 -2.0419 -2.3335  1.9102
 4256TIP3   OH236962   0.990   7.602   7.759  0.2886 -0.3000  0.2317
 4256TIP3    H136963   1.045   7.562   7.692  1.8756 -0.6460  1.6620
 4256TIP3    H236964   0.915   7.543   7.767  0.2049 -0.3862 -1.0254
 4257TIP3   OH236965   3.939   7.387   2.241 -0.4549 -0.3760 -0.2192
 4257TIP3    H136966   3.852   7.359   2.270 -0.4102 -0.9641 -0.6325
 4257TIP3    H236967   3.932   7.391   2.145 -0.4331  0.9567 -0.1962
 4258TIP3   OH236968   5.309   3.752   9.500 -0.5952  0.2535 -0.4003
 4258TIP3    H136969   5.252   3.706   9.439 -0.3460 -1.8283  0.8378
 4258TIP3    H236970   5.260   3.830   9.526 -2.5127 -1.0166 -0.0457
 4259TIP3   OH236971   3.839   7.680   8.489  0.2414  0.5747  0.6360
 4259TIP3    H136972   3.896   7.750   8.520 -0.5815  0.7737  1.7549
 4259TIP3    H236973   3.750   7.715   8.498 -0.1036 -0.0372 -0.2828
 4260TIP3   OH236974   1.618   1.000   9.629 -0.0028 -0.0580  0.4439
 4260TIP3    H136975   1.680   0.988   9.701  0.1835 -1.3109  0.0974
 4260TIP3    H236976   1.587   0.912   9.609 -0.2492  0.3024 -0.8343
 4261TIP3   OH236977   4.655   5.639   7.346  0.1599 -0.7300  0.2702
 4261TIP3    H136978   4.594   5.626   7.273 -0.4658 -4.2103  1.2338
 4261TIP3    H236979   4.599   5.651   7.423  0.6057 -2.9113  1.0010
 4262TIP3   OH236980   0.585   3.670   8.366  0.4504 -0.2985  0.3548
 4262TIP3    H136981   0.566   3.749   8.417  0.6369 -0.4031  0.5812
 4262TIP3    H236982   0.571   3.697   8.275  0.2472 -0.0791  0.4516
 4263TIP3   OH236983   0.393   2.096   1.733 -0.0737  0.0953  0.3731
 4263TIP3    H136984   0.471   2.113   1.785  1.5335 -3.7991 -0.4678
 4263TIP3    H236985   0.397   2.159   1.662  0.7721  1.7014  1.7695
 4264TIP3   OH236986   1.463   6.744   2.221 -0.3990  0.1906 -0.3022
 4264TIP3    H136987   1.376   6.705   2.230 -0.2996 -0.3502 -1.4483
 4264TIP3    H236988   1.515   6.704   2.290 -0.8624 -0.0581 -0.0956
 4265TIP3   OH236989   2.304   4.553   7.939  0.5878 -0.0969 -0.5227
 4265TIP3    H136990   2.293   4.461   7.966  0.4864  0.1756  0.3937
 4265TIP3    H236991   2.369   4.588   7.999  0.2907  0.5596 -0.5816
 4266TIP3   OH236992   2.424   4.002   8.151  0.3865  0.2530  0.0398
 4266TIP3    H136993   2.440   4.042   8.065 -1.4547 -0.4723 -0.7087
 4266TIP3    H236994   2.435   3.908   8.136 -2.7081 -0.1732 -0.2100
 4267TIP3   OH236995   0.652   0.317   8.705 -0.2101 -0.0711 -0.3396
 4267TIP3    H136996   0.747   0.315   8.698 -0.2704 -2.0160 -1.3624
 4267TIP3    H236997   0.622   0.347   8.619 -0.5285 -0.6963 -0.4547
 4268TIP3   OH236998   1.504   5.658   7.828 -0.2390 -0.0945 -0.0183
 4268TIP3    H136999   1.479   5.737   7.876  0.5042 -0.2745  0.6709
 4268TIP3    H237000   1.548   5.603   7.892 -0.3720 -0.8963 -0.5970
 4269TIP3   OH237001   0.037   3.608   8.655  0.5613  0.1375  0.2991
 4269TIP3    H137002   0.082   3.543   8.709  1.6863 -1.7765 -2.7210
 4269TIP3    H237003   0.107   3.663   8.620  0.2558 -0.6828 -1.6922
 4270TIP3   OH237004   1.080   3.954   9.502  0.3308  0.8806  0.0519
 4270TIP3    H137005   1.092   3.993   9.415  2.1111  0.6508  0.1549
 4270TIP3    H237006   1.125   4.014   9.561  0.0748  0.4619  0.6778
 4271TIP3   OH237007   7.646   7.283   8.547 -0.1559 -0.1461  0.0922
 4271TIP3    H137008   7.680   7.373   8.545 -1.5177  0.3770 -0.6078
 4271TIP3    H237009   7.583   7.283   8.619 -2.0647  0.2214 -1.5029
 4272TIP3   OH237010   6.618   2.273   9.947 -0.0456  0.4508 -0.3668
 4272TIP3    H137011   6.665   2.285   9.865  0.4580 -0.5702 -0.2478
 4272TIP3    H237012   6.529   2.248   9.919 -0.2575  1.4339 -0.5913
 4273TIP3   OH237013   2.510   1.665   8.880  0.5468  0.2517 -0.2649
 4273TIP3    H137014   2.524   1.685   8.973  2.5433 -0.3248 -0.3851
 4273TIP3    H237015   2.565   1.588   8.864  0.6500  0.6516 -2.0351
 4274TIP3   OH237016   3.515   7.244   9.516 -0.0695 -0.3460  0.4908
 4274TIP3    H137017   3.580   7.282   9.575 -0.4232 -0.0849  0.7159
 4274TIP3    H237018   3.436   7.236   9.569 -0.0940 -1.1127  0.3583
 4275TIP3   OH237019   3.904   0.191   7.835  0.1956  0.2731  0.6144
 4275TIP3    H137020   3.890   0.129   7.906  0.4529  0.8606  1.1956
 4275TIP3    H237021   3.863   0.272   7.866 -0.9733  0.1491 -0.5310
 4276TIP3   OH237022   1.623   6.359   7.243  0.2017 -0.1714 -0.2604
 4276TIP3    H137023   1.672   6.389   7.320 -1.0571  0.6723  0.2406
 4276TIP3    H237024   1.584   6.438   7.206 -1.8823 -0.9330  0.1528
 4277TIP3   OH237025   5.379   0.208   0.376 -0.2433 -0.3900 -0.2801
 4277TIP3    H137026   5.464   0.164   0.366 -1.3582 -2.8296  0.1623
 4277TIP3    H237027   5.392   0.295   0.339  2.9761  0.0363  1.5110
 4278TIP3   OH237028   6.741   4.173   8.969  0.0776 -0.5749  0.7132
 4278TIP3    H137029   6.738   4.101   8.906  0.2205  1.1177 -1.3042
 4278TIP3    H237030   6.834   4.192   8.979 -0.0559  1.2333 -1.0804
 4279TIP3   OH237031   3.891   7.225   1.569  0.2930 -0.2904 -0.1687
 4279TIP3    H137032   3.949   7.150   1.578 -1.3489 -1.6461 -0.3707
 4279TIP3    H237033   3.804   7.187   1.558 -0.5335  1.6437 -0.7912
 4280TIP3   OH237034   4.024   1.191   0.547 -0.4610 -0.4069  0.7668
 4280TIP3    H137035   4.022   1.139   0.628 -2.8042  1.0094  1.6992
 4280TIP3    H237036   3.984   1.134   0.481  1.3084 -1.5057  0.5796
 4281TIP3   OH237037   6.491   4.731   0.921 -0.9350  0.4667 -0.4270
 4281TIP3    H137038   6.563   4.689   0.873 -2.0407  0.9964 -2.6743
 4281TIP3    H237039   6.528   4.813   0.952  0.3355 -0.6885  1.3171
 4282TIP3   OH237040   4.270   3.454   0.036 -0.2923  0.0444  0.5179
 4282TIP3    H137041   4.289   3.548   0.029  0.6562 -0.0992  1.1764
 4282TIP3    H237042   4.230   3.432  -0.049  1.8146  0.5088 -0.6726
 4283TIP3   OH237043   2.664   0.933   2.490 -0.1794 -0.3539 -0.2446
 4283TIP3    H137044   2.738   0.988   2.516 -0.5147 -0.0514  0.0791
 4283TIP3    H237045   2.611   0.925   2.569 -0.5302 -0.5152 -0.4933
 4284TIP3   OH237046   2.613   0.979   8.791 -0.5167 -0.1376 -0.3679
 4284TIP3    H137047   2.625   1.034   8.869 -0.5397 -1.7537  0.8171
 4284TIP3    H237048   2.694   0.990   8.741  0.6812 -1.1815  1.2631
 4285TIP3   OH237049   3.386   2.754   1.628 -0.1002  0.2148 -0.1358
 4285TIP3    H137050   3.388   2.749   1.532 -2.7694  1.7542 -0.3607
 4285TIP3    H237051   3.301   2.793   1.649  1.9103  3.7968  2.6831
 4286TIP3   OH237052   4.475   4.182   8.894  0.4857  0.0189  0.5230
 4286TIP3    H137053   4.479   4.196   8.800  0.6153 -1.6659  0.2573
 4286TIP3    H237054   4.529   4.105   8.910  0.2092  0.0849  1.9318
 4287TIP3   OH237055   3.278   6.799   0.214  0.1418  0.3072 -0.1181
 4287TIP3    H137056   3.311   6.877   0.258 -0.1254  1.5453 -2.0128
 4287TIP3    H237057   3.327   6.727   0.253  2.1902  1.6743 -0.0233
 4288TIP3   OH237058   0.944   3.128   8.624 -0.2616  0.3513 -0.1180
 4288TIP3    H137059   0.932   3.034   8.642  0.5549  0.4334  1.0255
 4288TIP3    H237060   0.930   3.136   8.530  1.6970 -1.3008 -0.6384
 4289TIP3   OH237061   2.043   4.633   1.103  0.6598  0.1819  0.0276
 4289TIP3    H137062   2.129   4.617   1.065  0.3268 -0.2492 -0.5631
 4289TIP3    H237063   2.058   4.637   1.197  0.8624 -3.3516  0.2661
 4290TIP3   OH237064   7.484   4.689   9.687  0.1019 -0.0202  0.6831
 4290TIP3    H137065   7.431   4.693   9.766 -0.0026  0.5127  0.5859
 4290TIP3    H237066   7.422   4.668   9.617  0.5606 -3.6040  1.1146
 4291TIP3   OH237067   6.099   1.847   1.540 -0.4546 -0.0168 -0.0455
 4291TIP3    H137068   6.040   1.786   1.495  1.2093 -1.4254 -0.4438
 4291TIP3    H237069   6.123   1.911   1.473 -2.1979  1.1578  0.3702
 4292TIP3   OH237070   0.693   4.107   7.347 -0.7389  0.2591  0.1427
 4292TIP3    H137071   0.701   4.014   7.325 -0.1545 -0.2538  2.3030
 4292TIP3    H237072   0.767   4.148   7.303 -1.3532 -0.1679 -1.3429
 4293TIP3   OH237073   7.368   5.502   8.109 -0.5433  0.3704  0.5419
 4293TIP3    H137074   7.417   5.581   8.133 -0.0721  0.2946 -0.1565
 4293TIP3    H237075   7.289   5.536   8.065 -1.3090  0.5029  1.9572
 4294TIP3   OH237076   3.850   4.765   9.751 -0.5288  0.6423 -0.0502
 4294TIP3    H137077   3.851   4.671   9.734 -0.0679  0.7461 -0.6390
 4294TIP3    H237078   3.762   4.784   9.783 -1.9845  0.6473 -3.6456
 4295TIP3   OH237079   2.731   0.610   9.389 -0.2434 -0.3749 -0.6250
 4295TIP3    H137080   2.805   0.663   9.418 -0.2980 -0.7271  0.1807
 4295TIP3    H237081   2.755   0.581   9.301 -0.7577  1.9948 -1.6363
 4296TIP3   OH237082   5.360   2.500   7.953 -0.0088 -0.0031 -0.2693
 4296TIP3    H137083   5.283   2.478   7.899 -0.4479 -0.0739  0.3717
 4296TIP3    H237084   5.381   2.590   7.929 -0.4255  0.0895 -0.3002
 4297TIP3   OH237085   4.729   7.320   8.370  0.1469  0.1185 -0.5841
 4297TIP3    H137086   4.795   7.317   8.439 -1.0586  0.8973  0.6496
 4297TIP3    H237087   4.656   7.369   8.408 -0.9753 -0.3219 -2.0545
 4298TIP3   OH237088   2.305   2.270   1.237  0.4571  0.2223 -0.6922
 4298TIP3    H137089   2.338   2.248   1.149  0.2734  0.7254 -0.8878
 4298TIP3    H237090   2.220   2.311   1.221  1.3214  2.2461 -0.4453
 4299TIP3   OH237091   5.447   6.098   8.220  0.3348  0.1182 -0.2618
 4299TIP3    H137092   5.388   6.112   8.295  0.8833  1.2700 -0.0195
 4299TIP3    H237093   5.405   6.029   8.169 -0.8744  0.4260  0.2685
 4300TIP3   OH237094   7.293   3.412   0.071 -0.2835 -0.2221  0.0254
 4300TIP3    H137095   7.204   3.378   0.060  0.2895 -1.6699 -0.4211
 4300TIP3    H237096   7.335   3.349   0.130  0.2241  0.8877  0.8815
 4301TIP3   OH237097   6.517   0.314   9.817 -0.4324  0.0493 -0.4334
 4301TIP3    H137098   6.464   0.359   9.751 -1.7679 -0.0550  0.5246
 4301TIP3    H237099   6.500   0.362   9.898 -0.3006 -0.9561  0.1993
 4302TIP3   OH237100   0.388   6.280   8.002 -0.2141  0.2793  0.3709
 4302TIP3    H137101   0.413   6.229   8.079 -0.1744  0.5721  0.5518
 4302TIP3    H237102   0.439   6.361   8.008 -1.9610  1.3728  1.3233
 4303TIP3   OH237103   1.429   6.815   2.583 -0.7731  0.0024  0.2584
 4303TIP3    H137104   1.512   6.775   2.557 -0.5702 -0.0814  0.9865
 4303TIP3    H237105   1.370   6.742   2.598 -0.1151 -0.1635  2.5594
 4304TIP3   OH237106   5.188   5.712   9.755  0.0125  0.5177 -0.1775
 4304TIP3    H137107   5.206   5.659   9.677 -0.6354 -1.1064  0.7430
 4304TIP3    H237108   5.202   5.802   9.725 -1.7602  0.1098 -2.6462
 4305TIP3   OH237109   3.768   4.639   8.879  0.4374 -0.2129  0.0231
 4305TIP3    H137110   3.763   4.711   8.943 -0.3178 -0.3581  0.1405
 4305TIP3    H237111   3.677   4.621   8.857  0.6120 -1.1788  0.0440
 4306TIP3   OH237112   1.436   4.018   0.158 -0.0711 -0.3029  0.7200
 4306TIP3    H137113   1.528   4.017   0.183  0.0491  0.1846  0.3147
 4306TIP3    H237114   1.421   4.107   0.124  0.1359 -1.2459 -2.1541
 4307TIP3   OH237115   3.387   6.683   7.402 -0.0673  0.4866  0.0474
 4307TIP3    H137116   3.293   6.688   7.418  0.2612  0.1571  2.4755
 4307TIP3    H237117   3.417   6.774   7.401 -0.6255  0.7105 -2.6952
 4308TIP3   OH237118   2.653   5.428   1.779  0.3221 -0.4555  0.0048
 4308TIP3    H137119   2.687   5.489   1.845 -1.1031 -0.5920  0.9113
 4308TIP3    H237120   2.728   5.410   1.722  0.9801  1.5803  0.1234
 4309TIP3   OH237121   5.060   7.430   7.716 -0.0529  0.5439  0.2342
 4309TIP3    H137122   4.977   7.426   7.668  0.5830 -1.2534 -0.8312
 4309TIP3    H237123   5.127   7.432   7.648  0.8166  1.1045  1.0806
 4310TIP3   OH237124   0.630   3.588   9.235  0.0688 -0.2730  0.6575
 4310TIP3    H137125   0.593   3.668   9.272  2.5172  0.9586  0.6645
 4310TIP3    H237126   0.700   3.564   9.296  0.9430 -1.0297 -0.6105
 4311TIP3   OH237127   5.002   2.052   0.909  0.0943 -0.1152 -0.1614
 4311TIP3    H137128   4.947   2.009   0.843 -0.5068 -1.9072  1.4064
 4311TIP3    H237129   4.970   2.142   0.912 -0.6060 -0.3006 -1.5207
 4312TIP3   OH237130   4.741   5.707   0.203  0.2937 -0.3411 -0.4096
 4312TIP3    H137131   4.691   5.640   0.249 -1.5414 -0.3131 -2.1900
 4312TIP3    H237132   4.810   5.658   0.158 -0.7025 -1.0061 -1.2623
 4313TIP3   OH237133   4.923   1.728   7.504  0.1644  0.8233  0.1573
 4313TIP3    H137134   4.930   1.653   7.563  2.3680  0.1370 -0.8487
 4313TIP3    H237135   5.009   1.771   7.511 -0.2921  1.9568 -0.9410
 4314TIP3   OH237136   1.520   1.196   1.302 -0.8123  0.6456 -0.3873
 4314TIP3    H137137   1.554   1.216   1.214  1.5287 -0.5682  0.1490
 4314TIP3    H237138   1.581   1.240   1.361 -2.1090  1.0804  0.6699
 4315TIP3   OH237139   7.516   1.672   0.325  0.4849  0.0340  0.2151
 4315TIP3    H137140   7.469   1.708   0.400 -1.0410 -1.9864  0.3159
 4315TIP3    H237141   7.451   1.669   0.255  1.7635  1.4424 -1.1046
 4316TIP3   OH237142   3.470   5.661   1.140 -0.0877 -0.6923 -0.2211
 4316TIP3    H137143   3.527   5.630   1.210 -1.6742 -2.2181  0.4505
 4316TIP3    H237144   3.418   5.585   1.115  0.1127 -0.0884 -2.7887
 4317TIP3   OH237145   2.434   2.450   1.395 -0.3588 -0.0584  0.2788
 4317TIP3    H137146   2.360   2.501   1.427  0.3866  1.6572 -0.6132
 4317TIP3    H237147   2.396   2.392   1.329 -1.6389 -2.5363  2.9953
 4318TIP3   OH237148   6.172   4.281   1.654  0.3403  0.0812  0.3039
 4318TIP3    H137149   6.089   4.241   1.681  0.2273  0.0443 -0.0895
 4318TIP3    H237150   6.214   4.216   1.598  0.0674  0.5699 -0.4951
 4319TIP3   OH237151   3.492   3.838   1.455  0.0991  0.0141 -0.0508
 4319TIP3    H137152   3.469   3.931   1.452  0.7447  0.1576 -1.2264
 4319TIP3    H237153   3.556   3.832   1.525 -0.0452  0.4343  0.1242
 4320TIP3   OH237154   0.573   0.696   8.200  0.2131 -0.1273 -0.1952
 4320TIP3    H137155   0.517   0.741   8.137 -1.3707  0.7695  1.7370
 4320TIP3    H237156   0.512   0.658   8.263  1.6912 -1.7977  0.3100
 4321TIP3   OH237157   3.473   2.989   1.890 -0.5543 -0.1409  0.4709
 4321TIP3    H137158   3.430   3.001   1.805 -0.7453  0.1865  0.6139
 4321TIP3    H237159   3.514   2.902   1.883  1.1824  0.7032 -0.7224
 4322TIP3   OH237160   1.462   1.319   9.138  0.0805 -0.2836 -0.3811
 4322TIP3    H137161   1.457   1.324   9.234  1.1945 -0.7990 -0.2818
 4322TIP3    H237162   1.528   1.253   9.121 -0.8104 -0.9050 -1.5285
 4323TIP3   OH237163   7.349   0.453   8.792  0.1375 -0.7480 -0.3741
 4323TIP3    H137164   7.411   0.385   8.818  0.9363 -0.7880 -2.2275
 4323TIP3    H237165   7.308   0.480   8.874  1.9336 -1.3824  0.8142
 4324TIP3   OH237166   2.111   4.078   1.174  0.3490  0.2846  1.2173
 4324TIP3    H137167   2.080   3.988   1.180  0.3733  0.2793  1.2617
 4324TIP3    H237168   2.033   4.131   1.189 -0.7330  0.3408 -3.2802
 4325TIP3   OH237169   2.728   2.023   3.050  0.4597  0.7150 -0.5985
 4325TIP3    H137170   2.734   2.035   3.144 -0.5839 -1.7279 -0.1388
 4325TIP3    H237171   2.695   1.934   3.039 -2.3876  1.8962 -3.2192
 4326TIP3   OH237172   4.197   0.351   1.253 -0.1116  0.1406 -0.3780
 4326TIP3    H137173   4.128   0.377   1.313  0.1277  0.3080 -0.1699
 4326TIP3    H237174   4.226   0.265   1.284 -0.5317 -0.1321 -0.7369
 4327TIP3   OH237175   6.516   4.289   9.298  0.5876 -0.3635 -0.2787
 4327TIP3    H137176   6.462   4.355   9.342  0.0390 -1.2192  0.3728
 4327TIP3    H237177   6.539   4.329   9.214  0.7549  0.8836  0.3318
 4328TIP3   OH237178   1.071   5.069   1.055  0.4689  0.3640 -0.3133
 4328TIP3    H137179   1.141   5.098   1.113  1.0201 -0.0328 -0.7657
 4328TIP3    H237180   1.081   4.974   1.051  0.6210  0.4027 -1.2732
 4329TIP3   OH237181   7.513   4.521   0.745 -0.3564  0.7748  0.4597
 4329TIP3    H137182   7.533   4.595   0.688 -0.2311  0.0530 -0.4699
 4329TIP3    H237183   7.592   4.509   0.797  0.0646  0.5684 -0.2167
 4330TIP3   OH237184   2.093   3.730   1.468  0.4762 -0.6194 -0.5723
 4330TIP3    H137185   2.183   3.745   1.498  0.6028 -1.7097 -0.3725
 4330TIP3    H237186   2.101   3.720   1.373  0.6675 -1.3309 -0.4900
 4331TIP3   OH237187   3.790   0.866   9.468 -0.1726 -0.0184 -0.8091
 4331TIP3    H137188   3.747   0.949   9.447  0.1064  0.4567  0.3982
 4331TIP3    H237189   3.828   0.880   9.555  2.0392 -0.5688 -1.6091
 4332TIP3   OH237190   6.249   1.139   1.884 -0.0911 -0.9479  0.5382
 4332TIP3    H137191   6.196   1.070   1.923  0.4413 -1.1962  0.8285
 4332TIP3    H237192   6.332   1.137   1.932 -0.5197  0.7438  1.4366
 4333TIP3   OH237193   1.911   6.969   7.712 -0.3612 -0.0288  0.5623
 4333TIP3    H137194   1.819   6.984   7.734 -0.5296 -0.6774  0.3171
 4333TIP3    H237195   1.950   6.934   7.792 -0.6575 -1.0695  0.2771
 4334TIP3   OH237196   0.989   7.196   8.409  0.2243  0.0606 -0.0435
 4334TIP3    H137197   0.982   7.255   8.484 -1.4850  0.1120 -0.1916
 4334TIP3    H237198   1.059   7.233   8.356 -0.8320  2.0238 -0.1616
 4335TIP3   OH237199   6.827   3.019   7.189  0.4196  0.1285 -0.5669
 4335TIP3    H137200   6.766   3.072   7.138 -1.7053 -1.8611 -0.2973
 4335TIP3    H237201   6.895   3.080   7.217 -1.0675  2.3447 -1.4848
 4336TIP3   OH237202   2.653   7.621   8.420 -0.7728 -0.5863 -0.3253
 4336TIP3    H137203   2.558   7.623   8.420 -0.7710 -0.4514 -0.2318
 4336TIP3    H237204   2.676   7.571   8.498 -0.7814 -1.8585 -1.1070
 4337TIP3   OH237205   0.393   5.357   9.693 -0.6723  0.3752  0.0584
 4337TIP3    H137206   0.468   5.332   9.639 -0.3449  0.8256  0.2990
 4337TIP3    H237207   0.333   5.283   9.686  0.3960 -0.6336  0.9972
 4338TIP3   OH237208   1.201   3.431   0.932  0.2058 -0.2027  0.0654
 4338TIP3    H137209   1.166   3.495   0.870  0.4970 -0.0464  0.0652
 4338TIP3    H237210   1.294   3.450   0.937 -0.1249  1.1770  2.1844
 4339TIP3   OH237211   6.802   0.978   0.359 -0.0536 -0.1916 -0.1731
 4339TIP3    H137212   6.806   0.960   0.265  0.8334 -0.4967 -0.0866
 4339TIP3    H237213   6.709   0.972   0.381 -0.2067 -0.6462 -0.9298
 4340TIP3   OH237214   2.387   5.472   1.700 -0.5890  0.3342  0.0010
 4340TIP3    H137215   2.398   5.564   1.676 -0.6383  0.9011  1.9918
 4340TIP3    H237216   2.476   5.440   1.717 -0.7680  1.2985  3.5033
 4341TIP3   OH237217   0.488   2.024   0.402 -0.0773  0.2726 -0.7457
 4341TIP3    H137218   0.410   2.056   0.358  0.0348  1.4686 -0.0933
 4341TIP3    H237219   0.474   1.929   0.410 -1.4233  0.4685 -0.6911
 4342TIP3   OH237220   7.406   3.521   0.652 -0.2069 -0.0294 -0.2127
 4342TIP3    H137221   7.415   3.534   0.746 -0.3059 -1.9578  0.1000
 4342TIP3    H237222   7.366   3.601   0.620 -0.6806  0.4338  1.4679
 4343TIP3   OH237223   3.325   5.471   1.016 -0.0939 -0.0875 -0.1427
 4343TIP3    H137224   3.351   5.511   0.933  0.0316  0.4530  0.1509
 4343TIP3    H237225   3.265   5.401   0.991 -1.0770  0.9046 -0.6129
 4344TIP3   OH237226   3.300   2.244   0.818  0.0631  0.1184 -0.1159
 4344TIP3    H137227   3.228   2.306   0.828 -1.9956 -1.7286 -2.3264
 4344TIP3    H237228   3.310   2.203   0.904 -0.5552  1.3618  0.5753
 4345TIP3   OH237229   0.732   5.613   7.167 -0.1686  0.8899 -0.2339
 4345TIP3    H137230   0.715   5.599   7.260 -0.1628 -0.4765 -0.4116
 4345TIP3    H237231   0.811   5.666   7.164  0.5755 -0.1459  0.5420
 4346TIP3   OH237232   4.923   0.833   8.880 -0.3030 -0.0783 -0.9175
 4346TIP3    H137233   4.834   0.854   8.852 -1.5794 -1.9006  1.4184
 4346TIP3    H237234   4.946   0.753   8.833 -0.1604  0.0101 -1.0002
 4347TIP3   OH237235   4.479   4.943   0.089  0.1557  0.2029 -0.0419
 4347TIP3    H137236   4.474   4.847   0.089  1.4834  0.0580  2.1164
 4347TIP3    H237237   4.438   4.969   0.007 -3.0790 -2.0432  0.6849
 4348TIP3   OH237238   5.948   7.382   0.921  0.1473  0.1791 -0.0252
 4348TIP3    H137239   5.933   7.341   1.007 -0.8628  1.3536  0.3942
 4348TIP3    H237240   5.872   7.356   0.869  1.7905 -2.3343 -1.3476
 4349TIP3   OH237241   1.217   6.431   0.801 -0.2748 -0.3388  0.1945
 4349TIP3    H137242   1.275   6.417   0.876 -1.8893 -0.4826  1.4554
 4349TIP3    H237243   1.175   6.515   0.819  0.3746  0.3371 -1.2905
 4350TIP3   OH237244   2.538   5.135   0.544 -0.1704  0.1946 -0.0771
 4350TIP3    H137245   2.459   5.084   0.528  1.1057 -1.6646 -0.7864
 4350TIP3    H237246   2.541   5.197   0.471  0.8641 -2.1853 -2.2138
 4351TIP3   OH237247   1.832   6.380   7.974 -0.2437 -0.7279 -0.0577
 4351TIP3    H137248   1.737   6.372   7.966 -0.1767 -2.2644  0.4225
 4351TIP3    H237249   1.866   6.361   7.887 -0.3903  0.6145 -0.4314
 4352TIP3   OH237250   7.000   7.258   8.684  0.3337 -0.4060 -0.0726
 4352TIP3    H137251   6.987   7.253   8.589  1.3400  0.7458 -0.2967
 4352TIP3    H237252   6.987   7.351   8.705 -0.6206 -0.7741  1.0414
 4353TIP3   OH237253   1.456   4.236   9.505  0.0011  0.2707  0.2758
 4353TIP3    H137254   1.442   4.330   9.515 -1.1858  0.2092 -0.6310
 4353TIP3    H237255   1.549   4.223   9.525 -0.2613  1.3096  2.5366
 4354TIP3   OH237256   1.540   4.066   7.936 -0.4323 -0.2482  0.1311
 4354TIP3    H137257   1.512   4.155   7.913 -0.9564 -0.1781  0.9929
 4354TIP3    H237258   1.498   4.010   7.871 -0.1110  0.1337 -0.4096
 4355TIP3   OH237259   1.159   2.480   9.369 -0.5804 -0.2844 -0.5931
 4355TIP3    H137260   1.248   2.511   9.355 -0.8585  0.2134 -1.2910
 4355TIP3    H237261   1.103   2.544   9.324 -1.2460 -0.9503 -0.7406
 4356TIP3   OH237262   0.180   1.349   9.204  0.7887 -0.5492 -0.2914
 4356TIP3    H137263   0.175   1.388   9.117  0.6989  0.8285  0.3098
 4356TIP3    H237264   0.269   1.366   9.234  0.3738  0.3124  0.4770
 4357TIP3   OH237265   2.197   0.815   8.989  0.4415 -0.2536  0.3080
 4357TIP3    H137266   2.151   0.893   9.019  0.8552  0.4863 -0.9405
 4357TIP3    H237267   2.274   0.848   8.944 -0.6214 -1.2554 -2.4290
 4358TIP3   OH237268   6.663   0.063   2.349  0.7184 -0.0036 -0.0791
 4358TIP3    H137269   6.597   0.005   2.310 -0.3124 -0.5237  2.2542
 4358TIP3    H237270   6.613   0.123   2.404  2.1197  0.2333  0.9867
 4359TIP3   OH237271   6.239   1.726   9.512 -0.6141  0.1546  0.0032
 4359TIP3    H137272   6.247   1.804   9.456  1.4049 -0.0731 -0.0944
 4359TIP3    H237273   6.327   1.712   9.547 -1.2209 -1.3500  1.0501
 4360TIP3   OH237274   2.592   3.345   8.330 -0.2498 -0.0578 -0.3495
 4360TIP3    H137275   2.549   3.429   8.344  0.2888 -0.1077  2.1519
 4360TIP3    H237276   2.606   3.310   8.419  0.2323 -2.4342 -1.2788
 4361TIP3   OH237277   2.448   7.361   2.211  0.0555 -0.0069  0.3895
 4361TIP3    H137278   2.436   7.293   2.276  0.9950  0.3312  0.9291
 4361TIP3    H237279   2.396   7.332   2.136 -0.2329 -0.8849  0.9194
 4362TIP3   OH237280   3.172   5.140   9.866  0.7961 -0.0901 -0.1522
 4362TIP3    H137281   3.251   5.192   9.884 -0.8871  1.6642  2.9758
 4362TIP3    H237282   3.141   5.174   9.782  0.8777  2.6533  0.8061
 4363TIP3   OH237283   2.862   6.182   2.122  0.3813  0.1867  0.2379
 4363TIP3    H137284   2.768   6.194   2.138 -0.0312  0.4986 -1.9792
 4363TIP3    H237285   2.874   6.214   2.032  2.1613 -2.0266 -0.3995
 4364TIP3   OH237286   1.268   0.081   0.817  0.1115  0.1540 -0.1371
 4364TIP3    H137287   1.173   0.068   0.813 -0.0909  1.5266  0.0566
 4364TIP3    H237288   1.294   0.087   0.725 -0.0694  0.3571 -0.1760
 4365TIP3   OH237289   0.632   4.874   2.028 -0.5539  0.7297 -0.0259
 4365TIP3    H137290   0.574   4.913   1.963 -1.4079  2.0545  1.4559
 4365TIP3    H237291   0.592   4.790   2.049  0.4926 -0.3881 -2.1591
 4366TIP3   OH237292   1.604   5.922   6.913  0.1935 -0.4176 -0.1904
 4366TIP3    H137293   1.619   6.016   6.925 -1.3827  0.2186 -2.3598
 4366TIP3    H237294   1.679   5.892   6.862 -0.9463  0.5726 -2.6455
 4367TIP3   OH237295   3.938   6.197   2.270 -0.3063  0.1386  0.1083
 4367TIP3    H137296   3.874   6.135   2.305 -0.9126  0.6023 -0.1643
 4367TIP3    H237297   3.990   6.144   2.208  1.5817 -1.0019  2.4833
 4368TIP3   OH237298   6.268   1.391   9.233  0.2362 -0.1779  0.0931
 4368TIP3    H137299   6.214   1.463   9.199  0.2531 -0.9031 -1.5686
 4368TIP3    H237300   6.350   1.433   9.258  0.3098  0.3742 -1.0130
 4369TIP3   OH237301   4.318   5.962   8.301 -0.0314 -0.2147  0.1052
 4369TIP3    H137302   4.289   5.875   8.277 -1.6149  0.6685 -1.4041
 4369TIP3    H237303   4.359   5.997   8.222  1.5730  0.0541  1.0153
 4370TIP3   OH237304   6.118   6.553   8.809 -0.0001  0.0729  0.4456
 4370TIP3    H137305   6.064   6.599   8.873 -0.1164 -1.9899  1.9164
 4370TIP3    H237306   6.075   6.571   8.725 -1.9498 -0.0118  1.3547
 4371TIP3   OH237307   1.903   1.107   8.909  0.1408  0.4948 -0.4124
 4371TIP3    H137308   1.903   1.194   8.871  2.1064 -0.2922 -2.3953
 4371TIP3    H237309   1.861   1.051   8.843 -1.2187 -0.1018  0.8781
 4372TIP3   OH237310   4.652   4.480   8.625  0.3523 -0.1539 -0.1062
 4372TIP3    H137311   4.732   4.506   8.671  1.0091  2.8806 -2.5982
 4372TIP3    H237312   4.592   4.553   8.639 -1.4919 -1.7038  0.4542
 4373TIP3   OH237313   4.825   4.191   9.515  0.0881 -0.5870  0.0968
 4373TIP3    H137314   4.743   4.189   9.466 -0.2569 -0.2903  0.6445
 4373TIP3    H237315   4.824   4.110   9.566  0.4862 -0.9365 -0.4346
 4374TIP3   OH237316   2.668   3.267   7.262 -0.3088 -0.1340  0.4529
 4374TIP3    H137317   2.693   3.308   7.178 -0.7358 -2.9547 -1.1707
 4374TIP3    H237318   2.751   3.253   7.307  0.2659 -1.4219 -0.9394
 4375TIP3   OH237319   7.193   6.834   8.444 -0.0601  0.0544  0.3712
 4375TIP3    H137320   7.195   6.862   8.353 -2.7980  1.0427  0.5105
 4375TIP3    H237321   7.188   6.916   8.494 -0.8304 -0.4889  1.2350
 4376TIP3   OH237322   1.448   1.824   9.405 -1.4126  0.0734  0.0354
 4376TIP3    H137323   1.375   1.878   9.433 -0.9953  2.2856 -2.7198
 4376TIP3    H237324   1.517   1.886   9.383 -0.0683 -1.7288 -1.0733
 4377TIP3   OH237325   4.696   7.423   9.980 -0.3776  0.3809 -0.0626
 4377TIP3    H137326   4.656   7.391   9.899  3.0169  1.5160 -2.4258
 4377TIP3    H237327   4.642   7.497  10.006 -0.7338  0.9613 -2.2346
 4378TIP3   OH237328   2.492   7.032   7.702  0.0230 -0.2984  0.5508
 4378TIP3    H137329   2.446   7.114   7.720  0.1435 -0.3365  1.0459
 4378TIP3    H237330   2.423   6.967   7.694 -0.2990  0.2749 -2.4899
 4379TIP3   OH237331   5.420   1.038   0.265 -0.2144 -0.2526  0.2453
 4379TIP3    H137332   5.442   1.111   0.208 -1.4076 -0.0590  0.0126
 4379TIP3    H237333   5.432   1.071   0.354  0.4364 -0.1653  0.1264
 4380TIP3   OH237334   1.029   1.565   8.200 -0.0992  0.3097 -0.6374
 4380TIP3    H137335   0.959   1.533   8.256  1.4896 -1.8176  0.2650
 4380TIP3    H237336   1.038   1.658   8.224  1.4525 -0.7377  3.8772
 4381TIP3   OH237337   4.485   4.822   8.238  0.0017 -0.0296 -0.3844
 4381TIP3    H137338   4.396   4.787   8.238  0.0897 -0.2522 -0.2336
 4381TIP3    H237339   4.505   4.837   8.145 -0.1035 -0.2092 -0.4363
 4382TIP3   OH237340   7.284   5.899   1.377  0.2474 -0.4102  0.1282
 4382TIP3    H137341   7.280   5.854   1.293  2.6674 -1.5927  0.5638
 4382TIP3    H237342   7.263   5.832   1.442 -0.5971  0.2385  0.5466
 4383TIP3   OH237343   6.603   0.757   0.704 -0.3771 -0.2070 -0.4472
 4383TIP3    H137344   6.657   0.730   0.779 -1.0663 -0.5477 -0.0680
 4383TIP3    H237345   6.542   0.684   0.691  0.0147 -0.3430 -1.6209
 4384TIP3   OH237346   6.519   4.081   7.875 -0.2316 -0.1321 -0.2668
 4384TIP3    H137347   6.563   4.110   7.795 -2.6111  0.5719 -1.4195
 4384TIP3    H237348   6.429   4.109   7.863 -0.3932  1.4103  3.3758
 4385TIP3   OH237349   0.557   2.764   8.291  0.1256 -0.2304 -0.5945
 4385TIP3    H137350   0.597   2.837   8.244  1.2186 -1.0957 -1.0458
 4385TIP3    H237351   0.500   2.722   8.226 -0.9633  0.5475 -0.1685
 4386TIP3   OH237352   4.874   2.591   0.905  0.2252  0.3644 -0.3568
 4386TIP3    H137353   4.893   2.547   0.987  0.0703  0.4342 -0.2828
 4386TIP3    H237354   4.943   2.657   0.896 -0.7227  1.5136  0.5637
 4387TIP3   OH237355   4.816   5.792   9.733 -0.5337  0.1223 -0.3877
 4387TIP3    H137356   4.888   5.847   9.766  0.8708 -0.8216 -1.7138
 4387TIP3    H237357   4.763   5.852   9.680 -1.2648  1.0229  1.2999
 4388TIP3   OH237358   0.460   4.543   9.455 -0.1189  0.0678 -0.5034
 4388TIP3    H137359   0.555   4.555   9.463 -0.1250 -0.5360  0.5280
 4388TIP3    H237360   0.450   4.453   9.424 -0.3859 -0.1699  0.2706
 4389TIP3   OH237361   5.189   4.634   0.186 -0.1336 -0.3918 -0.3839
 4389TIP3    H137362   5.137   4.689   0.127  0.9673  1.0505 -0.0754
 4389TIP3    H237363   5.249   4.587   0.128  0.5277  0.5528 -0.4846
 4390TIP3   OH237364   0.255   0.422   2.933 -0.0252  0.1052 -0.7302
 4390TIP3    H137365   0.190   0.376   2.879  0.1439  0.2872 -1.0925
 4390TIP3    H237366   0.278   0.359   3.001 -0.6272  0.0610 -0.5579
 4391TIP3   OH237367   2.769   2.118   0.845 -0.2262 -0.5157  0.1702
 4391TIP3    H137368   2.724   2.201   0.861  0.7212  0.0439 -0.0017
 4391TIP3    H237369   2.727   2.083   0.767  0.8028  0.8944 -1.0881
 4392TIP3   OH237370   2.839   0.656   9.122  0.9486 -0.5479  0.0091
 4392TIP3    H137371   2.883   0.739   9.100  0.5305 -0.3326 -0.0292
 4392TIP3    H237372   2.776   0.644   9.052 -0.7143  0.3731  1.2741
 4393TIP3   OH237373   2.108   5.919   1.884 -0.7271  0.2539  0.0923
 4393TIP3    H137374   2.084   5.836   1.924 -0.5274  0.4236  0.5737
 4393TIP3    H237375   2.144   5.896   1.799 -0.6856 -0.1510  0.2202
 4394TIP3   OH237376   5.222   3.460   8.290  0.0070  0.6643  0.0191
 4394TIP3    H137377   5.171   3.470   8.210 -0.9921 -1.4270  0.3092
 4394TIP3    H237378   5.244   3.549   8.316 -0.2408  1.4325 -2.1745
 4395TIP3   OH237379   3.954   6.948   0.128 -0.2352 -1.1989 -0.0151
 4395TIP3    H137380   3.987   6.985   0.210 -0.6045  0.5346 -0.6056
 4395TIP3    H237381   4.029   6.901   0.091  0.4143 -0.6292  0.5437
 4396TIP3   OH237382   5.145   0.521   0.148 -0.5207  0.1543 -0.8816
 4396TIP3    H137383   5.088   0.597   0.137  0.5696  0.9270 -1.2968
 4396TIP3    H237384   5.155   0.486   0.060  1.7353  1.5923 -1.2734
 4397TIP3   OH237385   3.584   7.572   7.911 -0.5388 -0.2136 -0.5359
 4397TIP3    H137386   3.558   7.576   7.819  0.7699  1.0676 -0.8856
 4397TIP3    H237387   3.516   7.621   7.958 -0.3436  0.5622 -1.0490
 4398TIP3   OH237388   3.366   1.057   1.747 -0.1149 -0.1045  0.1765
 4398TIP3    H137389   3.364   1.087   1.656  0.6277  0.0955  0.2165
 4398TIP3    H237390   3.459   1.051   1.768 -0.2724 -0.7475  0.7320
 4399TIP3   OH237391   7.498   4.238   9.155  0.5870 -0.0349  0.3376
 4399TIP3    H137392   7.524   4.152   9.186  1.5862  0.4696  0.9225
 4399TIP3    H237393   7.580   4.286   9.143 -0.0033  1.2292  1.1646
 4400TIP3   OH237394   4.427   3.845   8.634 -0.1585 -0.5607 -0.2552
 4400TIP3    H137395   4.373   3.899   8.691  1.7159 -0.1257  1.1951
 4400TIP3    H237396   4.370   3.825   8.559 -2.1497  0.2056  0.9705
 4401TIP3   OH237397   4.151   1.840   2.414 -0.1013 -0.0478  0.1986
 4401TIP3    H137398   4.136   1.762   2.360 -0.1764 -0.0230  0.1827
 4401TIP3    H237399   4.107   1.820   2.497 -0.1224 -0.0215  0.1937
 4402TIP3   OH237400   3.034   1.764   0.176 -0.6310 -0.3002 -0.0322
 4402TIP3    H137401   2.985   1.846   0.172 -0.2134 -0.0873 -0.9348
 4402TIP3    H237402   3.030   1.738   0.268  0.9526  1.7898  0.7014
 4403TIP3   OH237403   2.995   3.376   9.840  0.0182  0.2994  0.7409
 4403TIP3    H137404   2.996   3.281   9.832 -0.7188  0.4557 -2.3038
 4403TIP3    H237405   3.032   3.408   9.758 -1.7982  2.6615  0.7254
 4404TIP3   OH237406   6.159   5.776   8.762 -0.0048  0.3135 -0.8297
 4404TIP3    H137407   6.113   5.856   8.785 -0.6732 -0.4071  0.4937
 4404TIP3    H237408   6.221   5.762   8.834  0.0431 -0.3969 -0.9995
 4405TIP3   OH237409   3.623   2.173   1.700  0.3914 -0.0617 -0.3673
 4405TIP3    H137410   3.626   2.087   1.658 -0.1593 -0.6224  0.7217
 4405TIP3    H237411   3.656   2.158   1.788 -0.7303  0.6324  0.1867
 4406TIP3   OH237412   4.491   7.199   2.581  1.0854  0.4731 -0.2559
 4406TIP3    H137413   4.499   7.152   2.665  0.4935  0.4366 -0.2185
 4406TIP3    H237414   4.422   7.263   2.596  0.1192 -0.3359 -1.0750
 4407TIP3   OH237415   7.523   0.626   0.104  0.2626 -0.1541 -0.6657
 4407TIP3    H137416   7.570   0.590   0.179 -0.7880  1.2411  0.7399
 4407TIP3    H237417   7.498   0.714   0.131 -1.1851 -0.0324 -2.2087
 4408TIP3   OH237418   1.326   7.381   1.522 -0.0095 -0.0836 -0.2215
 4408TIP3    H137419   1.372   7.410   1.601  0.8258  2.6973 -1.6116
 4408TIP3    H237420   1.389   7.323   1.478  0.2537 -0.1599  0.2501
 4409TIP3   OH237421   6.633   2.161   0.914  0.0278  0.0891 -0.7448
 4409TIP3    H137422   6.711   2.216   0.920  0.2330  0.0467 -2.3847
 4409TIP3    H237423   6.586   2.195   0.838  0.1747 -1.9679 -1.8437
 4410TIP3   OH237424   5.414   3.494   1.376 -0.0822 -0.1724  0.0918
 4410TIP3    H137425   5.373   3.579   1.362 -0.5499 -0.7184 -2.1725
 4410TIP3    H237426   5.483   3.489   1.310 -0.2931 -1.6789 -0.0546
 4411TIP3   OH237427   5.199   3.556   0.968 -0.3830  0.0548 -0.2037
 4411TIP3    H137428   5.108   3.526   0.974 -0.2395 -1.1117 -2.7445
 4411TIP3    H237429   5.250   3.488   1.011 -0.6713  0.6312  1.0845
 4412TIP3   OH237430   3.039   0.221   8.772  0.6684  0.1717 -0.4047
 4412TIP3    H137431   3.012   0.312   8.759  0.6610  0.2004 -0.2005
 4412TIP3    H237432   2.957   0.175   8.788  0.6562  0.0987 -0.6722
 4413TIP3   OH237433   0.531   4.297   7.465  0.0860  0.2969 -0.2974
 4413TIP3    H137434   0.567   4.223   7.415 -1.5356 -1.1192  0.5200
 4413TIP3    H237435   0.469   4.338   7.405  0.7179  0.7838 -0.6267
 4414TIP3   OH237436   4.744   1.827   1.809  0.1560  0.3039  0.6443
 4414TIP3    H137437   4.694   1.776   1.873 -1.3003 -3.5758 -3.0868
 4414TIP3    H237438   4.828   1.781   1.803 -0.6996 -1.1311 -1.8862
 4415TIP3   OH237439   3.373   6.703   2.110 -0.4855 -0.2388  0.0965
 4415TIP3    H137440   3.324   6.773   2.066  2.0328  2.6344  1.4812
 4415TIP3    H237441   3.386   6.637   2.042 -1.6656  1.3244 -1.7597
 4416TIP3   OH237442   3.342   3.098   2.285 -0.6131 -0.5349 -0.0519
 4416TIP3    H137443   3.410   3.032   2.271  1.8772  2.2284 -2.1415
 4416TIP3    H237444   3.295   3.102   2.202  1.7810  2.7288 -1.4788
 4417TIP3   OH237445   0.317   1.313   1.859  0.1978  0.3280 -0.4968
 4417TIP3    H137446   0.265   1.335   1.936  0.2559 -0.3032 -0.2779
 4417TIP3    H237447   0.294   1.382   1.795  0.3244  0.9826  0.1507
 4418TIP3   OH237448   2.778   4.797   8.733 -0.4692 -0.2420 -0.0722
 4418TIP3    H137449   2.866   4.792   8.695 -0.1179  0.2158  0.6538
 4418TIP3    H237450   2.790   4.770   8.824 -1.2543 -1.0874 -0.2115
 4419TIP3   OH237451   1.359   1.123   8.161  0.4779 -0.3019 -0.2767
 4419TIP3    H137452   1.301   1.047   8.156 -0.4624  0.2809  1.2159
 4419TIP3    H237453   1.400   1.117   8.248  1.1082  0.3963 -0.5112
 4420TIP3   OH237454   7.245   2.598   8.645  0.2908  0.0196 -0.2925
 4420TIP3    H137455   7.280   2.639   8.566  1.1460  0.2486  0.1921
 4420TIP3    H237456   7.323   2.572   8.694 -0.2150  0.5005  0.7871
 4421TIP3   OH237457   0.503   0.553   8.771  0.4101  0.4512 -0.7195
 4421TIP3    H137458   0.565   0.480   8.765 -0.3726 -0.2717 -0.2448
 4421TIP3    H237459   0.452   0.547   8.691 -1.9904 -1.7394  0.8274
 4422TIP3   OH237460   4.957   2.887   2.472  0.3337  0.1404  0.3046
 4422TIP3    H137461   4.894   2.816   2.487  0.4473  0.1137  0.6632
 4422TIP3    H237462   4.988   2.910   2.560  1.3753 -0.3429  0.0722
 4423TIP3   OH237463   3.136   0.700   9.222  0.1893  0.2520  0.0122
 4423TIP3    H137464   3.184   0.641   9.281  0.0480  0.9188  0.8075
 4423TIP3    H237465   3.078   0.642   9.173  0.4951 -0.3514  0.3477
 4424TIP3   OH237466   4.212   6.493   2.946 -0.7894 -0.1284  0.0873
 4424TIP3    H137467   4.175   6.487   2.858 -0.6756  0.4888 -0.0087
 4424TIP3    H237468   4.188   6.581   2.976  2.2559  1.0905 -0.7385
 4425TIP3   OH237469   3.186   0.233   9.018  0.6614  0.1954 -0.3830
 4425TIP3    H137470   3.138   0.254   8.938 -1.2142 -0.1107  0.6144
 4425TIP3    H237471   3.171   0.307   9.076  0.6439 -0.3191  0.2809
 4426TIP3   OH237472   0.927   4.620   0.494 -0.5029 -0.1083 -0.1753
 4426TIP3    H137473   0.909   4.713   0.480  0.2738  0.1627  0.5523
 4426TIP3    H237474   0.845   4.576   0.472 -0.9585  0.7715 -0.2701
 4427TIP3   OH237475   5.237   3.378   2.632 -0.3194 -0.3414 -0.4438
 4427TIP3    H137476   5.150   3.352   2.602 -0.1630 -1.4131 -0.0289
 4427TIP3    H237477   5.294   3.307   2.602  0.1935 -0.3094  0.4352
 4428TIP3   OH237478   5.590   6.275   8.079  0.3142  0.0163  0.0134
 4428TIP3    H137479   5.525   6.236   8.137  0.0636  0.9192  0.3432
 4428TIP3    H237480   5.601   6.364   8.111  1.0396  0.1594 -0.6083
 4429TIP3   OH237481   1.722   1.196   8.245 -0.7217  0.4257 -0.2161
 4429TIP3    H137482   1.770   1.275   8.270  0.7950  0.3694 -2.6693
 4429TIP3    H237483   1.760   1.128   8.301  0.3962  0.8275 -0.4498
 4430TIP3   OH237484   5.583   6.626   1.404 -0.4287  0.1121  0.1988
 4430TIP3    H137485   5.580   6.606   1.498  1.4119  1.1255  0.5143
 4430TIP3    H237486   5.641   6.702   1.397  0.5528 -0.7347 -1.8852
 4431TIP3   OH237487   3.174   6.035   1.268  0.4322  0.4967 -0.0380
 4431TIP3    H137488   3.131   6.107   1.221 -0.2141 -0.1121 -0.3933
 4431TIP3    H237489   3.232   5.996   1.202 -1.1066 -0.8987 -0.6250
 4432TIP3   OH237490   4.015   6.988   1.463 -0.1921  0.2238 -0.2944
 4432TIP3    H137491   3.947   7.007   1.399  1.6147  1.2734 -2.0069
 4432TIP3    H237492   4.095   7.024   1.425  1.0853  0.3584  2.2991
 4433TIP3   OH237493   3.090   5.005   1.795 -0.1122  0.3005 -0.0829
 4433TIP3    H137494   2.996   4.994   1.806 -0.3646  0.5282 -1.7908
 4433TIP3    H237495   3.120   5.039   1.880 -1.3827 -0.7123  0.8180
 4434TIP3   OH237496   5.016   4.808   1.330  0.1257 -0.1389 -0.0814
 4434TIP3    H137497   4.986   4.718   1.321 -0.3580 -0.0584  0.6593
 4434TIP3    H237498   5.104   4.801   1.368  0.0414 -0.2976  0.0860
 4435TIP3   OH237499   2.104   4.782   2.658  0.4206  0.2658 -0.0961
 4435TIP3    H137500   2.156   4.704   2.642  1.3459  0.6775  0.8352
 4435TIP3    H237501   2.110   4.831   2.576 -1.2511 -1.2086 -1.1657
 4436TIP3   OH237502   5.081   6.821   8.762  0.0360 -0.1794  0.4276
 4436TIP3    H137503   5.155   6.781   8.715  0.4999  0.8902  0.2254
 4436TIP3    H237504   5.017   6.838   8.693 -0.5345 -1.3659  0.6441
 4437TIP3   OH237505   5.912   3.229   0.624 -0.3500  0.2050  0.2102
 4437TIP3    H137506   5.913   3.324   0.610 -1.7191  0.1158 -0.6610
 4437TIP3    H237507   5.828   3.213   0.666  0.2735 -0.5327  1.2174
 4438TIP3   OH237508   0.206   0.939   0.782 -0.9401 -0.1682  0.3592
 4438TIP3    H137509   0.199   0.884   0.703  0.1435 -1.4418  1.0962
 4438TIP3    H237510   0.239   0.879   0.849 -1.1575  1.0655  1.6076
 4439TIP3   OH237511   5.143   1.348   8.242  0.2820 -0.1034  0.1383
 4439TIP3    H137512   5.069   1.290   8.225  0.2561 -0.6274  1.8260
 4439TIP3    H237513   5.165   1.386   8.157 -0.8597 -1.2054 -0.6714
 4440TIP3   OH237514   4.244   6.754   2.054 -0.1120  0.4402 -0.5191
 4440TIP3    H137515   4.221   6.764   1.961 -0.0562  0.4523 -0.5318
 4440TIP3    H237516   4.281   6.838   2.078 -0.7636  0.6725 -0.3005
 4441TIP3   OH237517   4.291   3.823   0.867  1.0862 -0.1463  1.0701
 4441TIP3    H137518   4.321   3.736   0.844  3.1486  0.1207  2.5221
 4441TIP3    H237519   4.339   3.882   0.807  0.0613  0.0518  0.4146
 4442TIP3   OH237520   1.872   3.517   0.303 -0.1395  0.0067  0.3758
 4442TIP3    H137521   1.920   3.572   0.241  0.1248 -0.1637  0.4257
 4442TIP3    H237522   1.940   3.461   0.342 -0.3417 -0.0558  0.6381
 4443TIP3   OH237523   5.213   4.347   1.092 -0.3145  0.4328  0.2391
 4443TIP3    H137524   5.177   4.361   1.004 -0.4192 -0.2173  0.1687
 4443TIP3    H237525   5.189   4.426   1.141  0.8247  1.3617 -0.6565
 4444TIP3   OH237526   5.532   1.828   1.022 -0.9781  0.2724  0.3485
 4444TIP3    H137527   5.536   1.778   1.104  0.4087 -1.0943 -0.4935
 4444TIP3    H237528   5.463   1.785   0.971  1.3967 -2.1014 -1.1006
 4445TIP3   OH237529   2.173   1.595   7.391 -0.1724  0.1033  0.0032
 4445TIP3    H137530   2.153   1.637   7.308 -2.4696 -0.7061  0.0702
 4445TIP3    H237531   2.219   1.515   7.367 -1.6183 -0.5891 -0.6191
 4446TIP3   OH237532   6.354   3.045   1.317 -0.8307  0.0600  0.0317
 4446TIP3    H137533   6.345   2.951   1.333 -0.2511 -0.0025  0.0337
 4446TIP3    H237534   6.446   3.064   1.336 -0.3470  0.1937 -2.1702
 4447TIP3   OH237535   5.355   5.693   1.126  0.1495 -0.1279  0.2913
 4447TIP3    H137536   5.343   5.788   1.121  0.1727 -0.1026  0.7051
 4447TIP3    H237537   5.434   5.676   1.074 -0.2048  0.0050 -0.2963
 4448TIP3   OH237538   3.474   3.628   2.825 -0.1425  0.1548 -0.3442
 4448TIP3    H137539   3.506   3.659   2.910 -3.4888  1.5454  0.5829
 4448TIP3    H237540   3.496   3.698   2.764 -1.0492  0.9417  0.2077
 4449TIP3   OH237541   2.587   3.642   7.693  0.8314  0.0955  0.1351
 4449TIP3    H137542   2.640   3.642   7.773  1.3542 -0.0505 -0.2099
 4449TIP3    H237543   2.646   3.611   7.625  0.2411 -0.2962 -0.2116
 4450TIP3   OH237544   6.947   7.029   1.286 -0.0864  0.7931  0.2505
 4450TIP3    H137545   6.971   6.972   1.213  0.4447  0.4632  0.6704
 4450TIP3    H237546   6.859   7.000   1.311  0.5959 -0.6147  1.1570
 4451TIP3   OH237547   6.022   4.213   8.225  0.4074  0.0778 -0.6601
 4451TIP3    H137548   5.997   4.288   8.279 -1.8161 -1.5137  0.6748
 4451TIP3    H237549   5.949   4.202   8.164 -1.0413 -2.8968  1.3616
 4452TIP3   OH237550   4.493   7.387   2.232 -0.0860 -0.9151  0.0404
 4452TIP3    H137551   4.508   7.449   2.303 -1.2311 -0.5368 -0.0251
 4452TIP3    H237552   4.567   7.326   2.237  0.3962 -0.2844  0.8907
 4453TIP3   OH237553   5.427   7.437   9.725  0.4319  0.1177  0.6747
 4453TIP3    H137554   5.338   7.431   9.691  1.0834  0.5801 -1.2314
 4453TIP3    H237555   5.479   7.383   9.666  1.5445  0.4345  1.3258
 4454TIP3   OH237556   0.982   6.677   9.079  0.4147  0.0426 -0.4494
 4454TIP3    H137557   0.894   6.690   9.043  0.3401 -0.2853 -0.3955
 4454TIP3    H237558   0.986   6.583   9.096 -0.5204  0.4757  2.8888
 4455TIP3   OH237559   3.471   7.559   7.628  0.0277 -0.6940 -0.3605
 4455TIP3    H137560   3.432   7.598   7.550  0.9799  1.3631  0.1464
 4455TIP3    H237561   3.411   7.487   7.651 -3.0880  1.7715 -0.0843
 4456TIP3   OH237562   2.836   7.498   2.543 -0.6164  0.0747  0.1159
 4456TIP3    H137563   2.807   7.588   2.558  0.1508  0.0490  1.9566
 4456TIP3    H237564   2.780   7.445   2.600  0.1355 -0.4147  0.4166
 4457TIP3   OH237565   4.557   6.932   8.432  0.2336  0.1894 -0.7914
 4457TIP3    H137566   4.471   6.957   8.467  0.1975 -0.1285 -0.6434
 4457TIP3    H237567   4.540   6.851   8.383  0.2146  0.8293 -1.8780
 4458TIP3   OH237568   3.328   1.618   1.887 -0.4017  0.0690  0.2748
 4458TIP3    H137569   3.299   1.553   1.823  0.3914  0.4616 -0.5031
 4458TIP3    H237570   3.353   1.694   1.834  0.4501  0.3319  1.0364
 4459TIP3   OH237571   4.381   6.997   7.240  0.1442  0.3284 -0.7016
 4459TIP3    H137572   4.339   7.061   7.181  1.0376 -1.1333 -3.0786
 4459TIP3    H237573   4.472   7.028   7.246  0.2884 -0.0541 -0.8962
 4460TIP3   OH237574   3.408   5.187   9.638  0.0690  0.0694  0.8416
 4460TIP3    H137575   3.318   5.216   9.626 -0.8009 -2.2184  1.3086
 4460TIP3    H237576   3.424   5.192   9.732  1.1151  2.1875  0.6066
 4461TIP3   OH237577   7.285   7.107   9.968 -0.4139  0.3444 -0.2084
 4461TIP3    H137578   7.333   7.035   9.928 -1.1770 -0.6674  0.6433
 4461TIP3    H237579   7.194   7.078   9.969 -0.4157  0.2146  2.3652
 4462TIP3   OH237580   1.328   0.833   2.698 -0.2895 -0.2560 -0.5989
 4462TIP3    H137581   1.361   0.808   2.785 -0.8710  0.3255 -0.2027
 4462TIP3    H237582   1.316   0.928   2.704 -1.8852 -0.4282 -0.7780
 4463TIP3   OH237583   1.742   5.057   1.806  0.1098 -0.2285  0.4557
 4463TIP3    H137584   1.701   5.121   1.865  0.6440  0.3163  0.2466
 4463TIP3    H237585   1.700   5.071   1.722  0.3982  0.0164  0.3514
 4464TIP3   OH237586   1.663   2.174   8.994  0.0985  0.1855 -0.0214
 4464TIP3    H137587   1.632   2.167   9.084  0.5781  0.8226  0.2033
 4464TIP3    H237588   1.736   2.236   8.999 -0.4109  0.8964 -0.9756
 4465TIP3   OH237589   2.865   7.344   9.301 -0.4154  0.2573 -0.1443
 4465TIP3    H137590   2.948   7.351   9.347 -1.1277  1.1939  1.0567
 4465TIP3    H237591   2.865   7.418   9.240  0.6435 -1.1336 -1.9503
 4466TIP3   OH237592   5.780   7.021   1.965  0.7427 -0.2010  0.3692
 4466TIP3    H137593   5.798   7.053   2.054 -2.3973  0.9161  0.7183
 4466TIP3    H237594   5.707   7.074   1.934  0.4195 -1.9113 -2.1308
 4467TIP3   OH237595   0.673   0.115   7.408 -0.1049 -0.3661 -0.1464
 4467TIP3    H137596   0.643   0.087   7.494 -0.3141 -0.8863 -0.3832
 4467TIP3    H237597   0.675   0.035   7.356  2.1610 -0.4487 -0.0277
 4468TIP3   OH237598   2.715   5.952   8.730  0.5703  0.0167 -0.0688
 4468TIP3    H137599   2.770   5.983   8.802 -0.9819  1.4064  0.5757
 4468TIP3    H237600   2.741   6.005   8.655  0.6492  0.1169  0.0292
 4469TIP3   OH237601   7.373   4.209   0.067 -0.2988  0.3610  0.3361
 4469TIP3    H137602   7.391   4.117   0.046 -1.0305 -0.0050  1.2500
 4469TIP3    H237603   7.364   4.251  -0.018  1.6446 -0.0611 -0.1427
 4470TIP3   OH237604   0.711   6.422   0.004  0.8513 -0.6413  0.0712
 4470TIP3    H137605   0.648   6.454   0.069  0.1294 -0.2858 -0.7837
 4470TIP3    H237606   0.755   6.501  -0.026  1.0524 -0.7851 -0.0074
 4471TIP3   OH237607   3.433   0.031   6.905 -0.2306 -0.2930 -0.0902
 4471TIP3    H137608   3.486  -0.042   6.872  2.0362  1.4939 -0.7381
 4471TIP3    H237609   3.484   0.067   6.978 -0.5211  1.5067 -0.7180
 4472TIP3   OH237610   4.530   5.137   9.629  0.1427 -0.1925 -0.3431
 4472TIP3    H137611   4.610   5.099   9.666  1.0010  1.5444 -0.3495
 4472TIP3    H237612   4.473   5.061   9.613  0.8513 -1.2660  1.8439
 4473TIP3   OH237613   2.903   4.248   2.927 -0.2466  0.1192 -0.5281
 4473TIP3    H137614   2.963   4.215   2.994  1.0448 -0.0569 -1.7370
 4473TIP3    H237615   2.820   4.202   2.944  1.0302 -2.6148 -1.1770
 4474TIP3   OH237616   0.985   6.677   9.650 -0.2877 -0.1304  0.0780
 4474TIP3    H137617   0.964   6.588   9.623  0.1535 -0.2435  0.0989
 4474TIP3    H237618   1.025   6.717   9.573 -0.0857 -0.0888  0.2035
 4475TIP3   OH237619   2.470   3.956   2.469  0.2305  0.8550 -0.1210
 4475TIP3    H137620   2.445   3.872   2.507  2.2469  0.7716  1.1665
 4475TIP3    H237621   2.449   4.020   2.536  1.0842  1.0693 -0.0555
 4476TIP3   OH237622   1.979   7.492   6.598  0.0536  0.5272  0.0874
 4476TIP3    H137623   1.899   7.543   6.610 -1.3030 -1.4405 -0.1612
 4476TIP3    H237624   2.006   7.510   6.508 -1.0217  0.0342 -0.3561
 4477TIP3   OH237625   1.349   1.090   9.653 -0.5906 -0.1370  0.5055
 4477TIP3    H137626   1.343   1.183   9.675  0.9613 -0.4387  2.5271
 4477TIP3    H237627   1.441   1.076   9.635 -0.6034 -1.4948  1.3834
 4478TIP3   OH237628   7.262   7.076   8.544 -0.0075  0.1447  0.2699
 4478TIP3    H137629   7.317   7.080   8.623 -1.2723  0.2625  1.1709
 4478TIP3    H237630   7.190   7.137   8.562  0.0490  0.6898 -1.2808
 4479TIP3   OH237631   6.447   5.172   0.729 -0.7569  0.1687 -0.0255
 4479TIP3    H137632   6.427   5.265   0.734 -1.5647 -0.0107  0.3224
 4479TIP3    H237633   6.364   5.129   0.748 -0.5972 -0.6284 -1.0224
 4480TIP3   OH237634   1.225   2.749   7.698  0.6203  0.0589  0.2617
 4480TIP3    H137635   1.201   2.823   7.643  2.8583  1.2721  0.8169
 4480TIP3    H237636   1.276   2.692   7.641  0.7058 -0.0010  0.3974
 4481TIP3   OH237637   3.867   0.643   8.602  0.1699 -0.3702 -0.0277
 4481TIP3    H137638   3.892   0.673   8.514 -0.9312 -1.2107 -0.6590
 4481TIP3    H237639   3.784   0.688   8.620 -0.8385 -1.9676 -0.4504
 4482TIP3   OH237640   6.418   0.810   8.432 -0.2651 -0.1952  0.1136
 4482TIP3    H137641   6.353   0.778   8.369  0.2874  0.9053 -1.0567
 4482TIP3    H237642   6.477   0.736   8.446 -0.7558 -0.6450 -0.1855
 4483TIP3   OH237643   7.116   2.968   0.768 -0.3885 -0.3044  0.1572
 4483TIP3    H137644   7.201   2.996   0.802  0.5125 -1.4162 -1.0340
 4483TIP3    H237645   7.104   2.880   0.804 -0.7690 -0.3689 -0.1196
 4484TIP3   OH237646   5.262   3.429   1.893 -0.0599 -0.1324  0.1832
 4484TIP3    H137647   5.176   3.469   1.878  0.5982  1.6197  0.7572
 4484TIP3    H237648   5.289   3.398   1.807 -1.3446 -0.8908  0.0298
 4485TIP3   OH237649   5.209   2.912   8.536  0.2892 -0.1658  0.0565
 4485TIP3    H137650   5.184   3.004   8.535 -0.9681 -0.4825  0.3815
 4485TIP3    H237651   5.170   2.878   8.616  1.8558 -0.7064  0.6472
 4486TIP3   OH237652   1.491   7.680   9.514 -0.1436  0.4652  0.5663
 4486TIP3    H137653   1.414   7.625   9.527  0.9774 -1.2819  0.0716
 4486TIP3    H237654   1.463   7.745   9.449 -0.8865 -0.8139 -0.4410
 4487TIP3   OH237655   7.603   5.813   9.137  0.3687 -0.3463 -0.2551
 4487TIP3    H137656   7.558   5.862   9.206  0.8424 -0.5192  0.1833
 4487TIP3    H237657   7.686   5.786   9.177  0.8872  0.0179 -1.0673
 4488TIP3   OH237658   1.906   4.133   2.456 -0.1940  0.2292  0.2368
 4488TIP3    H137659   1.965   4.062   2.483  0.4408  0.3474 -0.7801
 4488TIP3    H237660   1.863   4.160   2.537  0.7901 -0.1951  0.9289
 4489TIP3   OH237661   6.984   4.528   1.936 -0.3113  0.1787 -0.2700
 4489TIP3    H137662   6.967   4.493   1.848 -2.0719 -0.1306  0.1476
 4489TIP3    H237663   7.036   4.607   1.921 -1.2292  0.5614 -1.6622
 4490TIP3   OH237664   3.385   6.255   2.356  0.3271  0.2524 -0.3777
 4490TIP3    H137665   3.315   6.199   2.320  0.1766  0.9949 -1.2776
 4490TIP3    H237666   3.344   6.341   2.364  1.3883  0.9195 -1.8029
 4491TIP3   OH237667   4.529   6.206   1.636  0.6205 -0.5732 -0.1686
 4491TIP3    H137668   4.511   6.296   1.609  0.8255 -0.4299  0.1676
 4491TIP3    H237669   4.557   6.162   1.556  2.0321  0.0497 -0.0573
 4492TIP3   OH237670   4.244   0.561   9.001  0.3929  0.3992 -0.1775
 4492TIP3    H137671   4.194   0.506   8.941  0.4971  2.4386 -2.2802
 4492TIP3    H237672   4.179   0.622   9.038  0.4891 -0.2603  1.1307
 4493TIP3   OH237673   3.525   3.345   0.518  0.0700  0.2939  0.2810
 4493TIP3    H137674   3.552   3.263   0.478 -0.2103 -0.2999  1.2534
 4493TIP3    H237675   3.587   3.360   0.589 -1.5491 -0.6472  1.9935
 4494TIP3   OH237676   2.731   2.158   2.580  0.4259 -0.3136 -0.6369
 4494TIP3    H137677   2.812   2.137   2.627  0.3980 -0.3738 -0.6168
 4494TIP3    H237678   2.724   2.090   2.513  0.7004  0.0227 -1.0147
 4495TIP3   OH237679   2.357   3.513   0.567  0.4264  0.0620 -0.5335
 4495TIP3    H137680   2.401   3.526   0.483  2.1009  0.1730  0.3312
 4495TIP3    H237681   2.427   3.494   0.629 -0.7519  0.2004  0.9029
 4496TIP3   OH237682   5.958   1.630   2.394  0.8373 -0.0362 -0.1253
 4496TIP3    H137683   5.905   1.580   2.457 -1.1479  2.3352  0.2258
 4496TIP3    H237684   5.991   1.705   2.444  1.5765  0.4072 -1.2418
 4497TIP3   OH237685   0.614   0.364   9.432 -0.1505  0.7761  0.5717
 4497TIP3    H137686   0.589   0.335   9.519 -0.0765 -0.8434  0.0899
 4497TIP3    H237687   0.706   0.339   9.423  0.2574  2.2000  0.5191
 4498TIP3   OH237688   0.919   1.777   7.964 -0.0467  0.0247  0.2291
 4498TIP3    H137689   0.976   1.844   8.002 -1.1397  0.4169  1.2274
 4498TIP3    H237690   0.865   1.747   8.036  0.6403 -2.2177 -0.1178
 4499TIP3   OH237691   6.067   3.542   8.055  0.0790  0.5087  0.8604
 4499TIP3    H137692   6.038   3.463   8.101  0.3599  0.5049  1.0283
 4499TIP3    H237693   5.991   3.567   8.002  0.6550 -1.0570 -0.8122
 4500TIP3   OH237694   5.202   4.177   0.814 -0.3636  0.4082 -1.1048
 4500TIP3    H137695   5.157   4.144   0.891  0.5433 -0.9570 -1.1120
 4500TIP3    H237696   5.163   4.129   0.741  1.8107 -1.7127 -0.9916
 4501TIP3   OH237697   1.108   3.938   8.417  0.1050  0.0671 -0.5388
 4501TIP3    H137698   1.018   3.905   8.421 -0.0746  0.4570 -1.2599
 4501TIP3    H237699   1.161   3.865   8.449 -0.1010 -1.6906 -3.8176
 4502TIP3   OH237700   0.863   4.638   2.106 -0.2527  0.3363 -0.3411
 4502TIP3    H137701   0.845   4.696   2.180 -1.8637 -0.6825  0.1219
 4502TIP3    H237702   0.853   4.694   2.029 -3.6521  0.4008 -0.0062
 4503TIP3   OH237703   4.513   3.078   1.075 -0.1001  0.1956 -0.1737
 4503TIP3    H137704   4.510   2.983   1.086 -0.4649  0.3150  0.9307
 4503TIP3    H237705   4.444   3.111   1.132 -0.0959  1.1151 -0.6858
 4504TIP3   OH237706   2.339   1.070   8.876 -0.0210 -0.5038 -0.5080
 4504TIP3    H137707   2.418   1.026   8.844 -0.0193  0.3288 -1.7202
 4504TIP3    H237708   2.312   1.127   8.804 -0.4423  0.9252  0.7154
 4505TIP3   OH237709   1.333   6.219   2.530 -0.0331 -0.6275 -0.1830
 4505TIP3    H137710   1.245   6.255   2.542  0.5227  0.5827  0.4844
 4505TIP3    H237711   1.383   6.253   2.604  0.7542 -2.1550  0.0223
 4506TIP3   OH237712   3.144   6.406   1.386 -0.2604 -0.6637 -0.0662
 4506TIP3    H137713   3.087   6.403   1.310 -2.3704 -1.8403  1.4693
 4506TIP3    H237714   3.220   6.458   1.357 -2.6369  2.1267 -1.8375
 4507TIP3   OH237715   7.060   0.374   1.267  0.1907 -0.7421  0.2056
 4507TIP3    H137716   7.098   0.310   1.207  0.0650  0.1293 -0.8446
 4507TIP3    H237717   6.970   0.344   1.280 -0.2386 -0.1585 -1.2392
 4508TIP3   OH237718   2.748   0.277   7.023 -0.1903  0.1492  0.3856
 4508TIP3    H137719   2.842   0.270   7.002 -0.3862  0.4017 -0.6374
 4508TIP3    H237720   2.733   0.371   7.033 -0.2023  0.0640  1.2463
 4509TIP3   OH237721   6.455   5.161   9.196  0.2192 -0.0315 -0.0093
 4509TIP3    H137722   6.429   5.247   9.229  0.4290  0.3564 -0.8199
 4509TIP3    H237723   6.428   5.162   9.104 -1.2851 -1.4731  0.3801
 4510TIP3   OH237724   5.227   0.768   9.020 -0.3352 -0.1447 -0.1086
 4510TIP3    H137725   5.193   0.841   8.968 -0.6268 -1.1937 -1.4534
 4510TIP3    H237726   5.178   0.692   8.989 -0.6985 -0.7912  1.9098
 4511TIP3   OH237727   0.683   5.079   0.379 -0.2557 -0.6667  0.0838
 4511TIP3    H137728   0.662   5.119   0.296  0.9457 -1.2063 -0.5131
 4511TIP3    H237729   0.708   5.152   0.436 -0.3502 -0.3655 -0.2597
 4512TIP3   OH237730   5.876   2.392   1.848  0.4550 -0.2825  0.4655
 4512TIP3    H137731   5.945   2.415   1.910  2.1254 -1.7795 -0.7399
 4512TIP3    H237732   5.826   2.323   1.891  0.6021 -0.2017  0.7683
 4513TIP3   OH237733   2.950   7.552   6.872  0.1861  0.5135  0.2570
 4513TIP3    H137734   2.981   7.550   6.782  0.9459 -0.5176  0.5197
 4513TIP3    H237735   3.029   7.557   6.925 -0.0505 -1.8924  0.9415
 4514TIP3   OH237736   5.075   6.215   9.609 -0.1014 -0.0509 -0.5250
 4514TIP3    H137737   5.008   6.264   9.657 -0.7518 -0.7436 -0.7119
 4514TIP3    H237738   5.031   6.188   9.528 -0.0961 -1.8337  0.0330
 4515TIP3   OH237739   1.978   2.096   1.380  0.1345  0.3187 -0.3149
 4515TIP3    H137740   2.017   2.143   1.454  1.4254 -0.3285 -0.5389
 4515TIP3    H237741   1.918   2.033   1.420  1.0299 -0.2185  0.2300
 4516TIP3   OH237742   0.083   2.593   0.225  0.1590  0.4471 -0.2669
 4516TIP3    H137743   0.166   2.547   0.207 -0.6764 -1.3652  0.2803
 4516TIP3    H237744   0.036   2.591   0.142 -1.1026 -2.4217  0.4005
 4517TIP3   OH237745   1.537   1.209   1.034 -0.2419 -0.1868  0.0302
 4517TIP3    H137746   1.516   1.163   0.953  0.5763 -0.0582 -0.2707
 4517TIP3    H237747   1.501   1.297   1.022 -1.9348 -0.7468  0.6660
 4518TIP3   OH237748   1.706   2.471   0.508 -0.2559  0.1485 -0.0708
 4518TIP3    H137749   1.646   2.397   0.521 -1.2479  0.8423 -0.5214
 4518TIP3    H237750   1.648   2.547   0.502  0.7470  0.9594  0.3478
 4519TIP3   OH237751   5.158   6.609   7.185 -0.5990  0.1090 -0.3830
 4519TIP3    H137752   5.246   6.643   7.202  0.3934 -0.3694 -3.7820
 4519TIP3    H237753   5.173   6.521   7.150 -2.4926 -0.2246 -0.4440
 4520TIP3   OH237754   5.137   4.260   8.256  0.2138  0.1715 -0.7266
 4520TIP3    H137755   5.181   4.301   8.330  0.6753 -1.3085 -0.1421
 4520TIP3    H237756   5.191   4.284   8.180  2.9367 -2.6302  0.1223
 4521TIP3   OH237757   0.577   2.292   9.282 -0.4551 -0.0352  0.3053
 4521TIP3    H137758   0.488   2.267   9.305 -0.2332 -0.7119  0.4637
 4521TIP3    H237759   0.618   2.315   9.366 -0.4202  0.0689  0.2597
 4522TIP3   OH237760   1.409   1.069   0.532 -0.5795  0.1875 -0.1420
 4522TIP3    H137761   1.333   1.026   0.571 -0.1822  0.9485  1.5875
 4522TIP3    H237762   1.464   1.092   0.607 -0.9427  4.0405 -0.8243
 4523TIP3   OH237763   3.449   1.557   0.601 -0.2866  0.3145 -0.4566
 4523TIP3    H137764   3.402   1.477   0.625 -1.4762  0.8979 -0.7207
 4523TIP3    H237765   3.538   1.529   0.583 -0.2918 -0.7070  0.9516
 4524TIP3   OH237766   1.231   3.527   0.672 -0.1058 -0.0557 -0.2106
 4524TIP3    H137767   1.225   3.621   0.686 -1.1186 -0.3419  1.6157
 4524TIP3    H237768   1.318   3.513   0.636  0.6876  1.4301  1.0321
 4525TIP3   OH237769   7.429   5.653   1.628 -0.0026  0.4551  0.3164
 4525TIP3    H137770   7.461   5.607   1.705  0.2641 -0.0155 -0.0693
 4525TIP3    H237771   7.424   5.745   1.655 -2.7437 -0.0104  1.8613
 4526TIP3   OH237772   4.755   5.489   8.043 -0.3674 -0.0047  0.1963
 4526TIP3    H137773   4.805   5.514   8.120 -1.9198 -0.9457  1.5808
 4526TIP3    H237774   4.756   5.393   8.044 -1.3894 -0.0301 -0.2696
 4527TIP3   OH237775   0.012   1.493   0.436 -0.2030 -0.4112  0.3963
 4527TIP3    H137776  -0.026   1.474   0.522 -0.1846  1.1667  0.7695
 4527TIP3    H237777  -0.058   1.537   0.388  0.3911  0.3825  0.2535
 4528TIP3   OH237778   0.136   5.678   9.289  0.4196  0.6900  0.3004
 4528TIP3    H137779   0.099   5.637   9.367  0.9253 -0.1918  0.0975
 4528TIP3    H237780   0.166   5.605   9.235  0.1782  1.2851 -0.6812
 4529TIP3   OH237781   2.669   1.350   2.675  0.0276  0.6016 -0.0675
 4529TIP3    H137782   2.653   1.395   2.592 -0.6354  0.8584  0.1957
 4529TIP3    H237783   2.648   1.415   2.742  1.4708  0.7133  0.3163
 4530TIP3   OH237784   4.997   5.012   9.031 -0.4191  0.0108  0.4966
 4530TIP3    H137785   5.016   5.104   9.050 -0.3134  0.1752 -0.3698
 4530TIP3    H237786   4.902   5.006   9.033 -0.4305  0.1675  0.4016
 4531TIP3   OH237787   4.340   6.157   0.903  0.1480  0.1961 -0.6011
 4531TIP3    H137788   4.368   6.066   0.898  2.1051  0.4000  3.3705
 4531TIP3    H237789   4.419   6.207   0.885 -0.1870  1.0208  0.1501
 4532TIP3   OH237790   5.717   5.706   8.425 -0.2133 -0.5591  0.1697
 4532TIP3    H137791   5.655   5.758   8.476 -1.1616  0.0474 -1.5142
 4532TIP3    H237792   5.799   5.711   8.475  0.0549  3.3846 -0.3154
 4533TIP3   OH237793   5.023   4.013   0.305  0.1302 -0.7639 -0.1707
 4533TIP3    H137794   5.094   4.044   0.362 -0.2057 -2.8479  1.4922
 4533TIP3    H237795   5.001   3.927   0.339 -0.7230 -1.7507 -2.9577
 4534TIP3   OH237796   3.985   3.748   7.612 -0.2273 -0.2335 -0.1839
 4534TIP3    H137797   3.899   3.707   7.612  0.4262 -1.7943  1.6807
 4534TIP3    H237798   4.040   3.690   7.558  0.2021 -0.7179  0.7310
 4535TIP3   OH237799   7.398   5.317   9.421  0.2315  0.0757  0.2022
 4535TIP3    H137800   7.336   5.369   9.472 -0.8127  0.3133 -1.2523
 4535TIP3    H237801   7.475   5.373   9.413 -0.8534  1.4347 -1.2912
 4536TIP3   OH237802   5.961   1.018   2.317  0.2131  0.1558 -0.3663
 4536TIP3    H137803   5.874   1.015   2.276  0.0600  1.2021 -0.1499
 4536TIP3    H237804   5.968   0.935   2.364  0.5131 -1.2338 -2.6926
 4537TIP3   OH237805   3.981   3.109   0.281 -0.3372 -0.3727 -0.0970
 4537TIP3    H137806   3.916   3.115   0.351 -0.9269 -1.0305 -0.5873
 4537TIP3    H237807   4.003   3.016   0.276  0.1682 -0.2422 -0.3691
 4538TIP3   OH237808   7.024   4.343   9.255  0.2884 -0.4441  0.4378
 4538TIP3    H137809   6.929   4.345   9.266  0.5214  1.4389  3.0254
 4538TIP3    H237810   7.058   4.299   9.333  1.5684 -2.2196 -1.0164
 4539TIP3   OH237811   4.090   1.842   1.513 -0.0408 -0.0814  0.8986
 4539TIP3    H137812   4.182   1.822   1.494  0.2540  1.6634  0.3745
 4539TIP3    H237813   4.073   1.923   1.466 -2.0362 -0.6748  0.5255
 4540TIP3   OH237814   6.408   4.712   8.938  0.2634 -0.1242 -0.1151
 4540TIP3    H137815   6.359   4.637   8.905  1.1597 -0.0227 -1.7774
 4540TIP3    H237816   6.498   4.695   8.912  0.6478  1.0335  0.4114
 4541TIP3   OH237817   1.214   6.346   9.527 -0.0054 -0.5550  0.3855
 4541TIP3    H137818   1.124   6.364   9.553 -0.0308  0.1900 -0.1936
 4541TIP3    H237819   1.263   6.424   9.552  0.0435  0.0204 -1.3932
 4542TIP3   OH237820   5.522   3.180   0.151  0.3612 -0.0807 -0.1037
 4542TIP3    H137821   5.581   3.167   0.225  0.3969 -0.4954 -0.2052
 4542TIP3    H237822   5.435   3.158   0.185 -0.1951  3.0007  0.8260
 4543TIP3   OH237823   5.493   1.061   0.810 -0.3396 -0.0308 -0.0023
 4543TIP3    H137824   5.527   1.084   0.897  0.2496 -1.2057  0.1075
 4543TIP3    H237825   5.500   0.966   0.807 -1.0101 -0.0559 -1.0831
 4544TIP3   OH237826   7.529   3.690   9.216  0.8262 -0.1382  0.3609
 4544TIP3    H137827   7.437   3.717   9.210  0.1756 -1.5582  2.7418
 4544TIP3    H237828   7.574   3.767   9.251  0.2749  0.0949  0.5685
 4545TIP3   OH237829   1.559   6.136   9.986  0.0661  0.0201 -0.5067
 4545TIP3    H137830   1.540   6.209  10.046 -2.8197  0.0108 -1.2616
 4545TIP3    H237831   1.632   6.090  10.027 -1.0076  0.6784  2.4306
 4546TIP3   OH237832   1.132   7.213   0.780  0.1448  0.2456 -0.0667
 4546TIP3    H137833   1.164   7.304   0.779 -1.6244  0.8941 -0.3571
 4546TIP3    H237834   1.112   7.196   0.872  0.1415  0.2692 -0.0631
 4547TIP3   OH237835   2.467   2.712   6.775 -0.0807  0.7135 -0.1029
 4547TIP3    H137836   2.422   2.758   6.847  2.0107  0.7309  1.2789
 4547TIP3    H237837   2.558   2.740   6.782  0.7328 -1.5051 -0.9819
 4548TIP3   OH237838   1.946   5.999   9.623 -0.3911  0.1694  0.2030
 4548TIP3    H137839   1.905   6.076   9.662 -1.5755  0.9872 -2.3939
 4548TIP3    H237840   2.033   6.028   9.597 -0.1985  0.1014  0.7657
 4549TIP3   OH237841   3.687   3.510   0.817  0.2182 -0.5134  0.1281
 4549TIP3    H137842   3.659   3.579   0.876 -2.0735 -0.8748 -0.4603
 4549TIP3    H237843   3.692   3.432   0.872 -1.4190 -0.7460 -0.0214
 4550TIP3   OH237844   0.516   3.093   8.094 -0.3319  0.6147 -0.6586
 4550TIP3    H137845   0.499   3.140   8.176 -0.7032  0.8537 -0.8690
 4550TIP3    H237846   0.590   3.035   8.114  0.3968  1.5783 -0.5136
 4551TIP3   OH237847   2.295   4.561   1.047 -0.2891 -0.0159 -0.1521
 4551TIP3    H137848   2.383   4.570   1.085 -0.0681  0.5667 -0.7630
 4551TIP3    H237849   2.307   4.501   0.974 -0.2758  0.5271 -0.5988
 4552TIP3   OH237850   7.261   3.307   8.003 -0.4815 -0.0996  0.3232
 4552TIP3    H137851   7.230   3.281   7.916  2.5589 -1.2859 -0.4999
 4552TIP3    H237852   7.278   3.225   8.048  3.2048  0.3280 -0.0292
 4553TIP3   OH237853   1.466   1.321   1.848 -0.5652  0.0440  0.6224
 4553TIP3    H137854   1.507   1.238   1.820  0.4882  1.0287 -0.9081
 4553TIP3    H237855   1.523   1.353   1.918  0.1800  0.4210 -0.1353
 4554TIP3   OH237856   7.110   5.998   9.420  0.5421  0.4754 -0.3944
 4554TIP3    H137857   7.028   6.031   9.382  0.9630  0.6086 -1.2151
 4554TIP3    H237858   7.159   6.076   9.443  0.8212  0.4153 -0.7652
 4555TIP3   OH237859   1.308   4.203   7.093  0.4747 -0.0376  0.1871
 4555TIP3    H137860   1.215   4.215   7.113  0.6707 -0.8115  1.6818
 4555TIP3    H237861   1.322   4.109   7.098  1.5804  0.1605  1.1748
 4556TIP3   OH237862   1.389   1.977   0.364 -0.2569 -0.2388 -0.1167
 4556TIP3    H137863   1.354   1.986   0.276 -0.7270 -1.7635 -0.1249
 4556TIP3    H237864   1.336   2.035   0.418 -0.3629  0.2458 -0.7318
 4557TIP3   OH237865   2.117   6.622   2.036  0.1477  0.4140 -0.2133
 4557TIP3    H137866   2.043   6.675   2.064  0.1823  1.1058 -1.3779
 4557TIP3    H237867   2.111   6.542   2.088 -0.4464  1.1617  0.8936
 4558TIP3   OH237868   2.209   0.359   9.350  0.4356  0.1137 -0.2216
 4558TIP3    H137869   2.191   0.271   9.317  1.0541  0.2807 -1.0589
 4558TIP3    H237870   2.184   0.417   9.278  1.7152  0.5040 -0.3885
 4559TIP3   OH237871   2.063   5.932   0.517  0.2826  0.1552 -0.1594
 4559TIP3    H137872   2.127   5.880   0.469  1.8930  1.0964  0.8761
 4559TIP3    H237873   2.044   6.006   0.459  1.5805  0.8452  0.2552
 4560TIP3   OH237874   0.330   0.731   7.802 -0.1946  0.6745  0.6098
 4560TIP3    H137875   0.331   0.658   7.740 -2.5097  0.5120  0.6755
 4560TIP3    H237876   0.244   0.727   7.842  1.3894  0.3978  4.3976
 4561TIP3   OH237877   6.323   3.831   8.141 -0.5428 -0.4734  0.3237
 4561TIP3    H137878   6.342   3.922   8.163 -0.6959 -0.1903 -0.6862
 4561TIP3    H237879   6.266   3.836   8.064 -1.7569 -1.3852  1.1166
 4562TIP3   OH237880   4.566   4.682   1.251 -0.5033  0.3438 -0.0140
 4562TIP3    H137881   4.613   4.620   1.196  0.7635 -0.2516  1.6364
 4562TIP3    H237882   4.605   4.767   1.232  0.0264  0.1203  0.0819
 4563TIP3   OH237883   1.163   7.445   7.602 -0.0213 -0.2460 -0.4350
 4563TIP3    H137884   1.218   7.504   7.654 -1.4312  0.0221  0.8107
 4563TIP3    H237885   1.212   7.432   7.520  0.6362  2.1003 -0.4692
 4564TIP3   OH237886   1.103   3.755   1.747  0.0382  0.5650  0.2188
 4564TIP3    H137887   1.047   3.680   1.725 -0.4986  0.7934  0.7827
 4564TIP3    H237888   1.157   3.724   1.820  0.5974  0.3779 -0.2594
 4565TIP3   OH237889   0.617   6.361   8.142 -1.3445  0.2388  0.2558
 4565TIP3    H137890   0.682   6.359   8.073 -0.9587  1.4242  0.5613
 4565TIP3    H237891   0.600   6.454   8.156 -0.8575  0.0722  2.2535
 4566TIP3   OH237892   6.723   2.286   1.462 -0.3815 -0.0967  0.2806
 4566TIP3    H137893   6.705   2.377   1.438  1.6256  0.6563  1.4112
 4566TIP3    H237894   6.794   2.260   1.403 -3.9525 -2.6683 -3.4501
 4567TIP3   OH237895   5.493   4.140   0.608 -0.0835 -0.2350 -0.1309
 4567TIP3    H137896   5.424   4.136   0.674 -1.7151  0.8651 -1.6807
 4567TIP3    H237897   5.542   4.220   0.630 -0.9740  0.4422 -0.5464
 4568TIP3   OH237898   1.547   7.070   8.932 -0.2366  0.4273  0.1877
 4568TIP3    H137899   1.591   6.986   8.917  0.4086  0.7456  0.2461
 4568TIP3    H237900   1.455   7.052   8.915 -0.0969 -0.2766  0.1294
 4569TIP3   OH237901   2.223   3.395   6.446  0.0310 -0.1655 -0.1282
 4569TIP3    H137902   2.305   3.395   6.397  0.5131  0.0278  0.6667
 4569TIP3    H237903   2.189   3.484   6.437 -0.4875 -0.4415 -1.0825
 4570TIP3   OH237904   2.544   5.161   7.927  0.6396 -0.7579 -0.2968
 4570TIP3    H137905   2.530   5.066   7.919  1.6921 -0.9148 -0.4232
 4570TIP3    H237906   2.469   5.192   7.979  0.6090 -1.7582  0.2851
 4571TIP3   OH237907   4.124   3.826   6.868 -0.2256 -0.2127  0.3424
 4571TIP3    H137908   4.090   3.784   6.947 -1.8069  0.3731  0.0099
 4571TIP3    H237909   4.077   3.783   6.796  1.2211 -0.7681 -0.3032
 4572TIP3   OH237910   2.059   5.448   8.837 -0.0467 -0.0935 -0.0960
 4572TIP3    H137911   2.015   5.519   8.883 -2.0651  0.2136 -2.2709
 4572TIP3    H237912   2.020   5.368   8.872 -0.5415  0.0738 -0.2549
 4573TIP3   OH237913   2.465   6.077   9.361  0.1434  0.5201 -0.0224
 4573TIP3    H137914   2.460   6.129   9.280 -1.2056  0.7922  0.2132
 4573TIP3    H237915   2.556   6.084   9.388  0.0876  2.4935 -0.1947
 4574TIP3   OH237916   6.243   4.683   9.660 -0.0163 -0.2186 -0.0215
 4574TIP3    H137917   6.179   4.750   9.634 -0.4766 -0.5851  0.1479
 4574TIP3    H237918   6.301   4.728   9.721 -0.0956  0.1278 -0.1990
 4575TIP3   OH237919   1.235   5.779   9.501 -0.7035  0.1022  0.5149
 4575TIP3    H137920   1.329   5.760   9.504 -0.8598 -0.9611 -0.5376
 4575TIP3    H237921   1.230   5.872   9.479  0.1061 -0.0506 -0.3713
 4576TIP3   OH237922   0.011   1.780   7.298  0.1251 -0.0677 -0.3040
 4576TIP3    H137923   0.106   1.792   7.293  0.1808  0.9996  1.9569
 4576TIP3    H237924  -0.020   1.858   7.345 -1.7236 -0.9744  0.0671
 4577TIP3   OH237925   4.179   3.213   9.032 -0.0517  0.4303  0.1657
 4577TIP3    H137926   4.090   3.201   9.064  0.1055 -1.3712  0.0344
 4577TIP3    H237927   4.170   3.224   8.938 -0.1040 -0.6236  0.0344
 4578TIP3   OH237928   4.222   1.381   0.596 -0.1294 -0.6958  0.0723
 4578TIP3    H137929   4.145   1.330   0.571  1.0593 -0.9445 -3.6061
 4578TIP3    H237930   4.287   1.316   0.622 -0.6368 -0.5513  1.8743
 4579TIP3   OH237931   5.338   4.732   1.952  0.0711  0.5099  0.2467
 4579TIP3    H137932   5.306   4.643   1.935 -0.8996  0.9831 -0.5492
 4579TIP3    H237933   5.276   4.768   2.015  0.9278  0.3662  1.1900
 4580TIP3   OH237934   4.800   6.633   2.514  0.0745 -0.0486 -0.2388
 4580TIP3    H137935   4.870   6.593   2.565 -0.1886  0.8794  0.9021
 4580TIP3    H237936   4.720   6.594   2.549 -0.2930  2.3336  1.8456
 4581TIP3   OH237937   4.484   5.734   9.082 -0.1178  0.4730  0.0411
 4581TIP3    H137938   4.403   5.748   9.033 -0.7052 -1.0993  0.5098
 4581TIP3    H237939   4.467   5.656   9.135  2.3515 -1.1052 -1.2830
 4582TIP3   OH237940   5.962   0.802   2.466 -0.3530  0.3514 -0.0065
 4582TIP3    H137941   5.900   0.738   2.432 -2.1760  1.7103  0.5724
 4582TIP3    H237942   5.988   0.767   2.551 -0.3197 -0.2245 -0.2464
 4583TIP3   OH237943   1.032   3.987   8.783  0.6578 -0.4388 -0.2768
 4583TIP3    H137944   1.026   3.893   8.768  0.6423 -0.8367  1.8809
 4583TIP3    H237945   1.122   4.002   8.812  0.9604  0.3910 -1.5867
 4584TIP3   OH237946   6.682   1.829   8.027  0.3582 -0.0797  0.5342
 4584TIP3    H137947   6.627   1.883   8.084 -0.9228 -0.6179 -0.1412
 4584TIP3    H237948   6.662   1.860   7.939 -0.2843 -1.5116  0.1428
 4585TIP3   OH237949   4.847   2.869   1.098  0.3054 -0.5902  0.1138
 4585TIP3    H137950   4.786   2.902   1.032 -0.2445 -0.8856  0.4660
 4585TIP3    H237951   4.849   2.937   1.165  0.2322 -0.6570  0.1838
 4586TIP3   OH237952   5.752   1.462   8.771  0.1310 -0.4080 -0.2568
 4586TIP3    H137953   5.752   1.370   8.795  0.0392 -0.4186 -0.2939
 4586TIP3    H237954   5.844   1.485   8.762  0.1329 -0.8408 -1.5385
 4587TIP3   OH237955   4.332   2.779   9.015  0.2028 -0.1976  0.5324
 4587TIP3    H137956   4.330   2.832   8.935 -1.0142 -0.2922  0.4799
 4587TIP3    H237957   4.416   2.733   9.011 -0.5577 -1.5946 -1.6379
 4588TIP3   OH237958   7.178   3.793   8.047 -0.2367 -0.3452 -0.2092
 4588TIP3    H137959   7.159   3.886   8.059 -0.0846 -0.3178 -0.1776
 4588TIP3    H237960   7.225   3.789   7.964 -0.7668 -0.4648 -0.5100
 4589TIP3   OH237961   2.531   7.365   8.217  0.5398  0.0638  0.1177
 4589TIP3    H137962   2.585   7.296   8.178  1.1708  0.0884  0.9178
 4589TIP3    H237963   2.510   7.423   8.144  2.0754  0.3606 -0.1155
 4590TIP3   OH237964   1.644   3.249   9.478  0.2984 -0.5488  0.2790
 4590TIP3    H137965   1.628   3.237   9.384 -3.5289  1.4017  0.4820
 4590TIP3    H237966   1.596   3.178   9.520  2.0462 -1.4523  0.8396
 4591TIP3   OH237967   4.615   1.537   9.077  0.2645  0.4090  0.3804
 4591TIP3    H137968   4.688   1.508   9.131  0.2598 -1.4040 -0.5063
 4591TIP3    H237969   4.571   1.605   9.129  1.4274  0.1580  1.7421
 4592TIP3   OH237970   2.363   1.747   0.915 -0.3486 -0.1910  0.1370
 4592TIP3    H137971   2.407   1.829   0.938  1.9244 -1.5705  1.0815
 4592TIP3    H237972   2.334   1.760   0.825  0.1447  1.5654  0.1870
 4593TIP3   OH237973   0.285   2.202   9.677 -0.6099 -0.0311 -0.1739
 4593TIP3    H137974   0.377   2.220   9.659 -0.0508 -2.9358 -0.6977
 4593TIP3    H237975   0.287   2.138   9.749 -2.1590 -0.7783 -0.7516
 4594TIP3   OH237976   6.523   6.803   8.104 -0.0693  0.1468  0.0179
 4594TIP3    H137977   6.469   6.756   8.042 -0.5329 -1.7011  1.7245
 4594TIP3    H237978   6.484   6.784   8.190  1.0803  1.8311  0.9769
 4595TIP3   OH237979   2.101   5.561   1.443 -0.2683  0.2249  0.7190
 4595TIP3    H137980   2.038   5.542   1.373  0.9837  0.9180 -0.6386
 4595TIP3    H237981   2.059   5.631   1.494 -0.4118  1.0537 -0.4817
 4596TIP3   OH237982   6.839   6.409   9.386  0.2692 -0.1652  0.0662
 4596TIP3    H137983   6.880   6.387   9.470  0.7401  0.8552  0.1198
 4596TIP3    H237984   6.894   6.480   9.351 -0.9495  0.6320 -0.2742
 4597TIP3   OH237985   4.362   1.445   9.228  0.5134 -0.3840  0.1524
 4597TIP3    H137986   4.429   1.415   9.166  2.1983  1.6472  0.8699
 4597TIP3    H237987   4.391   1.413   9.313  1.0466  1.1492  0.5780
 4598TIP3   OH237988   6.498   1.635   0.076 -0.2620  0.0538  0.1504
 4598TIP3    H137989   6.461   1.677   0.153  0.7875  2.6298 -0.6553
 4598TIP3    H237990   6.422   1.608   0.024 -1.0233  2.0850  0.1466
 4599TIP3   OH237991   1.985   2.190   9.095  0.2400  0.1807 -0.5691
 4599TIP3    H137992   1.933   2.241   9.157 -1.1660 -0.6985 -0.9913
 4599TIP3    H237993   2.074   2.195   9.130 -0.3330  0.6209  0.9131
 4600TIP3   OH237994   2.111   2.410   0.894  0.1854 -0.4939  0.0134
 4600TIP3    H137995   2.147   2.339   0.947 -0.8099 -1.3441 -0.4269
 4600TIP3    H237996   2.045   2.368   0.839 -1.4334  0.9940  0.7373
 4601TIP3   OH237997   6.308   1.587   1.204 -0.4386 -0.1472  0.0483
 4601TIP3    H137998   6.310   1.670   1.252  0.0839 -0.5583  0.7513
 4601TIP3    H237999   6.272   1.524   1.266 -0.8085 -0.4595 -0.4733
 4602TIP3   OH238000   0.668   2.859   1.080  0.0198 -0.3786  0.3813
 4602TIP3    H138001   0.644   2.859   1.173  0.3067 -2.7978  0.5197
 4602TIP3    H238002   0.762   2.840   1.080  1.1187  3.9312 -0.3427
 4603TIP3   OH238003   6.923   3.527   0.607  0.2748 -0.3116 -0.0692
 4603TIP3    H138004   6.934   3.621   0.618 -1.1175 -0.0748 -0.5270
 4603TIP3    H238005   7.012   3.492   0.608  0.8551  1.0965 -0.6829
 4604TIP3   OH238006   7.631   0.608   2.972 -0.2639 -0.7122  0.2185
 4604TIP3    H138007   7.642   0.540   3.038  0.7324 -0.2531  0.5472
 4604TIP3    H238008   7.696   0.588   2.905  1.7577  1.2178  1.4699
 4605TIP3   OH238009   1.743   5.598   0.400 -0.0118 -0.4307 -0.1278
 4605TIP3    H138010   1.707   5.686   0.415 -0.2113 -0.4461 -0.5137
 4605TIP3    H238011   1.741   5.557   0.487  0.5382  0.1089  0.1548
 4606TIP3   OH238012   2.195   5.166   2.521 -0.3618  0.3571  0.1727
 4606TIP3    H138013   2.100   5.160   2.508 -0.1481 -0.0960 -1.4611
 4606TIP3    H238014   2.209   5.252   2.559 -1.4316  0.4269  0.4307
 4607TIP3   OH238015   3.777   4.493   9.800 -0.2275  0.6447  0.1267
 4607TIP3    H138016   3.833   4.444   9.739  0.7035  1.1904  0.5075
 4607TIP3    H238017   3.809   4.468   9.886  0.7254  2.3823  0.3246
 4608TIP3   OH238018   2.220   3.497   3.132  0.0974 -0.7083  0.1583
 4608TIP3    H138019   2.258   3.584   3.122  1.1724 -1.2535 -0.5748
 4608TIP3    H238020   2.293   3.441   3.159 -0.1981 -1.7409 -1.1047
 4609TIP3   OH238021   4.206   2.597   0.249 -0.3168 -0.1453  0.1558
 4609TIP3    H138022   4.203   2.672   0.190  1.4540  0.2468  0.5037
 4609TIP3    H238023   4.132   2.610   0.308  0.5587  1.9597  0.9118
 4610TIP3   OH238024   0.451   1.031   0.716 -0.1329 -0.4807  0.1429
 4610TIP3    H138025   0.465   1.126   0.721  1.6505 -0.7082  0.3628
 4610TIP3    H238026   0.357   1.019   0.729 -0.2739  1.2016  0.8841
 4611TIP3   OH238027   4.543   5.819   8.709  0.3431 -0.5847 -0.2841
 4611TIP3    H138028   4.454   5.800   8.680 -0.4154  0.8144  1.0206
 4611TIP3    H238029   4.568   5.898   8.661 -0.0924  0.4704  1.1774
 4612TIP3   OH238030   4.926   4.730   2.473 -0.3710  0.0853 -0.1858
 4612TIP3    H138031   4.841   4.726   2.518 -0.2080 -0.7391  0.0541
 4612TIP3    H238032   4.989   4.696   2.537 -0.0177 -0.3436 -0.7539
 4613TIP3   OH238033   6.113   7.600   0.389 -0.1482 -0.0263 -0.2747
 4613TIP3    H138034   6.046   7.579   0.455 -1.8006 -0.7459 -2.0877
 4613TIP3    H238035   6.196   7.593   0.436 -1.3362  2.8706  2.5941
 4614TIP3   OH238036   0.660   5.360   2.407 -0.6206 -0.0360  0.2400
 4614TIP3    H138037   0.752   5.335   2.396 -0.3615  1.1532 -0.4553
 4614TIP3    H238038   0.615   5.320   2.333 -0.3065  1.0207 -0.5438
 4615TIP3   OH238039   1.420   5.032   0.687 -0.0934 -0.0076  0.0307
 4615TIP3    H138040   1.335   4.992   0.706  0.6312 -1.4511  0.3242
 4615TIP3    H238041   1.484   4.974   0.726  1.0377  1.2840  0.1733
 4616TIP3   OH238042   2.832   3.835   3.000  0.3158  0.0017  0.2597
 4616TIP3    H138043   2.861   3.918   3.037  0.1483 -0.7864  2.2533
 4616TIP3    H238044   2.802   3.857   2.912  1.0575  1.8961  0.4502
 4617TIP3   OH238045   2.235   3.368   6.720  0.3230 -0.0772  0.0936
 4617TIP3    H138046   2.230   3.347   6.626  1.2401  0.9759 -0.2031
 4617TIP3    H238047   2.280   3.452   6.724  0.3097 -0.1118  1.4941
 4618TIP3   OH238048   2.926   7.397   0.090 -0.0558 -0.3040  0.4057
 4618TIP3    H138049   2.844   7.435   0.122 -1.4074 -1.2138 -1.7466
 4618TIP3    H238050   2.901   7.352   0.010  2.7653  0.3009 -0.9283
 4619TIP3   OH238051   6.894   0.479   0.049  0.4194 -0.5894 -1.1170
 4619TIP3    H138052   6.941   0.396   0.043  0.4962 -0.5091 -1.6784
 4619TIP3    H238053   6.908   0.509   0.139  1.4120 -0.5771 -1.2674
 4620TIP3   OH238054   4.151   1.317   9.749 -0.3269  0.1532 -1.0612
 4620TIP3    H138055   4.167   1.247   9.812  2.8646  1.1611 -0.5878
 4620TIP3    H238056   4.100   1.276   9.680 -2.4719 -1.4302  1.2895
 4621TIP3   OH238057   4.397   0.816   2.557  0.2725 -0.6556  0.0845
 4621TIP3    H138058   4.477   0.764   2.566 -0.2173 -1.5025 -0.3716
 4621TIP3    H238059   4.328   0.752   2.543 -0.4586  0.0834  0.2282
 4622TIP3   OH238060   0.817   7.226   7.221 -0.2340  0.3298  0.4055
 4622TIP3    H138061   0.899   7.276   7.212  0.2351 -0.2738  1.1705
 4622TIP3    H238062   0.775   7.232   7.135  1.3485 -0.5971 -0.4862
 4623TIP3   OH238063   0.141   6.777   0.293 -0.4841 -0.2812 -0.3011
 4623TIP3    H138064   0.184   6.729   0.222 -0.7162  1.2931 -1.5561
 4623TIP3    H238065   0.050   6.750   0.287 -0.6149  0.3011 -0.9988
 4624TIP3   OH238066   5.273   7.668   9.521  0.5826 -0.2388 -0.2985
 4624TIP3    H138067   5.309   7.676   9.609 -0.2496  0.6909 -0.0341
 4624TIP3    H238068   5.267   7.758   9.489 -1.6162 -0.3287 -0.2695
 4625TIP3   OH238069   4.683   6.196   1.375 -0.4218  0.5609  0.4056
 4625TIP3    H138070   4.741   6.257   1.330 -0.9746  0.7081 -0.1256
 4625TIP3    H238071   4.736   6.118   1.390  0.0345  0.8503  0.3127
 4626TIP3   OH238072   2.009   1.116   1.530  0.3248  0.7167 -0.2831
 4626TIP3    H138073   1.966   1.192   1.492 -0.0191  0.4868 -0.3487
 4626TIP3    H238074   2.021   1.055   1.458  1.7696  1.2215 -0.5119
 4627TIP3   OH238075   0.588   0.393   8.065  0.0700 -0.3971 -0.2458
 4627TIP3    H138076   0.644   0.345   8.126  0.7283  1.0169  0.3044
 4627TIP3    H238077   0.641   0.402   7.985 -0.1481 -0.7789 -0.4383
 4628TIP3   OH238078   2.685   7.492   0.615  0.6131  0.1118  0.1154
 4628TIP3    H138079   2.738   7.520   0.541  0.9566 -0.6643  0.0610
 4628TIP3    H238080   2.747   7.452   0.676  0.1568 -0.3871  0.2606
 4629TIP3   OH238081   3.502   1.139   8.646  0.1620  0.4225 -0.1370
 4629TIP3    H138082   3.416   1.114   8.680  0.4083  0.2274  0.3560
 4629TIP3    H238083   3.483   1.191   8.568 -0.3735 -0.4351 -0.5868
 4630TIP3   OH238084   3.583   7.672   8.738  0.2635  0.1341 -0.8614
 4630TIP3    H138085   3.590   7.748   8.680  0.1448  1.4124  0.7348
 4630TIP3    H238086   3.499   7.683   8.782  1.1362  0.1795  0.8546
 4631TIP3   OH238087   1.077   2.600   9.919 -0.4641  0.0589 -0.5926
 4631TIP3    H138088   1.068   2.687   9.880 -0.7535 -0.8286 -2.6229
 4631TIP3    H238089   1.013   2.546   9.873  0.3203 -1.4328 -0.0036
 4632TIP3   OH238090   5.781   3.896   0.763  0.4405  0.3761 -0.2752
 4632TIP3    H138091   5.876   3.906   0.770  0.5145  0.3471 -1.1469
 4632TIP3    H238092   5.766   3.802   0.772  0.3294  0.5148  1.4490
 4633TIP3   OH238093   7.087   6.086   2.296  0.4793 -0.0327 -0.0541
 4633TIP3    H138094   7.128   6.129   2.371  0.8775 -0.8389  0.2043
 4633TIP3    H238095   7.100   6.147   2.223  1.9259 -0.1528  0.0794
 4634TIP3   OH238096   6.202   2.434   8.874  0.3099  0.3354 -0.2192
 4634TIP3    H138097   6.136   2.407   8.938  1.8991  0.1898  1.4437
 4634TIP3    H238098   6.179   2.525   8.853 -0.1363  0.4554  0.7206
 4635TIP3   OH238099   4.509   0.505   7.538  0.0537 -0.1261 -0.5011
 4635TIP3    H138100   4.486   0.487   7.447  1.4906 -0.8712 -0.7490
 4635TIP3    H238101   4.602   0.481   7.545  0.0338  0.1168  1.1071
 4636TIP3   OH238102   3.041   5.541   0.509 -0.2822 -0.2437  0.0437
 4636TIP3    H138103   2.991   5.547   0.589  0.4980 -1.7473  0.6902
 4636TIP3    H238104   3.037   5.629   0.471  0.9409  1.0672  2.7052
 4637TIP3   OH238105   6.897   5.389   8.655 -0.5176 -0.5127  0.0376
 4637TIP3    H138106   6.902   5.465   8.712  1.7994  0.0861 -0.8469
 4637TIP3    H238107   6.844   5.418   8.580 -0.8059 -0.2380  0.3460
 4638TIP3   OH238108   1.287   1.594   2.641  0.3115  0.1119  0.0293
 4638TIP3    H138109   1.375   1.631   2.632  0.5302 -0.3507  0.2007
 4638TIP3    H238110   1.287   1.554   2.728 -0.1898  0.4165  0.1701
 4639TIP3   OH238111   3.688   1.997   9.117 -0.2693  0.3660  0.2770
 4639TIP3    H138112   3.601   1.961   9.096  0.3499 -1.8497  1.2367
 4639TIP3    H238113   3.714   1.951   9.197  1.8819  0.8425 -0.1003
 4640TIP3   OH238114   0.570   2.144   0.150 -0.0293  0.1896  0.0751
 4640TIP3    H138115   0.507   2.096   0.096  0.7849 -2.6573  1.4649
 4640TIP3    H238116   0.567   2.100   0.235  2.1907  1.4289  0.8694
 4641TIP3   OH238117   5.395   2.241   7.713  0.1533  0.2046 -0.7597
 4641TIP3    H138118   5.364   2.269   7.627 -0.5002  1.6536 -0.0965
 4641TIP3    H238119   5.322   2.192   7.750 -0.0023  0.5443 -0.6068
 4642TIP3   OH238120   6.129   0.010   9.998 -0.1389 -0.1949 -0.3115
 4642TIP3    H138121   6.066  -0.058  10.022 -0.8470  0.3472 -0.6085
 4642TIP3    H238122   6.104   0.036   9.910  1.5812 -1.1813 -1.1510
 4643TIP3   OH238123   4.731   5.150   9.945 -0.2840  0.4151 -0.7517
 4643TIP3    H138124   4.712   5.083  10.011 -2.7955  0.0955 -1.6964
 4643TIP3    H238125   4.808   5.195   9.978 -0.5701 -0.7107  1.6467
 4644TIP3   OH238126   3.167   1.140   0.594  0.0438 -0.4773 -0.2898
 4644TIP3    H138127   3.112   1.193   0.536  1.3517  1.4975  0.2120
 4644TIP3    H238128   3.208   1.076   0.535  0.5253  0.8070 -1.3904
 4645TIP3   OH238129   6.953   0.811   1.432  0.2658  0.2016 -0.3271
 4645TIP3    H138130   6.969   0.720   1.458  0.4542  0.5765  0.9409
 4645TIP3    H238131   7.035   0.839   1.390  0.2090 -0.2035 -0.7151
 4646TIP3   OH238132   1.087   6.005   0.452 -0.3871  0.6744 -0.3027
 4646TIP3    H138133   1.127   6.084   0.487 -0.1182  0.3726  0.0874
 4646TIP3    H238134   1.079   5.947   0.527  0.6286 -0.1632 -0.8018
 4647TIP3   OH238135   1.817   5.886   1.554  0.5621  0.1103  0.4021
 4647TIP3    H138136   1.851   5.804   1.520  1.1478  1.4070 -2.4530
 4647TIP3    H238137   1.888   5.949   1.542 -0.7606  1.5940 -0.0832
 4648TIP3   OH238138   7.027   4.004   1.497 -0.5137 -0.2112  0.4172
 4648TIP3    H138139   6.965   4.071   1.467 -0.9772 -0.9177 -0.2463
 4648TIP3    H238140   7.095   4.003   1.430  0.9683  1.4825  1.7945
 4649TIP3   OH238141   4.753   0.817   9.518 -0.2660  0.5480 -0.2777
 4649TIP3    H138142   4.695   0.796   9.445  0.8981  1.5018 -1.5249
 4649TIP3    H238143   4.828   0.861   9.477  2.1220 -1.9836  1.0328
 4650TIP3   OH238144   4.516   5.491   2.387 -0.4076  0.4859 -0.3483
 4650TIP3    H138145   4.550   5.428   2.451 -1.4959 -0.7533 -0.9670
 4650TIP3    H238146   4.571   5.569   2.400  0.8525 -0.5070  0.5518
 4651TIP3   OH238147   3.795   1.442   1.762  0.0578  0.6391  0.6244
 4651TIP3    H138148   3.812   1.422   1.669 -0.3558  2.5697  0.0976
 4651TIP3    H238149   3.716   1.495   1.761 -0.7073 -0.4007  2.2385
 4652TIP3   OH238150   2.687   2.080   8.327 -0.4628  0.3247  0.1997
 4652TIP3    H138151   2.633   2.091   8.405  1.4939  0.3137  1.6299
 4652TIP3    H238152   2.719   1.990   8.333  0.1080  0.4887 -0.3448
 4653TIP3   OH238153   3.339   7.646   6.558 -0.1337 -0.1480  0.3112
 4653TIP3    H138154   3.422   7.636   6.511 -0.4714 -0.5266 -0.2135
 4653TIP3    H238155   3.328   7.740   6.569 -0.3455 -0.0284 -0.8957
 4654TIP3   OH238156   5.991   6.857   8.526 -0.2802  0.4887  0.2296
 4654TIP3    H138157   6.040   6.870   8.608 -1.6130 -0.3588  1.1938
 4654TIP3    H238158   5.917   6.917   8.533 -0.2413  0.6189 -0.4936
 4655TIP3   OH238159   3.471   6.243   0.046 -0.0779 -0.7377  0.3805
 4655TIP3    H138160   3.466   6.337   0.025  2.1394 -0.4447  0.8444
 4655TIP3    H238161   3.424   6.200  -0.026 -1.7592  0.7258  0.5178
 4656TIP3   OH238162   4.270   1.834   8.828  0.3879  0.0317  0.3039
 4656TIP3    H138163   4.245   1.761   8.884 -1.2921  0.3457  0.0233
 4656TIP3    H238164   4.195   1.846   8.769  0.3720  2.3123  0.6953
 4657TIP3   OH238165   4.178   4.893   0.619  0.2224 -0.4924  0.2526
 4657TIP3    H138166   4.109   4.955   0.594  0.2655 -0.4538  0.2287
 4657TIP3    H238167   4.229   4.939   0.685  0.9226 -0.0817 -0.5692
 4658TIP3   OH238168   4.739   5.604   0.910 -0.1392 -0.0847  0.4909
 4658TIP3    H138169   4.782   5.688   0.897  1.4419 -0.8515  0.5397
 4658TIP3    H238170   4.711   5.604   1.001 -0.5762  0.5644  0.3612
 4659TIP3   OH238171   4.510   4.376   9.296  0.1194  0.0860 -0.9109
 4659TIP3    H138172   4.529   4.291   9.335  0.3742 -0.7394 -2.7492
 4659TIP3    H238173   4.439   4.359   9.234 -0.0995  1.3001 -1.0291
 4660TIP3   OH238174   3.698   0.809   7.563 -0.6338 -0.8885 -0.2466
 4660TIP3    H138175   3.671   0.893   7.601 -2.4518 -0.6365 -1.9076
 4660TIP3    H238176   3.723   0.831   7.473  0.1067 -1.9553 -0.3185
 4661TIP3   OH238177   5.971   1.938   9.929  0.2223  0.3970  0.3485
 4661TIP3    H138178   5.949   1.855   9.970  0.6594 -0.4473 -1.0574
 4661TIP3    H238179   5.898   1.996   9.952 -0.6584 -0.7024  0.4131
 4662TIP3   OH238180   2.436   7.481   0.467 -0.4101  0.0567 -0.6826
 4662TIP3    H138181   2.411   7.392   0.441 -2.6472  0.4624 -0.1935
 4662TIP3    H238182   2.513   7.470   0.522 -1.4147 -1.7583  0.4662
 4663TIP3   OH238183   1.798   6.175   8.424 -0.0617  0.3764  0.6002
 4663TIP3    H138184   1.852   6.102   8.454  0.2875  0.6111  0.5627
 4663TIP3    H238185   1.855   6.223   8.363 -0.2344  0.7512  0.7285
 4664TIP3   OH238186   2.243   0.612   0.524  0.1575 -0.2190 -0.4696
 4664TIP3    H138187   2.183   0.540   0.501 -0.2591 -0.4577  1.2165
 4664TIP3    H238188   2.326   0.588   0.483 -0.0031 -1.6283 -0.0364
 4665TIP3   OH238189   0.271   3.542   8.806  0.8197 -0.3823 -0.1535
 4665TIP3    H138190   0.219   3.463   8.821  1.2027 -0.5761  0.1709
 4665TIP3    H238191   0.343   3.535   8.868  1.6072 -0.4425 -1.0558
 4666TIP3   OH238192   1.685   0.734   3.411  0.1326  0.5844  0.1235
 4666TIP3    H138193   1.658   0.765   3.325  0.1992  1.1475  0.3048
 4666TIP3    H238194   1.781   0.733   3.407  0.1580 -1.7804 -0.6527
 4667TIP3   OH238195   2.662   3.810   8.954 -0.3923  0.1254  0.2579
 4667TIP3    H138196   2.739   3.855   8.991  0.1698  0.7867 -1.5963
 4667TIP3    H238197   2.614   3.779   9.031  1.7972 -0.4555  1.4908
 4668TIP3   OH238198   0.495   1.086   8.556 -0.0523 -0.1143 -0.1075
 4668TIP3    H138199   0.409   1.100   8.596 -0.5587  0.9027 -1.4809
 4668TIP3    H238200   0.512   0.992   8.568 -1.4398 -0.3685  0.0131
 4669TIP3   OH238201   3.360   0.842   0.555  0.2954  0.0461 -0.5458
 4669TIP3    H138202   3.278   0.798   0.534 -0.4777  1.5025 -0.7516
 4669TIP3    H238203   3.382   0.812   0.643 -1.8912  1.5611  0.6104
 4670TIP3   OH238204   7.336   2.983   0.110 -0.3772 -0.2070  0.5607
 4670TIP3    H138205   7.245   2.993   0.139 -0.9875 -0.7844 -1.0458
 4670TIP3    H238206   7.373   3.071   0.121 -1.4459  0.3094  0.2457
 4671TIP3   OH238207   3.667   4.686   7.447  0.0058 -0.2547 -1.2132
 4671TIP3    H138208   3.744   4.731   7.413  0.2101  0.3543 -0.0098
 4671TIP3    H238209   3.656   4.611   7.389 -0.1026  1.0926 -3.0238
 4672TIP3   OH238210   0.999   6.460   8.818  0.0170 -0.2509 -0.6394
 4672TIP3    H138211   1.043   6.407   8.752  0.9950 -0.9140  0.4907
 4672TIP3    H238212   1.070   6.492   8.874 -0.8271 -0.3229  0.5139
 4673TIP3   OH238213   7.463   1.656   7.442  0.3795 -0.2176  0.3961
 4673TIP3    H138214   7.516   1.687   7.368  0.8693 -1.8923 -0.0029
 4673TIP3    H238215   7.445   1.734   7.493 -1.1221  1.2626 -2.1781
 4674TIP3   OH238216   0.501   1.537   8.685 -0.2307  0.0368 -0.0422
 4674TIP3    H138217   0.514   1.588   8.605  1.7772  1.0775  0.8825
 4674TIP3    H238218   0.576   1.558   8.740 -1.1209 -1.2936  1.8050
 4675TIP3   OH238219   7.541   1.327   8.973 -0.3598  0.4553  0.3674
 4675TIP3    H138220   7.563   1.241   9.009 -0.1637  0.7010  0.8411
 4675TIP3    H238221   7.592   1.389   9.025  1.4765  0.7124 -1.5475
 4676TIP3   OH238222   2.855   5.131   2.948 -0.0465 -0.0867 -0.5734
 4676TIP3    H138223   2.914   5.065   2.913 -0.1162  0.2895 -1.4210
 4676TIP3    H238224   2.911   5.208   2.962  0.2453 -0.5900  1.3350
 4677TIP3   OH238225   5.177   7.227   9.366 -0.5488 -0.1018  0.0172
 4677TIP3    H138226   5.228   7.305   9.388 -0.4870 -0.0468 -0.3275
 4677TIP3    H238227   5.105   7.227   9.430  0.2518 -0.5436  0.9508
 4678TIP3   OH238228   4.715   4.510   1.076 -0.3348 -0.0245  0.6225
 4678TIP3    H138229   4.643   4.451   1.098  0.0651 -0.9400 -0.3903
 4678TIP3    H238230   4.780   4.453   1.035  0.0036  1.1357 -0.5341
 4679TIP3   OH238231   5.025   6.068   0.416  0.2391 -0.1852 -0.2792
 4679TIP3    H138232   5.110   6.023   0.415 -0.0687 -0.8510  1.0356
 4679TIP3    H238233   4.965   6.004   0.455 -0.2159  1.3315  1.6621
 4680TIP3   OH238234   1.650   3.373   8.161  0.0845  0.5115 -0.3581
 4680TIP3    H138235   1.639   3.290   8.208  0.5460  0.7630  0.2266
 4680TIP3    H238236   1.714   3.421   8.215  1.4075  0.4131 -1.7725
 4681TIP3   OH238237   5.017   2.684   9.303 -0.4510  0.6561 -0.0098
 4681TIP3    H138238   5.028   2.690   9.398  1.5841 -0.4429 -0.1054
 4681TIP3    H238239   5.107   2.674   9.270 -1.2038 -0.0460 -1.9638
 4682TIP3   OH238240   1.220   0.373   2.663  0.9594 -0.3744  0.3938
 4682TIP3    H138241   1.238   0.414   2.747 -2.4533 -1.2949  1.7747
 4682TIP3    H238242   1.272   0.293   2.663  2.7952  0.7704  0.4985
 4683TIP3   OH238243   3.230   5.481   9.105 -0.1449 -0.7121 -0.0792
 4683TIP3    H138244   3.323   5.465   9.089 -0.1249 -0.1405 -0.5824
 4683TIP3    H238245   3.199   5.524   9.025 -0.4687  0.6190  0.7333
 4684TIP3   OH238246   1.276   2.866   7.040 -0.2360  0.3777  0.2082
 4684TIP3    H138247   1.251   2.935   6.979 -2.1432 -0.0289  0.4584
 4684TIP3    H238248   1.211   2.797   7.026  1.5057 -1.3111  0.0861
 4685TIP3   OH238249   7.457   2.099   7.918  0.0830  0.3298  0.3164
 4685TIP3    H138250   7.475   2.020   7.867 -0.3646 -0.1145  0.8426
 4685TIP3    H238251   7.365   2.092   7.943  0.2198  0.6798  0.9505
 4686TIP3   OH238252   2.027   4.369   3.030  0.0184 -0.1185  0.3879
 4686TIP3    H138253   2.059   4.339   3.115  0.5322  0.4827  0.4106
 4686TIP3    H238254   1.947   4.318   3.015  1.2232 -2.0589  0.0966
 4687TIP3   OH238255   5.581   7.331   8.251  0.4828 -0.4362 -0.6552
 4687TIP3    H138256   5.662   7.332   8.302 -0.6923 -1.5484  1.3858
 4687TIP3    H238257   5.523   7.392   8.297  0.0982  0.2633 -2.0213
 4688TIP3   OH238258   0.891   2.418   1.290 -0.3392 -0.0777  0.4058
 4688TIP3    H138259   0.841   2.341   1.317 -0.5937 -0.1726 -0.3062
 4688TIP3    H238260   0.972   2.413   1.341  0.3662 -1.7041 -0.7788
 4689TIP3   OH238261   1.761   6.706   7.942 -0.3195  0.0751 -0.1039
 4689TIP3    H138262   1.779   6.781   7.999  0.4044 -2.6564  3.6147
 4689TIP3    H238263   1.667   6.690   7.951 -0.0997 -0.7406  0.9609
 4690TIP3   OH238264   3.167   4.149   2.378 -0.0876 -0.2217 -0.2354
 4690TIP3    H138265   3.218   4.114   2.305  0.2811 -0.1730 -0.0036
 4690TIP3    H238266   3.150   4.074   2.434  0.5217 -0.0755  0.1539
 4691TIP3   OH238267   4.424   2.963   0.069  0.4386 -0.5795 -0.3445
 4691TIP3    H138268   4.366   3.036   0.046  0.2434 -0.5628  0.1956
 4691TIP3    H238269   4.495   2.968   0.004 -0.0118 -0.4285 -0.8351
 4692TIP3   OH238270   0.383   7.269   1.050  0.0120  0.6553 -0.0674
 4692TIP3    H138271   0.441   7.192   1.050 -0.2064  0.3811  2.8399
 4692TIP3    H238272   0.329   7.257   0.972  2.4946 -0.0987 -1.8134
 4693TIP3   OH238273   5.207   1.889   9.333  0.3028  0.1258  0.9750
 4693TIP3    H138274   5.290   1.931   9.354  1.8122 -1.6412 -1.0137
 4693TIP3    H238275   5.183   1.924   9.247 -0.1442 -0.6049  0.7895
 4694TIP3   OH238276   7.084   1.500   8.100 -0.6576  0.0621 -0.3861
 4694TIP3    H138277   7.013   1.438   8.083 -1.4480  1.3958 -2.3975
 4694TIP3    H238278   7.057   1.545   8.181 -2.3302  0.7510 -1.2654
 4695TIP3   OH238279   6.113   2.358   0.493 -0.3749 -0.3505 -0.1125
 4695TIP3    H138280   6.143   2.408   0.570 -1.8692  0.5733 -0.0808
 4695TIP3    H238281   6.146   2.270   0.507 -0.9027 -0.2913  1.7943
 4696TIP3   OH238282   1.954   0.896   7.717  0.1377 -0.0946  0.3908
 4696TIP3    H138283   1.973   0.970   7.660  0.7443 -0.0812  0.6021
 4696TIP3    H238284   1.935   0.935   7.802 -1.1422 -0.0902  0.1225
 4697TIP3   OH238285   7.014   1.728   9.124  0.1135 -0.1604 -0.1119
 4697TIP3    H138286   7.067   1.805   9.104  0.4746 -0.5649 -0.7341
 4697TIP3    H238287   6.997   1.687   9.039 -1.3293  0.0445  0.0681
 4698TIP3   OH238288   6.957   7.433   7.986 -0.6356 -0.5235  0.5783
 4698TIP3    H138289   6.982   7.476   7.904  0.9266  1.7861  2.1564
 4698TIP3    H238290   6.866   7.406   7.971  0.0997 -1.7797 -2.4684
 4699TIP3   OH238291   1.628   5.450   9.941 -0.2079  0.3557  0.0338
 4699TIP3    H138292   1.643   5.396   9.864 -1.3866  1.4142 -0.9854
 4699TIP3    H238293   1.682   5.528   9.927 -0.6238  0.6686  0.1398
 4700TIP3   OH238294   4.755   7.325   0.836  0.5890  0.1465  0.5544
 4700TIP3    H138295   4.769   7.419   0.848  0.5589  0.4001 -1.0899
 4700TIP3    H238296   4.797   7.306   0.752  0.7246 -1.3522  0.9329
 4701TIP3   OH238297   7.647   7.033   8.006  0.1693  0.0730  0.0909
 4701TIP3    H138298   7.644   7.043   8.101 -0.1582 -0.0492  0.0929
 4701TIP3    H238299   7.734   6.997   7.988  0.4929  0.7369  0.2858
 4702TIP3   OH238300   1.423   2.905   8.780  0.8624 -0.0589 -0.9630
 4702TIP3    H138301   1.358   2.836   8.770  0.0498  0.7307 -1.1857
 4702TIP3    H238302   1.407   2.965   8.707  1.0486  0.7716 -0.3388
 4703TIP3   OH238303   4.816   3.083   1.290  0.1596  0.5626 -0.2190
 4703TIP3    H138304   4.784   3.160   1.336  1.4352  1.0425 -0.0740
 4703TIP3    H238305   4.867   3.035   1.355  0.5820  0.3730 -0.6771
 4704TIP3   OH238306   7.583   5.449   9.156 -0.0277 -0.3863 -0.4284
 4704TIP3    H138307   7.635   5.504   9.097  0.1101  0.6067  0.5813
 4704TIP3    H238308   7.535   5.511   9.211  0.9530 -1.2248  1.4780
 4705TIP3   OH238309   0.046   7.550   0.641  0.0071  0.0113  0.1848
 4705TIP3    H138310  -0.011   7.618   0.606  0.0656  0.4928  0.9904
 4705TIP3    H238311   0.097   7.594   0.709  1.1368 -0.4765 -0.3154
 4706TIP3   OH238312   1.486   1.960   2.387  0.5089 -0.4551 -0.0152
 4706TIP3    H138313   1.520   1.940   2.474 -0.8443  0.8076  0.8430
 4706TIP3    H238314   1.457   1.875   2.352 -0.2343 -0.7848  1.3551
 4707TIP3   OH238315   7.503   3.736   8.763  0.6116  0.9092  0.4188
 4707TIP3    H138316   7.543   3.723   8.849  0.9947  0.9570  0.2493
 4707TIP3    H238317   7.550   3.677   8.705  1.2966  1.8793 -0.0374
 4708TIP3   OH238318   0.134   4.459   1.824  0.0841  0.2308 -0.1515
 4708TIP3    H138319   0.179   4.519   1.884 -1.0343  0.2677  0.6965
 4708TIP3    H238320   0.046   4.496   1.816  0.1687  0.1282 -1.7213
 4709TIP3   OH238321   2.383   0.886   1.487  0.6453 -0.2271 -0.3955
 4709TIP3    H138322   2.375   0.973   1.447 -0.8535  0.2593  0.8627
 4709TIP3    H238323   2.468   0.853   1.456  1.0361  1.4908 -1.2659
 4710TIP3   OH238324   2.864   0.189   0.465 -0.5504 -0.3407 -0.3005
 4710TIP3    H138325   2.899   0.277   0.448 -3.1762  1.0037  0.5969
 4710TIP3    H238326   2.896   0.166   0.552 -0.5325  0.1244 -0.1832
 4711TIP3   OH238327   0.697   5.561   0.617  0.1037 -0.8951  0.3328
 4711TIP3    H138328   0.695   5.572   0.522  0.7500 -2.7757  0.0652
 4711TIP3    H238329   0.789   5.572   0.642 -0.0475 -0.4968  0.7403
 4712TIP3   OH238330   4.749   0.550   1.993  0.1312 -0.0220  0.1995
 4712TIP3    H138331   4.843   0.551   1.976  0.2545  0.0052  0.8332
 4712TIP3    H238332   4.738   0.606   2.071 -0.4055 -0.0319  0.1376
 4713TIP3   OH238333   2.668   6.085   1.419 -0.1331  0.6148 -0.1864
 4713TIP3    H138334   2.685   6.134   1.500 -2.5986 -0.8449  1.3329
 4713TIP3    H238335   2.729   6.011   1.423 -0.2480  0.5441  0.3300
 4714TIP3   OH238336   1.705   7.241   0.345  0.3202 -0.8175  0.0241
 4714TIP3    H138337   1.760   7.319   0.355 -1.7438  0.5980  0.9978
 4714TIP3    H238338   1.628   7.272   0.298 -0.5083 -2.3075  0.3443
 4715TIP3   OH238339   2.011   1.096   7.550  0.0715  0.6822  0.0035
 4715TIP3    H138340   2.086   1.082   7.492 -0.1779  0.3890 -0.2536
 4715TIP3    H238341   2.020   1.187   7.580 -0.1727  1.0757 -1.0520
 4716TIP3   OH238342   0.118   1.071   8.893  0.4334 -0.0108  0.3662
 4716TIP3    H138343   0.092   1.035   8.979  1.2773 -1.1685  0.1617
 4716TIP3    H238344   0.038   1.064   8.840  0.3714 -0.9590  0.5546
 4717TIP3   OH238345   4.573   6.272   1.053 -0.0382  0.6966 -0.2500
 4717TIP3    H138346   4.557   6.339   0.987  1.1476  1.0732 -0.1747
 4717TIP3    H238347   4.555   6.315   1.136  3.4212  1.8902  0.0222
 4718TIP3   OH238348   5.103   4.726   8.358 -0.1846  0.2751 -0.0488
 4718TIP3    H138349   5.095   4.817   8.387 -0.1566  0.3157 -0.1677
 4718TIP3    H238350   5.162   4.730   8.282  1.2247 -0.0472  0.9761
 4719TIP3   OH238351   1.150   5.728   1.361  0.4400  0.5938  0.3782
 4719TIP3    H138352   1.215   5.683   1.416  0.0851  0.3460  0.5961
 4719TIP3    H238353   1.106   5.657   1.314  0.3435  0.7667  0.2065
 4720TIP3   OH238354   0.202   0.682   1.616 -0.2166  0.2898 -0.5817
 4720TIP3    H138355   0.212   0.777   1.607 -1.4912  0.4748 -0.2560
 4720TIP3    H238356   0.168   0.653   1.532 -0.2199  0.1804 -0.5427
 4721TIP3   OH238357   5.433   0.396   8.530  0.0887  0.1346  0.2357
 4721TIP3    H138358   5.371   0.447   8.583  0.9836 -0.2512  1.7196
 4721TIP3    H238359   5.436   0.311   8.573 -0.9060 -1.0263 -1.8543
 4722TIP3   OH238360   1.385   1.320   2.622  0.4313 -0.6026 -0.2597
 4722TIP3    H138361   1.396   1.315   2.527  2.2507 -0.6067 -0.0799
 4722TIP3    H238362   1.323   1.392   2.635  0.7008 -0.1412 -1.4274
 4723TIP3   OH238363   2.435   1.787   9.946  0.3817 -0.5201  0.1112
 4723TIP3    H138364   2.381   1.745   9.879 -0.6370  1.4403 -0.3695
 4723TIP3    H238365   2.372   1.830  10.004  1.3356 -0.4443  1.1387
 4724TIP3   OH238366   4.729   3.240   1.082 -0.1161  0.1699 -0.3441
 4724TIP3    H138367   4.679   3.169   1.043 -0.0488  0.4706 -0.9944
 4724TIP3    H238368   4.777   3.199   1.154 -0.9101 -0.2161 -0.0218
 4725TIP3   OH238369   4.669   6.395   7.940  0.1566 -0.2702 -0.5039
 4725TIP3    H138370   4.625   6.402   7.855 -1.2253 -0.0951  0.2014
 4725TIP3    H238371   4.724   6.473   7.945 -0.2429  0.0496 -0.9729
 4726TIP3   OH238372   0.666   6.633   9.061  0.4315  0.3955  0.0215
 4726TIP3    H138373   0.579   6.593   9.059  1.4015 -1.9478  1.6918
 4726TIP3    H238374   0.693   6.635   8.969 -0.7838 -0.2340 -0.3704
 4727TIP3   OH238375   4.820   7.342   9.280  0.8217  0.3479  0.6781
 4727TIP3    H138376   4.841   7.315   9.191 -2.2437 -0.9244  0.2183
 4727TIP3    H238377   4.803   7.436   9.273 -0.0050  0.1480 -0.2589
 4728TIP3   OH238378   1.285   7.273   7.860 -0.8706  0.3921  0.3859
 4728TIP3    H138379   1.311   7.213   7.789 -0.7980 -0.3744  1.0464
 4728TIP3    H238380   1.285   7.218   7.938  0.1791  1.4943  1.1857
 4729TIP3   OH238381   1.378   4.944   9.591 -0.1057 -0.0477 -0.4240
 4729TIP3    H138382   1.283   4.934   9.595 -0.0856  0.0254  0.2257
 4729TIP3    H238383   1.404   4.894   9.513 -0.6934  0.0719 -0.6957
 4730TIP3   OH238384   6.112   3.887   7.930 -0.1799 -0.1811  0.4474
 4730TIP3    H138385   6.033   3.939   7.920  0.7097  1.3366  0.9619
 4730TIP3    H238386   6.154   3.888   7.844  1.6657  3.1466  1.2179
 4731TIP3   OH238387   6.831   2.078   8.868  0.1345 -0.0599 -0.2858
 4731TIP3    H138388   6.850   1.990   8.836  0.9968  0.2450 -0.6423
 4731TIP3    H238389   6.917   2.117   8.885 -0.2604  0.2788  1.0859
 4732TIP3   OH238390   4.172   1.583   8.499 -0.3713 -0.3737 -0.6186
 4732TIP3    H138391   4.142   1.659   8.449 -0.0143 -0.0795 -0.3936
 4732TIP3    H238392   4.261   1.607   8.527 -0.9503 -0.0814  1.0644
 4733TIP3   OH238393   0.086   2.711   9.663  0.5259  0.5097 -0.5825
 4733TIP3    H138394   0.132   2.685   9.743  0.6696 -0.2259 -0.9010
 4733TIP3    H238395  -0.004   2.681   9.676  0.7188 -0.2709 -0.9999
 4734TIP3   OH238396   5.239   1.630   9.691 -0.3181  0.1464 -0.0391
 4734TIP3    H138397   5.291   1.550   9.689 -0.4228  0.0244  1.2559
 4734TIP3    H238398   5.207   1.636   9.781 -0.8249  1.3175 -0.2744
 4735TIP3   OH238399   3.586   7.218   7.358  0.0749 -0.1223  0.3865
 4735TIP3    H138400   3.647   7.145   7.360 -1.9162 -1.8805  1.3338
 4735TIP3    H238401   3.572   7.236   7.265 -0.7724 -2.2519  0.0470
 4736TIP3   OH238402   0.261   6.802   9.756 -0.1043 -0.1362 -0.7500
 4736TIP3    H138403   0.195   6.742   9.721  1.7214 -2.8313  0.1116
 4736TIP3    H238404   0.227   6.828   9.842  0.2359 -2.1975  0.0656
 4737TIP3   OH238405   3.381   5.295   7.154 -0.4905  1.1756 -0.2877
 4737TIP3    H138406   3.458   5.351   7.146 -0.1488  0.5697 -1.3921
 4737TIP3    H238407   3.350   5.283   7.064  1.1610 -2.7656 -0.5105
 4738TIP3   OH238408   1.504   5.475   0.269 -0.7788 -0.4407  0.1104
 4738TIP3    H138409   1.597   5.457   0.282 -0.7151 -1.1593 -1.1569
 4738TIP3    H238410   1.475   5.406   0.209 -1.3050  1.7254 -2.3159
 4739TIP3   OH238411   1.775   2.953   9.341 -0.1492 -0.3947 -0.3376
 4739TIP3    H138412   1.800   2.967   9.433 -2.2979 -0.3408  0.2947
 4739TIP3    H238413   1.842   2.895   9.307  2.1867  1.6573  0.4798
 4740TIP3   OH238414   6.492   4.217   1.831 -0.0752 -0.1516 -0.1068
 4740TIP3    H138415   6.478   4.311   1.842 -1.2806 -0.5325  2.3599
 4740TIP3    H238416   6.475   4.180   1.917  0.2722 -2.6674 -1.0284
 4741TIP3   OH238417   7.013   7.421   0.377  0.5681  0.3312 -0.1287
 4741TIP3    H138418   6.926   7.442   0.345  1.3238  0.6107 -2.1217
 4741TIP3    H238419   7.008   7.434   0.472 -2.0714 -1.5974  0.0859
 4742TIP3   OH238420   5.455   3.150   9.889  0.5350  0.3991 -0.6942
 4742TIP3    H138421   5.477   3.153   9.982 -0.6352  1.5348 -0.4234
 4742TIP3    H238422   5.510   3.218   9.850  1.0990 -0.1458 -0.8630
 4743TIP3   OH238423   6.494   6.564   9.323 -0.3376 -0.4548  0.2293
 4743TIP3    H138424   6.479   6.627   9.393  1.8457  0.0261  0.3605
 4743TIP3    H238425   6.515   6.482   9.367  1.7785  0.0325  0.2271
 4744TIP3   OH238426   2.414   5.037   1.686  0.4289 -0.2382 -0.2723
 4744TIP3    H138427   2.368   5.110   1.646 -0.2259 -0.9522 -0.8525
 4744TIP3    H238428   2.498   5.034   1.641  0.0150 -0.5284 -1.0483
 4745TIP3   OH238429   6.114   5.774   0.785 -0.1524 -0.4260 -0.0182
 4745TIP3    H138430   6.059   5.699   0.766 -0.0010 -0.4463 -0.4052
 4745TIP3    H238431   6.200   5.751   0.749  0.4093 -0.8352  1.5339
 4746TIP3   OH238432   1.846   7.080   0.052 -0.0464  0.1988 -0.2264
 4746TIP3    H138433   1.878   7.060  -0.036  0.0673 -0.2359 -0.0884
 4746TIP3    H238434   1.908   7.146   0.085  0.8491 -0.7855  0.1150
 4747TIP3   OH238435   4.396   1.484   9.849  0.2754  0.0525  0.3652
 4747TIP3    H138436   4.385   1.413   9.913  0.7781  0.1928  0.6104
 4747TIP3    H238437   4.339   1.460   9.776  1.1735 -1.1053  0.0192
 4748TIP3   OH238438   0.099   2.547   8.157 -0.0486 -0.5327 -0.1995
 4748TIP3    H138439   0.133   2.463   8.128 -0.4971 -1.6331  2.2233
 4748TIP3    H238440   0.007   2.546   8.129 -0.2889 -1.2559  0.5897
 4749TIP3   OH238441   4.820   6.023   7.753 -0.5442 -0.4610  0.2835
 4749TIP3    H138442   4.914   6.036   7.758 -0.4651 -0.8229 -0.1869
 4749TIP3    H238443   4.786   6.054   7.837  0.0409 -0.7605  0.6312
 4750TIP3   OH238444   0.975   3.641   7.543 -0.2959  0.0657 -0.0970
 4750TIP3    H138445   1.012   3.676   7.461  0.7028  1.6608  0.9658
 4750TIP3    H238446   0.928   3.715   7.581  0.7933 -0.0808  1.6328
 4751TIP3   OH238447   0.702   1.272   7.938 -0.1729 -0.0867 -0.0117
 4751TIP3    H138448   0.698   1.363   7.969  1.3829 -0.7057  2.2799
 4751TIP3    H238449   0.645   1.270   7.862  0.0603  2.9139 -0.3900
 4752TIP3   OH238450   4.155   0.047   0.364  0.3857 -0.0009  0.4819
 4752TIP3    H138451   4.218  -0.024   0.371  1.8641  1.0232 -1.4717
 4752TIP3    H238452   4.190   0.116   0.421 -0.3191 -0.2846  1.2942
 4753TIP3   OH238453   2.288   0.064   3.051  0.3739  0.5800  0.1941
 4753TIP3    H138454   2.243  -0.004   3.000  0.3337  1.0240 -0.3678
 4753TIP3    H238455   2.232   0.076   3.128  1.3384 -1.3556  1.2713
 4754TIP3   OH238456   7.246   2.270   0.568  0.3440  0.5920  0.7071
 4754TIP3    H138457   7.273   2.361   0.556  2.8388 -0.1484  0.1892
 4754TIP3    H238458   7.151   2.275   0.579  0.4129  3.2472  0.7960
 4755TIP3   OH238459   3.150   0.638   0.549  0.4099  0.2246 -0.0998
 4755TIP3    H138460   3.159   0.560   0.494  0.7508 -0.2905  0.6651
 4755TIP3    H238461   3.057   0.662   0.542 -0.2644 -1.6434  1.4393
 4756TIP3   OH238462   4.297   6.727   9.370  0.0663  0.1704  0.7826
 4756TIP3    H138463   4.288   6.679   9.452  1.4750  0.6339  1.2345
 4756TIP3    H238464   4.328   6.662   9.307 -0.6401 -0.0985  0.7034
 4757TIP3   OH238465   6.058   6.411   1.898  0.1644  0.0752  0.2858
 4757TIP3    H138466   6.092   6.428   1.810  0.3820  0.0055  0.3571
 4757TIP3    H238467   5.968   6.443   1.895  0.3121  0.4787  0.1699
 4758TIP3   OH238468   1.600   7.382   7.720  0.6438  0.2516  0.2765
 4758TIP3    H138469   1.524   7.324   7.712  1.3436 -0.4758 -1.5878
 4758TIP3    H238470   1.660   7.335   7.778  0.6901 -0.3308 -0.2342
 4759TIP3   OH238471   7.173   0.652   1.106  1.0397 -0.5967  0.4271
 4759TIP3    H138472   7.112   0.580   1.093 -0.0849  0.3581  0.2374
 4759TIP3    H238473   7.239   0.618   1.166 -0.3289 -1.2824  1.5832
 4760TIP3   OH238474   5.445   0.792   0.755 -0.3259  0.3186 -0.0116
 4760TIP3    H138475   5.522   0.746   0.721  0.1197  0.6191  0.5840
 4760TIP3    H238476   5.396   0.725   0.803 -1.7884 -0.5180 -2.4930
 4761TIP3   OH238477   3.232   2.870   0.454 -0.2489  0.1900 -0.2560
 4761TIP3    H138478   3.244   2.924   0.532  3.2877 -0.0066 -0.5062
 4761TIP3    H238479   3.217   2.782   0.489  0.9411  0.1685  0.2540
 4762TIP3   OH238480   0.645   1.328   8.567 -0.4906  0.2543 -0.2315
 4762TIP3    H138481   0.592   1.253   8.542  1.1113 -1.0502  0.1370
 4762TIP3    H238482   0.581   1.396   8.587 -1.9686 -0.7586 -1.2651
 4763TIP3   OH238483   2.261   5.258   0.283  0.1169  0.4244 -0.5543
 4763TIP3    H138484   2.279   5.174   0.325  0.8517  0.7001 -0.3085
 4763TIP3    H238485   2.167   5.271   0.296 -0.2528 -0.8987 -1.6087
 4764TIP3   OH238486   4.285   3.868   2.094 -0.4745  0.3008  0.2310
 4764TIP3    H138487   4.328   3.948   2.121  0.2965  0.2543 -0.8102
 4764TIP3    H238488   4.298   3.807   2.167  2.3570 -0.1257 -0.5255
 4765TIP3   OH238489   6.823   4.530   9.084 -0.4312 -0.3315 -0.3004
 4765TIP3    H138490   6.915   4.530   9.111 -0.2804 -2.6107 -0.5721
 4765TIP3    H238491   6.825   4.504   8.992 -1.2492  2.3352 -1.1629
 4766TIP3   OH238492   7.534   4.902   1.372  0.5957  1.1485 -0.1308
 4766TIP3    H138493   7.542   4.864   1.459  0.5342  1.8866  0.2014
 4766TIP3    H238494   7.440   4.914   1.360  0.5968  0.9494 -0.3420
 4767TIP3   OH238495   3.624   6.800   0.515  0.3937 -0.3101  0.0102
 4767TIP3    H138496   3.590   6.716   0.485 -1.3848  0.9557 -1.7310
 4767TIP3    H238497   3.714   6.803   0.483  0.9074 -2.0043  1.1527
 4768TIP3   OH238498   0.640   1.446   0.512  0.1723  0.8210 -0.0157
 4768TIP3    H138499   0.582   1.386   0.464 -0.6664 -0.1986  2.1688
 4768TIP3    H238500   0.677   1.502   0.443 -2.0107  0.3593 -1.7131
 4769TIP3   OH238501   2.003   5.130   9.873 -0.3664  0.0069  0.1322
 4769TIP3    H138502   2.046   5.201   9.825  1.9910 -1.6336 -0.3453
 4769TIP3    H238503   1.936   5.174   9.926  0.5528  2.4886 -0.6387
 4770TIP3   OH238504   1.215   2.986   0.490 -0.4025  0.0090  0.4429
 4770TIP3    H138505   1.144   3.042   0.458  0.4528  1.4653  0.9628
 4770TIP3    H238506   1.171   2.917   0.539 -1.5087  0.2580 -0.1770
 4771TIP3   OH238507   2.467   3.526   2.975 -0.0863  0.4520 -0.0519
 4771TIP3    H138508   2.420   3.604   2.944  1.2326  0.7166 -1.5312
 4771TIP3    H238509   2.558   3.555   2.982  0.0837 -0.3800  1.5541
 4772TIP3   OH238510   7.309   3.095   7.703  0.4699 -0.3945 -0.2146
 4772TIP3    H138511   7.325   3.020   7.645  1.2503 -0.6845  0.3628
 4772TIP3    H238512   7.392   3.109   7.748  0.1275  0.3881  0.1904
 4773TIP3   OH238513   5.161   3.300   0.647  0.2041  0.2996  0.0429
 4773TIP3    H138514   5.214   3.321   0.570  0.4502  1.1114  0.4231
 4773TIP3    H238515   5.214   3.238   0.697 -0.8649 -1.9386 -1.4875
 4774TIP3   OH238516   2.225   1.283   1.612  0.3020  0.1158  0.3995
 4774TIP3    H138517   2.187   1.326   1.690  0.4072  0.4206  0.2853
 4774TIP3    H238518   2.166   1.209   1.595 -0.0539  0.3874  0.4253
 4775TIP3   OH238519   3.542   1.923   7.484 -0.4778  0.1407 -0.0076
 4775TIP3    H138520   3.514   1.938   7.393  1.2883  0.7179 -0.4835
 4775TIP3    H238521   3.521   2.005   7.529 -1.8198 -0.3225  0.2576
 4776TIP3   OH238522   3.907   5.487   8.964  0.5229  0.1628 -0.1367
 4776TIP3    H138523   3.991   5.501   9.008  0.1440  0.6777  0.4310
 4776TIP3    H238524   3.844   5.536   9.016 -0.2332 -0.6836 -0.2351
 4777TIP3   OH238525   1.811   5.923   0.741  0.1749 -0.3980  0.4239
 4777TIP3    H138526   1.766   5.876   0.811  0.8722 -0.5393  0.7875
 4777TIP3    H238527   1.904   5.915   0.762  0.3094  1.7454  0.9072
 4778TIP3   OH238528   1.439   3.820   1.168  0.9374 -0.1209  0.4593
 4778TIP3    H138529   1.444   3.896   1.227  1.2270 -1.9241  2.9080
 4778TIP3    H238530   1.353   3.782   1.184  1.3820 -1.1743  0.4312
 4779TIP3   OH238531   5.783   4.725   1.194 -0.0069 -0.1750  0.5045
 4779TIP3    H138532   5.807   4.708   1.285 -1.1198 -0.0741  0.8329
 4779TIP3    H238533   5.742   4.812   1.196 -0.2460 -0.2728 -0.0580
 4780TIP3   OH238534   6.396   5.982   1.310  0.3001  0.1883 -0.7183
 4780TIP3    H138535   6.307   5.995   1.343  1.0028  1.6792  0.7121
 4780TIP3    H238536   6.385   5.978   1.214 -1.4741 -1.4824 -0.5162
 4781TIP3   OH238537   2.133   0.103   0.877  0.0001 -0.3784  0.5649
 4781TIP3    H138538   2.115   0.010   0.893  0.5308 -0.6783 -0.5111
 4781TIP3    H238539   2.226   0.106   0.855 -0.2663  0.2454 -0.5595
 4782TIP3   OH238540   4.588   7.378   1.748  0.2942 -0.5536  0.3719
 4782TIP3    H138541   4.562   7.465   1.719 -2.7100 -2.0891 -2.0114
 4782TIP3    H238542   4.682   7.374   1.728 -0.0075  1.2738 -1.8089
 4783TIP3   OH238543   1.426   1.959   7.775 -0.1571 -0.1165 -0.2647
 4783TIP3    H138544   1.494   1.901   7.810 -0.6966 -0.8574 -0.4128
 4783TIP3    H238545   1.426   2.034   7.834  1.2542  0.2244 -0.6530
 4784TIP3   OH238546   0.796   6.324   1.552  0.0668  0.3699 -0.3256
 4784TIP3    H138547   0.825   6.233   1.539  0.3586  0.6434 -1.8552
 4784TIP3    H238548   0.859   6.361   1.613  0.4995 -0.2121 -0.4039
 4785TIP3   OH238549   2.140   5.348   9.752 -0.0999 -0.2273  0.0075
 4785TIP3    H138550   2.210   5.302   9.706 -0.0811 -0.4468  0.2528
 4785TIP3    H238551   2.120   5.423   9.696 -0.3000 -0.6650 -0.5258
 4786TIP3   OH238552   1.604   7.611   7.545 -0.3116 -0.1018  0.3364
 4786TIP3    H138553   1.547   7.685   7.565  0.6960  0.6558  0.4872
 4786TIP3    H238554   1.624   7.572   7.630  0.0558  0.1483  0.3691
 4787TIP3   OH238555   2.502   4.585   7.292  0.1194 -0.3646 -0.3652
 4787TIP3    H138556   2.410   4.612   7.300 -0.7157 -2.4835 -1.7466
 4787TIP3    H238557   2.541   4.650   7.234 -0.4807  0.5829  0.2686
 4788TIP3   OH238558   1.598   5.588   7.172 -0.7312 -0.2128  0.6850
 4788TIP3    H138559   1.524   5.605   7.114  0.0876  2.0701  0.2033
 4788TIP3    H238560   1.561   5.536   7.243 -2.0457 -1.9813 -1.1902
 4789TIP3   OH238561   7.535   5.176   1.672 -0.0597  0.6397 -0.7724
 4789TIP3    H138562   7.529   5.084   1.695  0.9012  0.9930  1.0403
 4789TIP3    H238563   7.450   5.196   1.633 -0.8238 -0.6632  0.1307
 4790TIP3   OH238564   1.689   6.695   2.830  0.1742 -0.0644 -0.2591
 4790TIP3    H138565   1.776   6.664   2.804 -0.4436 -3.6608  1.3631
 4790TIP3    H238566   1.703   6.745   2.910  0.8907  1.1783 -1.1310
 4791TIP3   OH238567   0.066   1.591   9.965  0.1354  0.3602  0.3073
 4791TIP3    H138568   0.153   1.563   9.936  0.0063 -0.2705  0.5091
 4791TIP3    H238569   0.011   1.585   9.886 -0.1307 -0.9982  0.5637
 4792TIP3   OH238570   3.087   7.517   1.859 -0.9132  0.2537 -0.2305
 4792TIP3    H138571   3.089   7.612   1.872  0.2373  0.0826  1.0604
 4792TIP3    H238572   3.115   7.505   1.768 -3.7237  1.2295 -1.3262
 4793TIP3   OH238573   6.383   5.446   0.761 -0.0120  0.0845 -0.0470
 4793TIP3    H138574   6.356   5.433   0.852  1.2325 -0.3586  0.2858
 4793TIP3    H238575   6.374   5.541   0.747 -1.9485 -0.0633 -0.0733
 4794TIP3   OH238576   2.912   3.629   9.933  0.5993  0.3881  0.2637
 4794TIP3    H138577   2.915   3.535   9.913  0.6049  0.6098 -0.8360
 4794TIP3    H238578   2.916   3.672   9.847  1.7531  1.4193  0.8072
 4795TIP3   OH238579   7.042   6.551   9.207  0.0159 -0.2078  0.2050
 4795TIP3    H138580   7.107   6.609   9.247 -0.4725  0.3288  0.2306
 4795TIP3    H238581   7.088   6.468   9.196  0.2170 -0.3241  1.7214
 4796TIP3   OH238582   4.596   3.490   8.561 -0.1939 -0.2901  0.6313
 4796TIP3    H138583   4.569   3.520   8.474  0.0128  0.2614  0.7553
 4796TIP3    H238584   4.519   3.444   8.595  0.1847 -1.7197 -0.3915
 4797TIP3   OH238585   6.164   0.226   7.800  0.0855 -0.0831  0.7322
 4797TIP3    H138586   6.242   0.222   7.855 -0.3985 -0.1925  1.4326
 4797TIP3    H238587   6.197   0.244   7.712  0.8725  0.1914  1.0740
 4798TIP3   OH238588   7.542   6.056   1.683  0.2574  0.6260 -0.5346
 4798TIP3    H138589   7.474   6.099   1.632 -0.4775  0.8708  0.6116
 4798TIP3    H238590   7.512   6.063   1.774  1.6297  0.4037 -0.0405
 4799TIP3   OH238591   1.931   1.653   6.823 -0.3068 -0.2832 -0.1518
 4799TIP3    H138592   1.872   1.725   6.800  0.2650 -0.1604 -1.2989
 4799TIP3    H238593   1.888   1.610   6.897 -2.2297 -0.6584 -1.4135
 4800TIP3   OH238594   1.071   6.900   2.066  0.0001  0.6703  0.4297
 4800TIP3    H138595   1.027   6.953   2.133 -1.9793 -1.0008  0.5744
 4800TIP3    H238596   1.131   6.845   2.115 -1.2060 -0.3171  0.8625
 4801TIP3   OH238597   1.487   3.352   0.777 -0.6997  0.0050 -0.3344
 4801TIP3    H138598   1.508   3.419   0.713  0.3431 -0.3742 -0.4216
 4801TIP3    H238599   1.403   3.317   0.749  0.2273 -0.9167 -2.1794
 4802TIP3   OH238600   0.716   0.048   8.358 -0.0075 -0.0588 -0.7511
 4802TIP3    H138601   0.629   0.046   8.397  0.1172  0.7894 -0.4072
 4802TIP3    H238602   0.773   0.009   8.426  0.1285  0.9303 -0.2837
 4803TIP3   OH238603   3.385   3.114   9.048 -0.4120 -0.2663  0.2233
 4803TIP3    H138604   3.364   3.083   8.959 -0.6610  2.0839 -0.5924
 4803TIP3    H238605   3.411   3.034   9.095 -1.8230 -1.8426 -1.4785
 4804TIP3   OH238606   1.821   4.914   0.610  0.5497  0.2132  0.0848
 4804TIP3    H138607   1.894   4.855   0.592  0.3483  0.0396 -0.1590
 4804TIP3    H238608   1.753   4.858   0.646 -0.0763  0.0952 -1.2472
 4805TIP3   OH238609   2.508   0.367   0.815  0.0864  0.0909  0.1973
 4805TIP3    H138610   2.474   0.379   0.904 -0.4218  1.0570 -0.1102
 4805TIP3    H238611   2.462   0.290   0.782  0.2518 -0.2514  0.7620
 4806TIP3   OH238612   2.924   3.050   0.801 -0.3438 -0.2949  0.0878
 4806TIP3    H138613   2.979   3.123   0.828 -1.6955  0.6692  0.3656
 4806TIP3    H238614   2.851   3.050   0.863  0.1561 -2.5881  0.7577
 4807TIP3   OH238615   3.011   2.966   1.826 -0.5581 -0.2186 -0.3603
 4807TIP3    H138616   3.094   2.924   1.803 -0.3023 -1.4728  2.5133
 4807TIP3    H238617   2.946   2.923   1.769  0.2705 -1.8120 -0.1581
 4808TIP3   OH238618   7.423   4.440   7.640 -0.2630  0.6675  0.1470
 4808TIP3    H138619   7.476   4.513   7.606 -0.5202  0.9753  0.3968
 4808TIP3    H238620   7.387   4.473   7.722  0.1886 -0.0009  0.6165
 4809TIP3   OH238621   1.369   2.502   1.249 -0.6246 -0.2230  0.3779
 4809TIP3    H138622   1.377   2.579   1.193  0.8184 -0.6192  0.0091
 4809TIP3    H238623   1.440   2.510   1.312  0.5424 -1.9959 -0.6245
 4810TIP3   OH238624   3.727   5.191   0.935  0.5464 -0.4004  0.1827
 4810TIP3    H138625   3.780   5.248   0.879  1.5524  0.0605  1.5616
 4810TIP3    H238626   3.784   5.116   0.953  0.2897 -0.4680  0.7184
 4811TIP3   OH238627   4.531   5.992   8.955 -0.2112  0.2258 -0.1071
 4811TIP3    H138628   4.492   5.936   8.888 -0.1206  0.7004 -0.5611
 4811TIP3    H238629   4.587   5.933   9.005 -0.7765 -0.2681 -0.0369
 4812TIP3   OH238630   3.811   3.309   7.581 -0.2947  0.1255 -0.1011
 4812TIP3    H138631   3.757   3.387   7.573 -0.4468  0.2506  1.7519
 4812TIP3    H238632   3.897   3.341   7.610 -0.6921 -0.4266  1.8562
 4813TIP3   OH238633   6.649   4.169   1.096 -0.6180  0.0192  0.5911
 4813TIP3    H138634   6.613   4.229   1.030 -2.7554  0.1713  1.8302
 4813TIP3    H238635   6.715   4.221   1.142 -0.0485  0.3161 -0.5091
 4814TIP3   OH238636   2.361   7.267   7.796 -0.2556  0.1052 -0.0667
 4814TIP3    H138637   2.368   7.360   7.775 -1.2477 -0.0469 -1.1329
 4814TIP3    H238638   2.269   7.246   7.782 -0.3939 -0.6750  1.7887
 4815TIP3   OH238639   4.168   4.960   1.846  0.5126  0.0795  0.1425
 4815TIP3    H138640   4.122   4.952   1.930  0.8599  0.9986  0.4296
 4815TIP3    H238641   4.111   4.916   1.783  0.0660 -0.2861  0.7934
 4816TIP3   OH238642   2.377   3.401   1.868  0.4126  0.1344  0.1353
 4816TIP3    H138643   2.332   3.457   1.932  1.0465 -2.9209  3.5816
 4816TIP3    H238644   2.469   3.406   1.893  0.8996 -0.1178 -1.5083
 4817TIP3   OH238645   2.925   1.659   2.383  0.0408 -0.3863  0.1667
 4817TIP3    H138646   2.874   1.600   2.328 -2.0521  1.5724 -0.1699
 4817TIP3    H238647   2.879   1.662   2.466  0.8620 -0.2134  0.6332
 4818TIP3   OH238648   0.529   7.615   8.528 -0.0793 -0.3084 -0.1547
 4818TIP3    H138649   0.531   7.532   8.481 -0.2687 -0.2540 -0.2626
 4818TIP3    H238650   0.522   7.591   8.620 -1.8062 -0.4172 -0.2767
 4819TIP3   OH238651   0.467   0.938   9.707 -0.0619 -0.2039  0.0008
 4819TIP3    H138652   0.519   0.992   9.647 -0.9510  0.5869 -0.0690
 4819TIP3    H238653   0.494   0.966   9.794 -0.1842  0.0263 -0.0346
 4820TIP3   OH238654   4.448   3.157   8.690  0.2039  0.3875 -0.2334
 4820TIP3    H138655   4.494   3.129   8.610 -1.8262 -0.5182 -1.1555
 4820TIP3    H238656   4.418   3.076   8.730  0.4629  0.8933  1.0157
 4821TIP3   OH238657   2.982   6.591   7.016  0.1708 -0.4616  0.0115
 4821TIP3    H138658   3.001   6.531   6.943 -1.7635 -0.6351 -0.4294
 4821TIP3    H238659   2.936   6.664   6.975 -2.3110 -1.2612  1.1595
 4822TIP3   OH238660   0.605   0.111   2.152 -0.2511 -0.2777  0.0417
 4822TIP3    H138661   0.595   0.071   2.239 -1.0005 -1.3233 -0.5025
 4822TIP3    H238662   0.667   0.053   2.107  0.1468  0.2722 -0.1241
 4823TIP3   OH238663   6.263   6.945   1.694 -0.4204  0.4811  0.1775
 4823TIP3    H138664   6.213   6.983   1.766  0.2217  0.7355  0.4979
 4823TIP3    H238665   6.325   7.014   1.668  1.4663 -0.6492  1.4488
 4824TIP3   OH238666   2.340   5.682   0.914 -0.6155  0.4793 -0.5107
 4824TIP3    H138667   2.345   5.695   0.820 -0.3045 -0.7732 -0.6865
 4824TIP3    H238668   2.362   5.767   0.952  1.3707  0.4829 -1.5492
 4825TIP3   OH238669   3.047   0.228   8.341  0.3620 -0.0107  0.2841
 4825TIP3    H138670   2.977   0.198   8.284  0.6453  0.6128 -0.4062
 4825TIP3    H238671   3.056   0.322   8.322  0.7185  0.1276  1.0741
 4826TIP3   OH238672   4.734   5.016   9.082  0.1513 -0.3469  0.3922
 4826TIP3    H138673   4.665   4.951   9.097  0.7643 -0.7044  1.8330
 4826TIP3    H238674   4.759   5.046   9.169  0.9332  0.7233 -0.1726
 4827TIP3   OH238675   0.871   2.713   2.020  0.7491 -0.4955  0.3699
 4827TIP3    H138676   0.953   2.712   1.971  0.4086 -1.4460 -0.2210
 4827TIP3    H238677   0.873   2.633   2.072  0.6179 -0.0420  1.0745
 4828TIP3   OH238678   1.708   4.384   2.406  0.2870  0.2953 -0.1007
 4828TIP3    H138679   1.693   4.411   2.315 -2.8268  1.0579  0.5130
 4828TIP3    H238680   1.715   4.289   2.402  2.1481  0.4314 -1.2979
 4829TIP3   OH238681   5.674   0.883   0.996  0.4776 -0.3799 -0.3795
 4829TIP3    H138682   5.631   0.802   1.025  1.7487 -1.2712 -0.8980
 4829TIP3    H238683   5.613   0.953   1.022 -0.6887 -1.4928  0.0056
 4830TIP3   OH238684   1.465   6.130   7.823 -0.3289 -0.0159 -0.4915
 4830TIP3    H138685   1.481   6.213   7.869  2.6920  0.1459 -1.5919
 4830TIP3    H238686   1.546   6.114   7.775 -0.5562 -3.9134  0.1163
 4831TIP3   OH238687   0.186   4.317   8.920 -0.0505 -0.0481 -0.2825
 4831TIP3    H138688   0.199   4.301   8.826  1.3297  1.6902 -0.4418
 4831TIP3    H238689   0.261   4.275   8.962  0.6678  1.2409 -0.2196
 4832TIP3   OH238690   4.665   5.019   1.199  0.5049  0.8163  0.6820
 4832TIP3    H138691   4.588   5.054   1.155 -2.3540 -5.7035 -0.6559
 4832TIP3    H238692   4.634   4.994   1.285  1.4240 -0.7945  0.5769
 4833TIP3   OH238693   4.905   0.265   7.971 -0.2765  0.3417 -0.6161
 4833TIP3    H138694   4.985   0.212   7.976 -0.5327  0.0228  0.3144
 4833TIP3    H238695   4.924   0.332   7.906  0.4993 -0.1514 -0.9099
 4834TIP3   OH238696   4.029   6.314   8.835  0.4553 -0.2627  0.3469
 4834TIP3    H138697   4.062   6.381   8.775  0.3977 -1.2387 -0.8356
 4834TIP3    H238698   3.995   6.246   8.777  1.5945 -1.8601  1.4600
 4835TIP3   OH238699   5.386   6.221   1.762 -0.2328  0.1856 -0.1419
 4835TIP3    H138700   5.440   6.169   1.702  0.1014  1.4543 -0.9720
 4835TIP3    H238701   5.336   6.156   1.811 -0.4594 -0.9116 -1.7471
 4836TIP3   OH238702   4.956   4.158   1.850  0.0904 -0.5136 -0.1212
 4836TIP3    H138703   4.968   4.250   1.828  0.9521 -0.3914  0.7575
 4836TIP3    H238704   4.986   4.151   1.941 -0.2637 -1.5996 -0.0659
 4837TIP3   OH238705   3.513   5.666   1.693  0.0380 -0.4843  0.0471
 4837TIP3    H138706   3.500   5.583   1.645 -0.6007 -0.0467 -0.5654
 4837TIP3    H238707   3.463   5.655   1.774 -1.2665 -0.1702 -0.6884
 4838TIP3   OH238708   0.747   1.942   1.503 -0.5281 -0.2233  0.1715
 4838TIP3    H138709   0.809   1.875   1.478 -0.3753 -0.1671  0.3958
 4838TIP3    H238710   0.784   2.024   1.470 -0.2589 -0.1324  0.6997
 4839TIP3   OH238711   6.962   4.039   8.817  0.2269 -0.1432 -0.1492
 4839TIP3    H138712   6.930   3.999   8.736 -0.8960 -0.5688  0.4884
 4839TIP3    H238713   7.026   3.976   8.851 -0.1308 -0.5015 -0.1310
 4840TIP3   OH238714   3.630   2.193   1.989  0.5010 -0.0952 -0.0424
 4840TIP3    H138715   3.661   2.171   2.077  2.2601 -1.9126 -1.0426
 4840TIP3    H238716   3.534   2.196   1.997  0.6508  0.3549  2.0357
 4841TIP3   OH238717   1.394   4.637   9.787 -0.4296  0.2836  0.2051
 4841TIP3    H138718   1.376   4.589   9.869 -1.8284  1.9827  0.9583
 4841TIP3    H238719   1.457   4.704   9.812 -0.4078  0.4329 -0.2484
 4842TIP3   OH238720   3.807   6.661   1.944  0.2973 -0.5642 -0.4786
 4842TIP3    H138721   3.738   6.604   1.911  1.0943 -0.0898 -3.3055
 4842TIP3    H238722   3.871   6.602   1.983  0.9183 -1.6802 -2.9905
 4843TIP3   OH238723   3.051   0.839   7.944 -0.7524  0.0910 -0.0945
 4843TIP3    H138724   3.084   0.765   7.995  0.0148  1.1727  1.0434
 4843TIP3    H238725   2.967   0.859   7.984 -2.0536 -1.5398 -1.8540
 4844TIP3   OH238726   3.597   2.948   0.665 -0.5902  0.0643  0.2123
 4844TIP3    H138727   3.631   2.864   0.696  0.1796  0.1980 -0.2523
 4844TIP3    H238728   3.501   2.938   0.667 -0.4959 -1.0421 -0.4617
 4845TIP3   OH238729   2.048   2.878   8.896 -0.2133  0.0095  0.4526
 4845TIP3    H138730   2.106   2.953   8.883 -0.5542  0.0671 -0.9342
 4845TIP3    H238731   2.027   2.879   8.989  0.5731  1.0549  0.6328
 4846TIP3   OH238732   0.342   6.674   9.279  0.0558  0.3275 -0.2438
 4846TIP3    H138733   0.396   6.595   9.269  0.8814  0.7796  0.5015
 4846TIP3    H238734   0.352   6.721   9.196 -0.2887 -0.2430 -0.6189
 4847TIP3   OH238735   7.075   1.739   0.238 -0.0860  0.3450  0.3019
 4847TIP3    H138736   7.003   1.692   0.196  0.4480 -0.6095  0.4293
 4847TIP3    H238737   7.071   1.827   0.202 -1.2828  0.2864  0.2658
 4848TIP3   OH238738   2.057   6.032   1.537  0.0277 -0.5792  0.0267
 4848TIP3    H138739   2.107   5.962   1.578  0.3627 -0.2684  0.1537
 4848TIP3    H238740   2.101   6.113   1.564 -1.8535 -0.1241  2.0453
 4849TIP3   OH238741   2.632   7.246   9.646 -0.3914 -0.4039 -0.4110
 4849TIP3    H138742   2.601   7.231   9.736 -1.3131  2.0219 -0.2669
 4849TIP3    H238743   2.712   7.193   9.640  0.4471  0.3724  2.3024
 4850TIP3   OH238744   7.590   5.167   9.852 -0.6071  0.2010  0.0701
 4850TIP3    H138745   7.510   5.190   9.899 -0.6765 -0.1538  0.1332
 4850TIP3    H238746   7.561   5.105   9.785 -0.4154  0.2244 -0.0350
 4851TIP3   OH238747   5.863   6.841   9.952 -0.0620  0.3998 -0.3314
 4851TIP3    H138748   5.827   6.870   9.868 -0.5631 -1.4665 -0.8016
 4851TIP3    H238749   5.788   6.839  10.011  0.4740  2.8255  0.5606
 4852TIP3   OH238750   6.878   4.016   7.514 -0.5710 -0.6124  0.1151
 4852TIP3    H138751   6.927   4.098   7.514 -1.4015 -0.1017 -0.3508
 4852TIP3    H238752   6.891   3.980   7.427  1.2665 -1.9106  0.8635
 4853TIP3   OH238753   5.823   2.354   7.849 -0.6092 -0.0733 -0.0689
 4853TIP3    H138754   5.738   2.314   7.869 -1.3943  1.1964 -0.8256
 4853TIP3    H238755   5.811   2.447   7.865  0.2299  0.3172 -1.5129
 4854TIP3   OH238756   5.162   2.400   0.841  0.2286 -0.5718  0.1911
 4854TIP3    H138757   5.197   2.489   0.847 -0.5319 -0.1938 -0.8216
 4854TIP3    H238758   5.237   2.343   0.861  0.9197  0.2666  0.0141
 4855TIP3   OH238759   5.146   3.040   0.813 -0.1411 -0.0090  0.1867
 4855TIP3    H138760   5.122   3.054   0.905 -0.5213 -0.2874  0.1308
 4855TIP3    H238761   5.065   3.054   0.765 -0.0935 -0.5462 -0.0460
 4856TIP3   OH238762   0.777   3.110   0.227  0.0641 -0.1768 -0.5427
 4856TIP3    H138763   0.706   3.059   0.189 -0.5310 -0.9143  1.4103
 4856TIP3    H238764   0.738   3.195   0.246  0.0792 -0.1390 -0.6825
 4857TIP3   OH238765   2.436   3.699   8.042  0.8531  0.0514 -0.6905
 4857TIP3    H138766   2.396   3.727   7.960  0.5412  0.7440 -0.3161
 4857TIP3    H238767   2.487   3.621   8.019  0.6621  0.1577 -1.5097
 4858TIP3   OH238768   5.386   5.325   2.240 -0.2357 -0.0697  0.0136
 4858TIP3    H138769   5.444   5.397   2.266  0.8798 -1.2934  1.0561
 4858TIP3    H238770   5.410   5.253   2.298 -2.8107 -0.6485  0.4736
 4859TIP3   OH238771   7.452   3.845   8.104 -0.3589  0.0886  0.3782
 4859TIP3    H138772   7.458   3.846   8.009 -0.4467 -1.2230  0.3456
 4859TIP3    H238773   7.368   3.803   8.123 -0.2054  0.0593  1.0382
 4860TIP3   OH238774   3.205   1.544   7.151  0.3940  0.1133  0.5009
 4860TIP3    H138775   3.298   1.520   7.161  0.3254 -0.8935 -0.9780
 4860TIP3    H238776   3.159   1.487   7.212  0.6289 -0.4933  0.1238
 4861TIP3   OH238777   1.141   6.879   1.292  0.6182  0.0379  0.4886
 4861TIP3    H138778   1.077   6.813   1.322 -0.1273  1.3065  1.8629
 4861TIP3    H238779   1.222   6.856   1.338  0.2603  0.2584  1.2578
 4862TIP3   OH238780   6.063   6.297   0.184  0.3808 -0.6109 -0.0009
 4862TIP3    H138781   5.994   6.232   0.167  0.5479 -0.7906 -0.0007
 4862TIP3    H238782   6.032   6.346   0.260 -0.0636 -0.2372 -0.4206
 4863TIP3   OH238783   1.436   1.522   7.968  0.4906 -0.1071 -0.0896
 4863TIP3    H138784   1.393   1.436   7.969  0.0293  0.0918 -1.1254
 4863TIP3    H238785   1.447   1.542   7.875  1.0045  0.7575  0.1467
 4864TIP3   OH238786   4.134   4.009   1.622  0.0565  0.1587 -0.0484
 4864TIP3    H138787   4.132   3.930   1.675  0.5282  1.2350  1.6448
 4864TIP3    H238788   4.050   4.010   1.576  0.0703 -1.3296 -0.1313
 4865TIP3   OH238789   3.243   7.428   0.886  0.0306  0.1013 -0.0821
 4865TIP3    H138790   3.236   7.339   0.920  2.7906 -0.3309 -0.3838
 4865TIP3    H238791   3.240   7.418   0.791  0.2916  0.3219 -0.1159
 4866TIP3   OH238792   4.892   0.009   1.731 -0.0858  0.1882 -0.2992
 4866TIP3    H138793   4.978  -0.032   1.721 -0.4259 -0.1790 -2.2151
 4866TIP3    H238794   4.844  -0.018   1.653 -2.4848 -0.8313  1.4190
 4867TIP3   OH238795   3.818   6.172   0.811  0.1137 -0.8485 -0.6278
 4867TIP3    H138796   3.833   6.262   0.841  0.0706 -1.4944  1.4934
 4867TIP3    H238797   3.904   6.142   0.782  0.8367 -1.0828  1.5711
 4868TIP3   OH238798   4.134   3.832   2.591 -0.0883 -0.5812 -0.0253
 4868TIP3    H138799   4.224   3.866   2.588 -0.3038  0.0173  0.1038
 4868TIP3    H238800   4.144   3.737   2.585  0.4453 -0.4424 -1.9551
 4869TIP3   OH238801   0.339   5.865   8.386 -0.1718 -0.5134  0.3137
 4869TIP3    H138802   0.253   5.874   8.346 -0.1502 -0.2397  0.3322
 4869TIP3    H238803   0.333   5.784   8.437 -0.4190 -0.4852  0.3280
 4870TIP3   OH238804   5.278   5.591   2.700 -0.3264 -0.2725 -0.1037
 4870TIP3    H138805   5.333   5.535   2.755 -0.5246  0.7116  1.1194
 4870TIP3    H238806   5.290   5.679   2.734 -2.4768  0.0136  0.0490
 4871TIP3   OH238807   3.306   1.846   9.347 -0.8299  0.4766  0.2648
 4871TIP3    H138808   3.312   1.851   9.443 -0.2609 -0.7254  0.3107
 4871TIP3    H238809   3.303   1.938   9.319  2.2152  0.9910  1.2494
 4872TIP3   OH238810   7.571   1.612   8.577  0.3223  0.8998 -0.7875
 4872TIP3    H138811   7.594   1.549   8.645 -2.8273  1.8766  1.3782
 4872TIP3    H238812   7.620   1.691   8.600  0.4235  0.7712 -0.5599
 4873TIP3   OH238813   2.021   1.511   7.795  0.0461 -0.2020 -0.4065
 4873TIP3    H138814   1.991   1.529   7.884 -0.5414  0.4223 -0.7230
 4873TIP3    H238815   2.114   1.535   7.796 -0.2160  0.8451 -0.2435
 4874TIP3   OH238816   6.229   7.565   1.935  0.0187  0.3242 -0.1414
 4874TIP3    H138817   6.171   7.578   1.860 -0.5422  1.1689  0.4176
 4874TIP3    H238818   6.239   7.653   1.972  0.9682  0.0474  0.2773
 4875TIP3   OH238819   3.653   6.114   9.623 -0.4618  0.0992  0.1480
 4875TIP3    H138820   3.632   6.171   9.549  0.3756 -0.1332 -0.2792
 4875TIP3    H238821   3.606   6.032   9.605  0.3254 -0.2183 -0.5139
 4876TIP3   OH238822   6.187   6.770   8.343  0.7403  0.1618  0.1450
 4876TIP3    H138823   6.261   6.745   8.399 -0.0260 -0.7133  0.7967
 4876TIP3    H238824   6.136   6.830   8.398  0.0532 -0.5999  0.3463
 4877TIP3   OH238825   1.494   5.746   0.891 -0.2197  0.2937  0.4251
 4877TIP3    H138826   1.498   5.842   0.894 -0.3943  0.2782  1.7612
 4877TIP3    H238827   1.456   5.721   0.975 -1.2924 -0.9089 -0.3758
 4878TIP3   OH238828   2.873   3.774   7.165  0.8800  0.2793 -0.1134
 4878TIP3    H138829   2.935   3.701   7.163  0.3615 -0.1978  0.6423
 4878TIP3    H238830   2.880   3.810   7.254 -1.9801 -1.6522  1.0401
 4879TIP3   OH238831   7.544   2.477   8.369  0.0958 -0.5203 -0.2772
 4879TIP3    H138832   7.634   2.494   8.339  0.5883  1.9626  2.1740
 4879TIP3    H238833   7.555   2.449   8.460 -1.6080 -1.2472 -0.2720
 4880TIP3   OH238834   3.845   6.353   1.476 -0.1673  0.4122  0.1024
 4880TIP3    H138835   3.861   6.419   1.543 -0.9707  1.9288 -1.1481
 4880TIP3    H238836   3.921   6.357   1.419 -0.2233  0.2654  0.0149
 4881TIP3   OH238837   0.865   6.145   8.227  0.3675  0.5294  0.0424
 4881TIP3    H138838   0.811   6.148   8.148  0.5190 -0.7582 -0.1253
 4881TIP3    H238839   0.803   6.157   8.299  0.2650  1.9816 -0.2606
 4882TIP3   OH238840   1.171   7.096   1.638  0.1563 -0.0769 -0.4515
 4882TIP3    H138841   1.128   7.178   1.662 -1.1910 -0.9882  0.3522
 4882TIP3    H238842   1.132   7.031   1.696  1.8736 -1.1430 -0.4273
 4883TIP3   OH238843   7.486   6.071   8.097  0.0461 -0.1137 -0.0671
 4883TIP3    H138844   7.537   6.145   8.132 -0.4967  0.7125 -0.9879
 4883TIP3    H238845   7.515   6.063   8.007 -0.3429 -0.6405 -0.1480
 4884TIP3   OH238846   4.413   2.951   9.727  0.0529 -0.0512  0.1593
 4884TIP3    H138847   4.338   2.963   9.668  0.3997 -0.0858 -0.2930
 4884TIP3    H238848   4.374   2.916   9.808 -0.4541  0.2073  0.0338
 4885TIP3   OH238849   5.647   0.457   1.022 -0.1745 -0.1031 -0.6694
 4885TIP3    H138850   5.660   0.533   1.079 -1.4868  0.2967 -0.8520
 4885TIP3    H238851   5.680   0.484   0.937 -0.7581  0.3197 -0.7654
 4886TIP3   OH238852   6.051   0.502   9.024 -0.2580 -0.2839  0.0158
 4886TIP3    H138853   5.986   0.502   8.954  0.0698  1.1995 -0.3302
 4886TIP3    H238854   6.123   0.448   8.991 -1.1049 -1.5591  0.2184
 4887TIP3   OH238855   6.998   2.448   0.408  0.0284  0.0692 -0.0555
 4887TIP3    H138856   6.947   2.527   0.424  1.2595  1.0508 -0.8734
 4887TIP3    H238857   6.995   2.401   0.491 -0.3296  1.1879  0.5871
 4888TIP3   OH238858   5.172   3.945   0.569  0.0900 -0.6764 -0.2183
 4888TIP3    H138859   5.098   3.889   0.545 -0.4541 -0.3046  0.5681
 4888TIP3    H238860   5.199   3.914   0.655  1.3236 -1.2716 -0.7848
 4889TIP3   OH238861   3.115   2.483   0.814 -0.3096  0.1207  0.3985
 4889TIP3    H138862   3.076   2.533   0.886  1.6540  1.6889  0.4417
 4889TIP3    H238863   3.093   2.533   0.736 -0.2241 -0.1607  0.1940
 4890TIP3   OH238864   2.269   0.577   8.562 -0.0207  0.6122 -0.5119
 4890TIP3    H138865   2.233   0.569   8.650 -1.0134 -1.5086 -1.0502
 4890TIP3    H238866   2.193   0.578   8.504  0.6698 -0.0784 -1.4680
 4891TIP3   OH238867   0.474   0.299   7.535  0.2363  0.4268  0.7203
 4891TIP3    H138868   0.436   0.215   7.509  1.9353 -0.5352  1.2245
 4891TIP3    H238869   0.518   0.330   7.456  0.3000  0.4504  0.7656
 4892TIP3   OH238870   1.871   5.395   9.435 -0.0088  0.0927 -0.0638
 4892TIP3    H138871   1.899   5.451   9.507  1.6898 -1.1987  0.3654
 4892TIP3    H238872   1.898   5.442   9.356 -0.5065  0.8224  0.1921
 4893TIP3   OH238873   5.593   0.046   7.500 -0.1544 -0.2367 -0.0586
 4893TIP3    H138874   5.631   0.113   7.443  1.1176 -1.0142 -0.1465
 4893TIP3    H238875   5.600   0.083   7.588 -0.3662  0.1517 -0.1986
 4894TIP3   OH238876   1.987   0.190   7.536 -0.0884 -0.6370  0.2797
 4894TIP3    H138877   2.029   0.216   7.454  1.4222 -0.1106  1.1731
 4894TIP3    H238878   1.962   0.273   7.577  0.2538 -0.8335  0.8969
 4895TIP3   OH238879   2.903   5.716   1.056 -0.2417 -0.0240  0.8346
 4895TIP3    H138880   2.944   5.759   1.132 -1.4233  0.6664  1.1158
 4895TIP3    H238881   2.809   5.732   1.068 -0.4913 -0.4103 -0.4748
 4896TIP3   OH238882   4.476   0.908   2.261  0.0532 -0.0105 -0.1943
 4896TIP3    H138883   4.521   0.903   2.345 -0.0400  0.7091 -0.0922
 4896TIP3    H238884   4.498   0.995   2.228  0.7134 -0.5544 -1.2718
 4897TIP3   OH238885   6.852   5.379   9.616 -0.3445  0.3549 -0.6740
 4897TIP3    H138886   6.812   5.416   9.537 -2.3741  1.0111  0.5862
 4897TIP3    H238887   6.781   5.330   9.658  0.4232  0.7787  1.2294
 4898TIP3   OH238888   4.037   0.042   2.245 -0.0707 -0.0879 -0.6548
 4898TIP3    H138889   3.944   0.036   2.266  0.3086  0.9103  1.6673
 4898TIP3    H238890   4.081  -0.012   2.311  1.0441  0.2369 -1.0953
 4899TIP3   OH238891   5.909   4.242   8.650  0.5545  0.6746 -0.0800
 4899TIP3    H138892   5.880   4.307   8.586  1.6729  1.0404 -0.2295
 4899TIP3    H238893   6.003   4.234   8.635  0.3321 -1.5997 -0.6429
 4900TIP3   OH238894   4.778   0.412   1.471  0.2471  0.0325  0.0256
 4900TIP3    H138895   4.821   0.384   1.390  1.5271 -1.4106  1.1375
 4900TIP3    H238896   4.850   0.435   1.529 -0.6013  0.0502  1.1003
 4901TIP3   OH238897   4.742   4.256   0.901  0.3070  0.3736 -0.6129
 4901TIP3    H138898   4.770   4.165   0.890 -1.6423 -0.4751  0.8492
 4901TIP3    H238899   4.654   4.250   0.937  0.4382  2.8494  0.3295
 4902TIP3   OH238900   2.152   3.431   7.689  0.0758  0.2657  0.0828
 4902TIP3    H138901   2.156   3.443   7.594  0.2159 -0.8535 -0.0571
 4902TIP3    H238902   2.174   3.339   7.703  2.8738  1.0278  1.3977
 4903TIP3   OH238903   6.639   4.106   7.603 -0.2193 -0.4313 -0.2165
 4903TIP3    H138904   6.730   4.110   7.573 -0.4081 -0.0509 -0.7492
 4903TIP3    H238905   6.588   4.088   7.524 -0.5375 -1.5001  0.2116
 4904TIP3   OH238906   5.729   3.598   1.697 -0.0894 -0.0925  0.4945
 4904TIP3    H138907   5.734   3.639   1.611 -0.4703 -0.9355  0.0470
 4904TIP3    H238908   5.723   3.504   1.678 -0.5065 -0.2701  1.4230
 4905TIP3   OH238909   5.537   3.283   8.761  0.1945 -0.4472  0.3659
 4905TIP3    H138910   5.497   3.358   8.804 -0.3900 -0.1564 -0.6408
 4905TIP3    H238911   5.494   3.207   8.800 -1.8324 -0.1287 -1.0733
 4906TIP3   OH238912   5.481   0.785   1.565  0.3031 -0.2699 -0.0098
 4906TIP3    H138913   5.472   0.691   1.579  2.5122 -0.6220 -0.5088
 4906TIP3    H238914   5.527   0.817   1.643  0.0815  0.3013 -0.1057
 4907TIP3   OH238915   0.688   0.628   7.580 -0.2476  0.5089  0.5440
 4907TIP3    H138916   0.713   0.715   7.549  2.5846 -0.0160  1.1004
 4907TIP3    H238917   0.694   0.572   7.502 -1.2919  0.6284  0.3583
 4908TIP3   OH238918   3.566   0.830   6.969  0.8561  0.0498 -0.4151
 4908TIP3    H138919   3.641   0.859   6.917  0.0541  1.6651 -0.7261
 4908TIP3    H238920   3.577   0.875   7.053  0.3717  0.1218 -0.3855
 4909TIP3   OH238921   4.405   2.366   7.748  0.1398 -0.0637  0.0136
 4909TIP3    H138922   4.392   2.277   7.779 -1.0725  0.0256 -0.2078
 4909TIP3    H238923   4.482   2.360   7.692 -1.1056 -1.4105 -1.6629
 4910TIP3   OH238924   3.251   5.139   7.315  0.2921  0.0078  0.1251
 4910TIP3    H138925   3.309   5.113   7.386  1.3163 -0.4527 -0.8563
 4910TIP3    H238926   3.309   5.177   7.249 -0.7989  1.8470  0.1427
 4911TIP3   OH238927   4.499   2.420   9.861 -0.7261 -0.4512 -0.3550
 4911TIP3    H138928   4.487   2.386   9.772 -0.1265  0.9020 -0.9769
 4911TIP3    H238929   4.574   2.479   9.854  0.6041 -1.8021  1.4725
 4912TIP3   OH238930   3.930   4.438   0.323 -0.4779 -0.1842 -0.9412
 4912TIP3    H138931   3.841   4.418   0.352 -0.1941  1.0266  0.9147
 4912TIP3    H238932   3.937   4.533   0.330  1.2476 -0.3317 -0.0830
 4913TIP3   OH238933   2.652   0.658   1.886 -0.3578  0.2530 -0.4637
 4913TIP3    H138934   2.746   0.641   1.892 -0.1367  1.5523  0.0607
 4913TIP3    H238935   2.634   0.718   1.958 -1.4000  0.8421 -1.1987
 4914TIP3   OH238936   6.498   7.233   0.529  0.7973 -0.6710 -0.3503
 4914TIP3    H138937   6.548   7.311   0.551  1.1467 -1.2656  1.0866
 4914TIP3    H238938   6.541   7.162   0.576 -0.4934 -1.4516 -0.2750
 4915TIP3   OH238939   5.305   3.722   8.367  0.1914  0.1187  0.4184
 4915TIP3    H138940   5.243   3.795   8.367 -0.8418 -0.7281 -0.7545
 4915TIP3    H238941   5.354   3.733   8.286  0.3235 -0.2610  0.4491
 4916TIP3   OH238942   1.024   4.140   1.453  0.4413 -0.5634  0.3052
 4916TIP3    H138943   1.038   4.204   1.523  0.9041 -1.5365  1.1175
 4916TIP3    H238944   1.107   4.093   1.446  0.4437 -0.3967 -0.9993
 4917TIP3   OH238945   1.239   4.781   1.530  0.0689 -0.4182 -0.1965
 4917TIP3    H138946   1.201   4.844   1.469  1.4270  1.2022  0.5380
 4917TIP3    H238947   1.244   4.828   1.613  2.4682 -0.9310  0.0408
 4918TIP3   OH238948   1.542   4.330   1.213  0.1242 -0.1301 -0.1828
 4918TIP3    H138949   1.574   4.244   1.185  2.0731  0.4370  0.1301
 4918TIP3    H238950   1.612   4.364   1.269 -0.4304  1.8170 -0.6097
 4919TIP3   OH238951   4.868   3.983   8.577  0.0615 -0.3529  0.2660
 4919TIP3    H138952   4.794   3.957   8.632 -0.3898  0.9301  0.3084
 4919TIP3    H238953   4.889   4.072   8.606  0.7233 -0.1745 -0.6983
 4920TIP3   OH238954   5.137   5.622   7.702 -0.1057  0.6706  0.2128
 4920TIP3    H138955   5.075   5.647   7.634 -1.3719  0.4989  1.2583
 4920TIP3    H238956   5.087   5.564   7.759  1.8516 -1.8563 -0.4615
 4921TIP3   OH238957   3.405   4.261   8.557 -0.1823 -0.1317  0.1830
 4921TIP3    H138958   3.380   4.228   8.643  1.0249 -1.0556  0.1999
 4921TIP3    H238959   3.338   4.227   8.497  0.6291 -2.0874  0.3106
 4922TIP3   OH238960   6.110   5.303   8.485 -0.2763 -0.0147 -0.2250
 4922TIP3    H138961   6.180   5.330   8.425  0.8674 -1.4269  0.4068
 4922TIP3    H238962   6.092   5.212   8.462 -1.4449  0.1272  0.0718
 4923TIP3   OH238963   7.086   1.913   7.763  0.5222  0.2901  0.4873
 4923TIP3    H138964   7.050   1.975   7.827  1.1691  0.1071  1.0326
 4923TIP3    H238965   7.057   1.827   7.794 -0.3177  0.3041 -0.2313
 4924TIP3   OH238966   4.321   3.132   0.395  0.3617 -0.1549  0.8723
 4924TIP3    H138967   4.248   3.170   0.443  0.0426  0.4700 -0.0922
 4924TIP3    H238968   4.319   3.039   0.419  0.3146  0.1619  2.1805
 4925TIP3   OH238969   0.041   6.058   9.062  0.0179  0.4890 -0.1219
 4925TIP3    H138970  -0.015   5.984   9.086  0.1506  0.4502  0.0750
 4925TIP3    H238971   0.021   6.125   9.128  2.2497 -0.5191  1.7241
 4926TIP3   OH238972   4.081   5.628   1.525  0.1232  0.4578 -0.0745
 4926TIP3    H138973   4.111   5.689   1.457 -0.7797  2.9460  1.6311
 4926TIP3    H238974   3.992   5.656   1.545  0.0060 -0.8576  1.4378
 4927TIP3   OH238975   7.447   3.266   0.921  0.3524  0.4141 -0.0606
 4927TIP3    H138976   7.383   3.261   0.992 -0.8406  0.6621 -1.1026
 4927TIP3    H238977   7.436   3.353   0.883  1.3148  0.4640 -0.2683
 4928TIP3   OH238978   5.889   4.572   7.952  0.6674 -0.2437 -0.0496
 4928TIP3    H138979   5.846   4.498   7.910  1.4545 -0.4097 -0.5854
 4928TIP3    H238980   5.945   4.609   7.883  0.3507  0.7923  0.2385
 4929TIP3   OH238981   6.877   0.719   7.921  0.1300 -0.1503 -0.2168
 4929TIP3    H138982   6.863   0.663   7.845 -0.9877 -0.6979  0.3798
 4929TIP3    H238983   6.797   0.770   7.929  0.5873  0.5429  0.0758
 4930TIP3   OH238984   4.596   6.673   1.635 -0.5363 -0.4956 -0.1942
 4930TIP3    H138985   4.611   6.752   1.687 -1.6435 -1.1501  1.1757
 4930TIP3    H238986   4.681   6.629   1.634 -0.2552  0.0206  0.2159
 4931TIP3   OH238987   1.355   5.207   7.584  0.1329  0.2991 -0.5010
 4931TIP3    H138988   1.317   5.272   7.524 -0.3386  0.1371 -0.3720
 4931TIP3    H238989   1.430   5.172   7.535 -0.9079 -0.6480 -1.4627
 4932TIP3   OH238990   6.923   2.128   8.452  0.4156 -0.2941 -0.7587
 4932TIP3    H138991   6.885   2.120   8.365 -1.2467  1.3962 -0.2590
 4932TIP3    H238992   7.018   2.134   8.437  0.5681 -3.7302 -2.1121
 4933TIP3   OH238993   5.107   1.094   8.447 -0.7344 -0.1934 -0.0058
 4933TIP3    H138994   5.156   1.024   8.404  0.1790 -1.0121  2.2421
 4933TIP3    H238995   5.170   1.165   8.457 -1.1896  0.3350 -0.7320
 4934TIP3   OH238996   2.732   1.616   0.263 -0.0998  0.1323 -0.4072
 4934TIP3    H138997   2.757   1.553   0.330  0.0394 -0.7741 -1.2890
 4934TIP3    H238998   2.647   1.586   0.233 -1.6131  2.2521  1.4142
 4935TIP3   OH238999   5.875   0.234   2.116 -0.7639 -0.5113  0.1105
 4935TIP3    H139000   5.861   0.148   2.154  0.3096 -0.4171  0.7608
 4935TIP3    H239001   5.949   0.271   2.165 -0.6960  0.4618 -0.6741
 4936TIP3   OH239002   3.279   3.389   7.897 -0.3733  0.0151 -0.0623
 4936TIP3    H139003   3.187   3.372   7.875 -0.0666 -1.8997 -0.0105
 4936TIP3    H239004   3.319   3.414   7.814 -0.9906  1.1951 -0.0239
 4937TIP3   OH239005   5.772   7.310   8.479  0.1364 -0.0967  0.1536
 4937TIP3    H139006   5.729   7.377   8.531 -0.7143  0.3664 -1.0970
 4937TIP3    H239007   5.865   7.327   8.489 -0.0246  0.2665  1.1209
 4938TIP3   OH239008   4.001   5.123   8.730  0.1355  0.0890 -0.0187
 4938TIP3    H139009   4.018   5.081   8.645 -1.3206  0.7429 -0.6596
 4938TIP3    H239010   3.984   5.050   8.789 -2.5598 -0.3088 -1.1679
 4939TIP3   OH239011   4.970   0.375   8.305  0.6866  0.2924 -0.1502
 4939TIP3    H139012   5.044   0.338   8.353  0.0763 -1.5946 -0.6039
 4939TIP3    H239013   5.002   0.383   8.215  0.8441  1.0046 -0.0399
 4940TIP3   OH239014   1.972   6.168   8.668  0.7786 -0.5574  0.1885
 4940TIP3    H139015   1.966   6.259   8.699  0.7385 -0.7183  0.6630
 4940TIP3    H239016   2.057   6.138   8.701  1.2080 -0.4014 -0.7601
 4941TIP3   OH239017   5.501   6.859   1.168 -0.6026  0.7051  0.7518
 4941TIP3    H139018   5.445   6.838   1.243 -0.8334  0.0726  0.4170
 4941TIP3    H239019   5.464   6.940   1.132 -1.8778 -0.1561  0.0184
 4942TIP3   OH239020   2.615   2.485   0.405  0.2395 -0.5486  0.0978
 4942TIP3    H139021   2.601   2.394   0.377  2.1554 -1.2126  1.1469
 4942TIP3    H239022   2.703   2.506   0.374 -0.7367  1.5568 -1.5362
 4943TIP3   OH239023   4.114   7.367   0.724  0.2514  0.2562 -0.0815
 4943TIP3    H139024   4.104   7.360   0.629  0.6150  0.4810 -0.1395
 4943TIP3    H239025   4.196   7.320   0.743 -0.3394 -0.6544  0.2482
 4944TIP3   OH239026   7.229   3.505   1.930 -0.4631  0.4118 -0.0125
 4944TIP3    H139027   7.196   3.459   1.853 -0.0353  2.0195 -1.2179
 4944TIP3    H239028   7.322   3.484   1.932 -0.6079 -0.2044  0.5079
 4945TIP3   OH239029   1.516   0.834   1.220  0.2021 -0.2809 -0.2596
 4945TIP3    H139030   1.497   0.926   1.239  1.4259  0.0501 -0.5530
 4945TIP3    H239031   1.430   0.791   1.222 -0.3198  0.7426  0.5021
 4946TIP3   OH239032   7.060   2.219   8.967  0.3936 -0.5403 -0.9141
 4946TIP3    H139033   7.151   2.207   8.942  0.2780 -0.6901 -1.2709
 4946TIP3    H239034   7.038   2.308   8.938  0.1025 -0.9036 -1.8660
 4947TIP3   OH239035   6.905   0.652   1.824  0.1200 -0.1870  0.2843
 4947TIP3    H139036   6.853   0.713   1.772 -1.1381 -0.8219  0.7534
 4947TIP3    H239037   6.899   0.569   1.778  0.8799 -0.2386  0.2552
 4948TIP3   OH239038   2.133   5.793   9.472 -0.5517  0.5390  0.1177
 4948TIP3    H139039   2.157   5.885   9.461 -1.3268  0.4697 -3.1123
 4948TIP3    H239040   2.179   5.748   9.401  0.7907 -1.8421  2.3278
 4949TIP3   OH239041   1.927   4.575   0.298 -0.0877 -0.1698 -0.1126
 4949TIP3    H139042   1.909   4.651   0.354 -0.5154 -0.0133 -0.4590
 4949TIP3    H239043   1.844   4.557   0.255  0.3667  0.0334 -1.1007
 4950TIP3   OH239044   5.168   1.955   9.059 -0.0992 -0.0572 -0.1161
 4950TIP3    H139045   5.218   1.877   9.034 -0.2116  0.0652 -0.7475
 4950TIP3    H239046   5.091   1.953   9.001 -1.4114 -0.8435  1.5649
 4951TIP3   OH239047   6.111   2.236   0.936 -0.4387  0.4835 -0.0751
 4951TIP3    H139048   6.040   2.288   0.973  0.4873 -0.2972  3.1184
 4951TIP3    H239049   6.169   2.300   0.894 -1.4375  1.4960  0.0561
 4952TIP3   OH239050   3.056   1.095   1.092 -0.1649 -0.4048  0.1837
 4952TIP3    H139051   3.109   1.040   1.035  0.6583 -0.1727  0.7103
 4952TIP3    H239052   2.982   1.122   1.037  0.1680 -0.8680 -0.5073
 4953TIP3   OH239053   5.737   6.743   8.638 -0.0585 -0.0992  0.2594
 4953TIP3    H139054   5.772   6.721   8.724  0.2108  1.6471  0.6261
 4953TIP3    H239055   5.718   6.837   8.642 -0.3013 -0.0279 -1.4950
 4954TIP3   OH239056   0.056   4.088   0.659 -0.6874 -0.0005  0.0019
 4954TIP3    H139057   0.038   4.124   0.572 -2.7286  1.1580  0.8491
 4954TIP3    H239058  -0.024   4.043   0.684  0.6077 -2.2390  0.4649
 4955TIP3   OH239059   3.100   3.956   9.076 -0.2451  0.8119  0.2591
 4955TIP3    H139060   3.114   3.904   8.997 -2.2127  2.8123 -1.5845
 4955TIP3    H239061   3.174   4.017   9.078 -1.5034  2.5660 -1.7537
 4956TIP3   OH239062   3.865   0.230   7.240 -0.4105  0.2276 -0.1734
 4956TIP3    H139063   3.817   0.311   7.223 -0.3649  0.1840 -0.5204
 4956TIP3    H239064   3.872   0.226   7.335  1.8562  1.9978 -0.1514
 4957TIP3   OH239065   6.147   1.205   1.209  0.1192 -0.1379  0.2716
 4957TIP3    H139066   6.060   1.177   1.236  0.1425 -0.4427  0.0322
 4957TIP3    H239067   6.184   1.246   1.288 -1.0595  2.0436 -0.2400
 4958TIP3   OH239068   3.446   2.220   9.398 -0.1427 -0.0734 -0.2506
 4958TIP3    H139069   3.405   2.180   9.322 -1.4679  1.6613 -0.5059
 4958TIP3    H239070   3.483   2.147   9.447  0.1271 -1.2917 -2.1844
 4959TIP3   OH239071   6.706   2.373   0.348  0.3900 -0.2269  0.0578
 4959TIP3    H139072   6.717   2.407   0.436 -0.5063 -1.2853  0.6064
 4959TIP3    H239073   6.698   2.450   0.293 -0.1361  0.4433  1.0545
 4960TIP3   OH239074   2.218   7.210   7.517 -0.2888  0.8045  0.1454
 4960TIP3    H139075   2.204   7.194   7.610  0.8653 -1.0966  0.0486
 4960TIP3    H239076   2.142   7.171   7.474 -0.7647  1.5786  0.2841
 4961TIP3   OH239077   3.858   1.229   1.927 -0.2796  0.0652 -0.2346
 4961TIP3    H139078   3.822   1.307   1.886 -0.4631  0.6371  0.9555
 4961TIP3    H239079   3.953   1.244   1.930 -0.4488  1.0977  1.5822
 4962TIP3   OH239080   1.870   7.076   9.576  0.3600  0.2616 -0.4900
 4962TIP3    H139081   1.813   7.000   9.590 -0.9446  1.3761  0.5744
 4962TIP3    H239082   1.942   7.063   9.637 -0.0446  0.0480 -0.0489
 4963TIP3   OH239083   5.971   0.114   8.964  0.1882 -0.3838  0.0124
 4963TIP3    H139084   5.940   0.048   8.903  1.7764 -0.3792 -0.8381
 4963TIP3    H239085   5.957   0.197   8.918  1.6599 -0.3996 -0.5039
 4964TIP3   OH239086   5.777   5.785   0.630 -0.5812 -0.0586 -0.6700
 4964TIP3    H139087   5.845   5.725   0.600  0.5948  1.2848 -0.7975
 4964TIP3    H239088   5.818   5.871   0.626 -2.0890  0.7175 -0.1053
 4965TIP3   OH239089   4.815   1.072   2.264 -0.5916  0.0949  0.0124
 4965TIP3    H139090   4.791   1.039   2.350  1.5437  0.2715  0.7346
 4965TIP3    H239091   4.733   1.108   2.228 -1.7085 -0.8014  1.5639
 4966TIP3   OH239092   4.341   6.220   9.113 -0.4547  0.1806  0.1475
 4966TIP3    H139093   4.430   6.195   9.136 -0.7643 -1.0571  0.1027
 4966TIP3    H239094   4.313   6.153   9.050 -1.4856  0.4138  0.3413
 4967TIP3   OH239095   0.765   6.954   8.020  0.0160 -0.4633  0.3121
 4967TIP3    H139096   0.780   7.046   8.042 -1.8490 -0.3179  1.1807
 4967TIP3    H239097   0.773   6.951   7.924 -2.3733  1.1711 -0.0200
 4968TIP3   OH239098   5.488   4.429   0.150  0.0308 -0.9546 -0.5515
 4968TIP3    H139099   5.530   4.448   0.234 -0.6589 -1.4726 -0.0754
 4968TIP3    H239100   5.559   4.434   0.086  0.1077  2.2084 -0.3600
 4969TIP3   OH239101   7.076   0.940   9.383  0.0750 -0.3641  1.1109
 4969TIP3    H139102   7.100   0.849   9.405  1.4505 -0.3801 -0.2993
 4969TIP3    H239103   7.096   0.989   9.463  0.9774 -1.0593  1.3362
 4970TIP3   OH239104   1.244   0.772   1.627 -0.4413 -0.0423 -0.0285
 4970TIP3    H139105   1.301   0.706   1.588 -0.4482 -0.4341  0.6134
 4970TIP3    H239106   1.295   0.853   1.624 -0.5478 -0.0067 -1.0910
 4971TIP3   OH239107   1.625   3.686   1.032  0.1862 -0.1680  0.8891
 4971TIP3    H139108   1.580   3.766   1.061 -1.8327 -0.8403 -0.1729
 4971TIP3    H239109   1.612   3.685   0.937  1.0236 -1.2874  0.7645
 4972TIP3   OH239110   3.668   7.633   0.786  0.0970 -0.2317  0.3642
 4972TIP3    H139111   3.701   7.565   0.845 -0.1949 -0.1464  0.6258
 4972TIP3    H239112   3.684   7.715   0.832  0.3041 -0.1322  0.1161
 4973TIP3   OH239113   0.186   2.437   7.629 -0.5508 -0.3966 -0.2980
 4973TIP3    H139114   0.114   2.487   7.668 -0.5265  0.4386 -1.2713
 4973TIP3    H239115   0.191   2.470   7.539 -0.6755 -2.3327 -1.0530
 4974TIP3   OH239116   2.239   0.819   7.531  0.0979 -0.4834  0.8635
 4974TIP3    H139117   2.250   0.735   7.487  2.9553  0.5311 -0.6823
 4974TIP3    H239118   2.313   0.824   7.591  1.1650  1.6228 -0.4787
 4975TIP3   OH239119   2.892   0.130   9.070 -0.5867 -0.3872 -0.2371
 4975TIP3    H139120   2.829   0.091   9.131 -1.9144 -0.0818 -1.3493
 4975TIP3    H239121   2.849   0.125   8.985  0.3548  1.0209 -0.8367
 4976TIP3   OH239122   1.064   4.499   9.226  0.8570  0.0942  0.5349
 4976TIP3    H139123   1.027   4.420   9.186  0.7159  0.1258  0.6007
 4976TIP3    H239124   1.152   4.506   9.188  0.0826  1.1457 -1.2238
 4977TIP3   OH239125   6.366   0.598   0.727  0.4540 -0.1076 -0.0403
 4977TIP3    H139126   6.317   0.558   0.654  0.7164  0.9374 -0.8080
 4977TIP3    H239127   6.325   0.683   0.739  0.9018  0.0267  0.5485
 4978TIP3   OH239128   0.069   6.522   8.729  0.3922 -0.1815 -0.0620
 4978TIP3    H139129   0.151   6.489   8.768 -0.2759  1.1002  2.6982
 4978TIP3    H239130   0.003   6.508   8.797 -1.3287  0.4512 -1.5288
 4979TIP3   OH239131   1.382   2.012   1.536 -0.0185  0.2352 -0.4608
 4979TIP3    H139132   1.361   1.951   1.607 -0.6461 -0.3068 -1.0947
 4979TIP3    H239133   1.452   1.969   1.487  1.7905  1.4681  0.9066
 4980TIP3   OH239134   1.081   3.332   9.096  0.4722 -0.1523  0.0485
 4980TIP3    H139135   0.992   3.365   9.091  0.5986  0.0605 -1.8252
 4980TIP3    H239136   1.110   3.350   9.185 -1.6766 -1.1549  1.0106
 4981TIP3   OH239137   6.833   3.723   8.799 -0.1479 -0.2395 -0.7382
 4981TIP3    H139138   6.915   3.703   8.845 -0.1884  1.6477  0.2456
 4981TIP3    H239139   6.860   3.774   8.723 -0.3435 -0.5048 -0.9878
 4982TIP3   OH239140   1.759   3.999   1.345  0.1328  0.4024 -0.3629
 4982TIP3    H139141   1.749   3.921   1.400 -0.6745  0.8877  0.2056
 4982TIP3    H239142   1.804   4.062   1.401  0.5733  0.4328 -0.7429
 4983TIP3   OH239143   3.694   5.016   0.204  0.6687  0.6324  0.6759
 4983TIP3    H139144   3.705   5.098   0.156 -0.5669  0.7807  0.6156
 4983TIP3    H239145   3.606   4.986   0.181  0.2722  0.3980  2.3693
 4984TIP3   OH239146   3.222   0.971   9.278  0.1074  0.1247 -0.0558
 4984TIP3    H139147   3.307   0.984   9.320  0.1332 -1.1608  0.3578
 4984TIP3    H239148   3.203   0.878   9.293 -1.1552  0.2895 -0.5459
 4985TIP3   OH239149   5.443   3.510   8.906  0.4443 -0.2523 -0.1819
 4985TIP3    H139150   5.468   3.469   8.989 -0.2990 -0.7544 -0.2055
 4985TIP3    H239151   5.497   3.589   8.902 -0.7129  0.7082  1.6157
 4986TIP3   OH239152   3.783   7.516   8.847 -0.0411 -0.2261  0.1969
 4986TIP3    H139153   3.725   7.582   8.808 -0.0852  0.6769  1.7239
 4986TIP3    H239154   3.725   7.465   8.905 -0.0303 -1.7146 -1.0335
 4987TIP3   OH239155   2.704   4.749   1.136 -0.6753  0.3378 -0.5378
 4987TIP3    H139156   2.671   4.660   1.122  0.1202 -0.0437 -0.0808
 4987TIP3    H239157   2.633   4.806   1.108 -0.9377 -0.4363 -1.4731
 4988TIP3   OH239158   2.360   1.368   7.858 -0.0894  0.0108 -0.2946
 4988TIP3    H139159   2.361   1.463   7.862 -1.3356 -0.0038  1.7779
 4988TIP3    H239160   2.381   1.347   7.766  1.7840  2.1855 -0.4498
 4989TIP3   OH239161   4.944   0.462   1.131  0.3714  0.5358 -0.0897
 4989TIP3    H139162   4.907   0.544   1.098 -1.8225  0.6068  2.2052
 4989TIP3    H239163   4.903   0.394   1.077  1.1215  0.8467 -1.0800
 4990TIP3   OH239164   2.273   2.439   0.264  0.1161  0.4484  0.1420
 4990TIP3    H139165   2.343   2.504   0.260  0.5614 -0.0743 -1.2745
 4990TIP3    H239166   2.299   2.371   0.202 -0.4292 -1.0090  1.4377
 4991TIP3   OH239167   4.147   5.452   2.497 -0.2736 -0.9820 -0.1766
 4991TIP3    H139168   4.169   5.422   2.585 -1.3982  2.1275  1.3276
 4991TIP3    H239169   4.205   5.526   2.481 -1.5021 -0.1631 -1.1235
 4992TIP3   OH239170   5.455   4.792   2.706 -0.4601 -0.0778  0.2455
 4992TIP3    H139171   5.469   4.867   2.648  2.7887 -1.1238 -0.5255
 4992TIP3    H239172   5.487   4.822   2.791 -1.8662  0.2656  0.6926
 4993TIP3   OH239173   6.435   5.892   8.208 -0.5041 -0.6166 -0.0550
 4993TIP3    H139174   6.504   5.903   8.142  0.2219 -0.2775  0.7381
 4993TIP3    H239175   6.480   5.906   8.292 -1.6781  0.3292  0.4436
 4994TIP3   OH239176   3.246   3.071   8.778  0.3162  0.1070 -0.0891
 4994TIP3    H139177   3.180   3.001   8.774  0.0664  0.1565  2.1221
 4994TIP3    H239178   3.326   3.030   8.748 -0.2808 -0.5174 -0.8780
 4995TIP3   OH239179   1.647   2.441   7.870 -0.0026  0.1607 -0.2522
 4995TIP3    H139180   1.653   2.533   7.846 -1.7051  0.5454  0.6655
 4995TIP3    H239181   1.690   2.436   7.955  0.9309 -0.1093 -0.7183
 4996TIP3   OH239182   0.650   0.734   8.896 -0.4417  0.0375 -0.3492
 4996TIP3    H139183   0.691   0.707   8.979 -0.3545 -0.7954 -0.6544
 4996TIP3    H239184   0.606   0.655   8.865  0.3675  0.0605 -1.6032
 4997TIP3   OH239185   0.494   4.912   9.066 -0.2836 -0.5112  0.2415
 4997TIP3    H139186   0.494   5.004   9.038 -1.6958 -0.1708  1.2313
 4997TIP3    H239187   0.561   4.908   9.134  0.4281 -0.4350 -0.4481
 4998TIP3   OH239188   2.611   1.184   1.955 -0.2463  0.4000 -0.0139
 4998TIP3    H139189   2.671   1.247   1.915  1.1432 -0.4155  0.7185
 4998TIP3    H239190   2.585   1.224   2.037  1.2947 -0.2715  0.8533
 4999TIP3   OH239191   1.191   5.241   2.558 -0.2001 -0.1763  0.5586
 4999TIP3    H139192   1.284   5.262   2.555 -0.5822  1.5739  0.2530
 4999TIP3    H239193   1.166   5.256   2.649 -0.3314  0.0122  0.4913
 5000TIP3   OH239194   7.250   0.341   2.244 -0.1208  0.3141  0.0920
 5000TIP3    H139195   7.211   0.270   2.193  1.2790 -0.3727 -0.0891
 5000TIP3    H239196   7.179   0.403   2.257 -1.7846 -1.7254  1.4393
 5001TIP3   OH239197   2.867   5.693   1.675  0.3127 -0.7206  0.3732
 5001TIP3    H139198   2.859   5.696   1.770  2.7455  4.2168  0.7513
 5001TIP3    H239199   2.951   5.651   1.659  0.3011 -0.7721  0.4474
 5002TIP3   OH239200   1.002   1.255   0.160  0.1912  0.2325  0.9277
 5002TIP3    H139201   0.934   1.198   0.193  1.3629 -1.4493  0.5864
 5002TIP3    H239202   1.044   1.204   0.090  0.7711  1.8335  0.0627
 5003TIP3   OH239203   2.087   5.648   8.449  0.3758 -0.5013  0.0759
 5003TIP3    H139204   2.038   5.705   8.390 -0.4887 -0.3084  0.9330
 5003TIP3    H239205   2.103   5.702   8.527  1.2705 -0.8194  0.1300
 5004TIP3   OH239206   2.522   4.157   7.847  0.4876 -0.2197 -0.1072
 5004TIP3    H139207   2.589   4.212   7.808  0.1803 -0.8108 -1.5319
 5004TIP3    H239208   2.498   4.095   7.778 -2.0126  0.4194  0.0786
 5005TIP3   OH239209   3.472   6.499   8.799  0.3990 -0.4066 -0.0295
 5005TIP3    H139210   3.542   6.436   8.820  0.4015  0.0924  1.6439
 5005TIP3    H239211   3.515   6.584   8.806 -0.4013 -0.0836  1.2746
 5006TIP3   OH239212   5.051   2.951   8.782 -0.4499  0.1180 -0.5314
 5006TIP3    H139213   5.008   2.887   8.839  0.4668 -1.1123 -1.1649
 5006TIP3    H239214   4.979   2.991   8.733 -1.0569 -0.4188 -0.1036
 5007TIP3   OH239215   6.292   0.920   2.492  0.5545 -0.0836 -0.6104
 5007TIP3    H139216   6.380   0.955   2.498  1.1653 -1.2957 -1.8413
 5007TIP3    H239217   6.296   0.837   2.540 -0.0848  0.1539 -0.1401
 5008TIP3   OH239218   3.527   4.511   7.249  0.4376  0.3715  0.2731
 5008TIP3    H139219   3.573   4.431   7.223 -0.0414  0.5500 -1.2332
 5008TIP3    H239220   3.455   4.518   7.187 -0.9557  0.7186  1.8660
 5009TIP3   OH239221   1.243   6.477   9.202 -0.5588  0.6056  0.1703
 5009TIP3    H139222   1.283   6.500   9.118 -0.0099 -0.5922  0.0862
 5009TIP3    H239223   1.180   6.408   9.180 -1.3231  1.1528  0.5780
 5010TIP3   OH239224   4.120   2.186   7.803  0.5190  0.1317  0.3652
 5010TIP3    H139225   4.059   2.118   7.774  0.7958  0.3625 -0.8442
 5010TIP3    H239226   4.206   2.146   7.793  0.6576  0.4908  0.1105
 5011TIP3   OH239227   5.346   6.532   1.777 -0.2378  0.5555  0.2284
 5011TIP3    H139228   5.342   6.437   1.767 -0.3151  0.6077 -0.2461
 5011TIP3    H239229   5.258   6.557   1.807  0.2898  0.2849  2.1161
 5012TIP3   OH239230   4.307   6.489   8.892 -0.1914 -0.0857 -0.1774
 5012TIP3    H139231   4.302   6.395   8.876 -2.3889 -0.0774  0.2344
 5012TIP3    H239232   4.298   6.498   8.986 -1.7484  0.6107 -0.3720
 5013TIP3   OH239233   5.551   1.616   8.708 -0.3223  0.5424 -0.4796
 5013TIP3    H139234   5.576   1.704   8.737  2.1611 -0.2866  0.1537
 5013TIP3    H239235   5.625   1.561   8.732 -2.1103 -1.9037 -0.1352
 5014TIP3   OH239236   6.853   6.832   7.808 -0.2836  0.4163 -0.6924
 5014TIP3    H139237   6.922   6.791   7.756  0.6600  1.7232 -0.4965
 5014TIP3    H239238   6.840   6.918   7.768 -1.9646  0.1210 -0.8579
 5015TIP3   OH239239   7.292   6.343   1.308  1.1015  0.0224 -0.5819
 5015TIP3    H139240   7.301   6.412   1.374  1.3018 -0.8056  0.2814
 5015TIP3    H239241   7.282   6.390   1.225 -1.4507  1.1651  0.2638
 5016TIP3   OH239242   3.661   7.005   2.437 -0.3344  0.0067  0.6750
 5016TIP3    H139243   3.606   6.930   2.415 -0.7554  0.4703  0.1296
 5016TIP3    H239244   3.612   7.051   2.505 -0.2877  0.0409  0.6856
 5017TIP3   OH239245   6.262   6.308   9.372 -1.0265  0.0882  0.4178
 5017TIP3    H139246   6.331   6.357   9.416  0.7981 -0.3978 -1.7177
 5017TIP3    H239247   6.195   6.374   9.351  0.1796  1.1937 -0.1070
 5018TIP3   OH239248   4.746   6.568   7.228  0.1544  0.2630 -0.0570
 5018TIP3    H139249   4.797   6.646   7.205  2.0542 -1.4687 -2.1596
 5018TIP3    H239250   4.780   6.499   7.171  0.6051 -2.8935  3.6731
 5019TIP3   OH239251   4.435   6.434   1.538 -0.0716 -0.2889  0.4375
 5019TIP3    H139252   4.462   6.516   1.579 -1.5132 -0.3071  1.4994
 5019TIP3    H239253   4.340   6.435   1.541 -0.1760 -1.2374 -1.1118
 5020TIP3   OH239254   6.422   1.586   9.761  0.1439 -0.0492  0.2198
 5020TIP3    H139255   6.447   1.652   9.697 -0.8851 -1.2053 -1.4385
 5020TIP3    H239256   6.502   1.534   9.773  0.5659  0.6495  0.4940
 5021TIP3   OH239257   4.862   4.441   0.424  0.0098 -0.0891  0.4831
 5021TIP3    H139258   4.916   4.402   0.493  2.3195  0.6479 -0.8147
 5021TIP3    H239259   4.816   4.366   0.385  0.6732 -0.8503  1.1248
 5022TIP3   OH239260   2.170   4.532   1.365  0.1291  0.0718 -0.5797
 5022TIP3    H139261   2.187   4.444   1.332  1.8354  0.7111 -1.5434
 5022TIP3    H239262   2.257   4.568   1.384 -0.4601  1.8309 -0.9852
 5023TIP3   OH239263   1.268   5.212   1.181  0.4099  0.2997  0.3099
 5023TIP3    H139264   1.302   5.291   1.140 -0.9840  1.1687  0.7339
 5023TIP3    H239265   1.318   5.141   1.141  1.1195  1.3233 -0.7093
 5024TIP3   OH239266   0.464   6.354   2.111 -0.0791  0.1218 -0.1613
 5024TIP3    H139267   0.556   6.339   2.091  0.0018  0.8503 -0.3557
 5024TIP3    H239268   0.442   6.435   2.065 -0.2146  1.1966  1.7157
 5025TIP3   OH239269   3.883   1.891   9.493  0.0001 -0.0344 -0.2929
 5025TIP3    H139270   3.957   1.882   9.552  0.0629  0.1821 -0.3385
 5025TIP3    H239271   3.919   1.933   9.415  0.2569 -1.7325 -1.1219
 5026TIP3   OH239272   7.441   0.454   8.438  0.2085 -0.0663  0.7408
 5026TIP3    H139273   7.433   0.498   8.522 -0.6321 -0.4212  0.8596
 5026TIP3    H239274   7.468   0.365   8.460  1.4458  0.2414  0.5309
 5027TIP3   OH239275   5.808   0.765   8.025 -0.2407  0.6660 -0.1698
 5027TIP3    H139276   5.903   0.772   8.021  0.1561 -1.5428  2.2979
 5027TIP3    H239277   5.781   0.833   8.088 -0.2310  0.8962 -0.4132
 5028TIP3   OH239278   3.527   5.074   7.385  0.1887  0.0176 -0.1997
 5028TIP3    H139279   3.474   4.995   7.387 -0.1212  0.2111 -0.5886
 5028TIP3    H239280   3.610   5.047   7.346 -0.0335 -0.0470 -0.6258
 5029TIP3   OH239281   4.419   2.152   8.646 -0.3944  0.1884 -0.5655
 5029TIP3    H139282   4.512   2.175   8.651 -0.1193 -0.9331 -0.3252
 5029TIP3    H239283   4.387   2.202   8.571  0.2245  1.1616 -0.2058
 5030TIP3   OH239284   7.016   4.282   8.942  0.5277  0.5181  0.3250
 5030TIP3    H139285   7.010   4.223   8.867  0.0697  2.8576 -1.6070
 5030TIP3    H239286   7.108   4.278   8.968  0.5185 -0.9747  0.2377
 5031TIP3   OH239287   2.484   4.886   7.682  0.0215 -0.0868  0.0867
 5031TIP3    H139288   2.541   4.821   7.642  2.4842  2.2339 -0.4192
 5031TIP3    H239289   2.519   4.898   7.770 -2.1205 -1.3068  1.2105
 5032TIP3   OH239290   5.964   2.608   0.599 -0.2793 -0.0810 -0.6738
 5032TIP3    H139291   6.021   2.577   0.529 -0.0161 -2.0118  0.3297
 5032TIP3    H239292   5.974   2.703   0.597  0.8599 -0.1950 -2.2876
 5033TIP3   OH239293   0.366   7.479   8.021 -1.0061  0.0518 -0.3613
 5033TIP3    H139294   0.289   7.483   7.964 -1.4100  0.0752  0.1782
 5033TIP3    H239295   0.440   7.466   7.961 -1.6433 -2.2114 -0.7262
 5034TIP3   OH239296   0.979   1.287   9.767  0.3588 -0.2319  0.0405
 5034TIP3    H139297   1.027   1.223   9.819  0.2701  0.7669  1.4059
 5034TIP3    H239298   0.902   1.239   9.735  0.5932 -0.9634  0.5474
 5035TIP3   OH239299   5.264   3.006   1.853  0.5926  0.1942  0.3137
 5035TIP3    H139300   5.194   3.069   1.835 -0.0740 -0.5846  0.1444
 5035TIP3    H239301   5.229   2.922   1.825  1.2637 -0.3489  1.0528
 5036TIP3   OH239302   0.489   4.739   8.507  0.4308  0.4870  0.0015
 5036TIP3    H139303   0.415   4.696   8.463  1.2551  0.3184 -1.2593
 5036TIP3    H239304   0.531   4.668   8.556  0.3548  0.3687 -0.1026
 5037TIP3   OH239305   3.215   6.184   8.262  0.1447  0.1668 -0.3734
 5037TIP3    H139306   3.143   6.247   8.267 -0.3113 -0.4129  1.5679
 5037TIP3    H239307   3.292   6.236   8.239 -0.7554  0.8927 -1.8871
 5038TIP3   OH239308   2.167   7.008   9.533  0.4635 -0.3335 -0.6891
 5038TIP3    H139309   2.247   6.997   9.481  0.1659 -1.0261 -1.0187
 5038TIP3    H239310   2.112   6.933   9.508  0.7628 -1.3348  1.4727
 5039TIP3   OH239311   3.755   2.857   9.674  0.0507 -0.6232 -0.0164
 5039TIP3    H139312   3.846   2.828   9.676  0.0020 -0.8645 -0.8741
 5039TIP3    H239313   3.728   2.858   9.766  1.4254  1.1219  0.4094
 5040TIP3   OH239314   6.025   1.468   8.222  0.4773 -0.0056 -0.3944
 5040TIP3    H139315   6.096   1.530   8.206  0.0233  0.7986  0.5608
 5040TIP3    H239316   5.988   1.451   8.135  0.1033  1.7040 -0.6074
 5041TIP3   OH239317   7.515   4.038   9.775  0.3940  0.0616 -0.1925
 5041TIP3    H139318   7.522   4.010   9.867 -1.7624  2.1868  0.7241
 5041TIP3    H239319   7.553   4.125   9.774 -2.3220  1.3401 -0.5466
 5042TIP3   OH239320   0.140   5.434   8.326  0.2251 -0.5488  0.3194
 5042TIP3    H139321   0.094   5.351   8.331  1.1852 -1.1759 -0.7674
 5042TIP3    H239322   0.162   5.456   8.417 -0.9396 -0.9413  0.7105
 5043TIP3   OH239323   4.564   2.108   1.518 -0.1531 -0.5020  0.0075
 5043TIP3    H139324   4.501   2.044   1.553  0.5741 -1.1858  0.0941
 5043TIP3    H239325   4.531   2.128   1.431 -0.7697 -0.4688  0.2428
 5044TIP3   OH239326   7.313   4.043   9.396  0.0832 -0.0605  0.1318
 5044TIP3    H139327   7.403   4.011   9.385 -0.3559 -1.1378 -0.3930
 5044TIP3    H239328   7.265   4.006   9.322 -1.1362 -0.8022  1.2534
 5045TIP3   OH239329   1.013   6.788   0.112 -0.2964  0.4604 -0.5793
 5045TIP3    H139330   1.107   6.793   0.094  0.1667 -2.0430  0.6101
 5045TIP3    H239331   1.004   6.819   0.203 -0.4502 -0.2369 -0.3496
 5046TIP3   OH239332   7.178   4.837   9.418  0.0154 -0.3303 -0.4862
 5046TIP3    H139333   7.141   4.749   9.423  1.4139 -0.8851  2.3048
 5046TIP3    H239334   7.273   4.823   9.419  0.2673  1.1952  0.5301
 5047TIP3   OH239335   3.152   2.671   2.229  0.2165  0.1680 -0.5276
 5047TIP3    H139336   3.186   2.708   2.310  1.8459 -0.6663 -0.7778
 5047TIP3    H239337   3.159   2.576   2.241 -1.7275 -0.0409 -0.7677
 5048TIP3   OH239338   2.984   3.803   1.256  0.0862 -0.2916  0.1417
 5048TIP3    H139339   2.969   3.729   1.315 -0.0838  0.3541  0.9394
 5048TIP3    H239340   2.950   3.774   1.171 -4.1533  0.3751  1.3656
 5049TIP3   OH239341   6.350   7.208   0.218 -0.2522  0.2785  0.1928
 5049TIP3    H139342   6.330   7.179   0.307 -0.4973  2.3426  0.8621
 5049TIP3    H239343   6.395   7.292   0.230 -1.2585  1.1428 -1.6339
 5050TIP3   OH239344   0.590   1.181   1.318  0.6875  0.2751 -0.0919
 5050TIP3    H139345   0.643   1.155   1.393  0.1105  1.0698  0.6051
 5050TIP3    H239346   0.537   1.104   1.298  2.3000 -0.6566 -1.0189
 5051TIP3   OH239347   2.800   0.541   7.886 -0.6361 -0.3852  0.4025
 5051TIP3    H139348   2.731   0.522   7.823 -1.3025 -1.2483  1.3585
 5051TIP3    H239349   2.772   0.497   7.967 -0.9830  2.5780  2.0504
 5052TIP3   OH239350   5.641   0.039   8.499  0.0659 -0.4435 -0.1047
 5052TIP3    H139351   5.679   0.095   8.431  0.0671  1.6419  1.5340
 5052TIP3    H239352   5.710  -0.023   8.521  1.7184  1.6863  1.0577
 5053TIP3   OH239353   1.375   6.777   1.428 -0.1703 -0.2331  0.3378
 5053TIP3    H139354   1.352   6.705   1.487 -1.6978  0.3001  0.4428
 5053TIP3    H239355   1.447   6.742   1.375  0.0795 -1.3274  1.3397
 5054TIP3   OH239356   5.433   7.143   1.335  0.8768 -0.2144 -0.5009
 5054TIP3    H139357   5.395   7.193   1.263  1.4238  0.8792 -0.0489
 5054TIP3    H239358   5.366   7.078   1.357  0.9085 -0.8847 -2.2999
 5055TIP3   OH239359   1.773   4.947   8.829  0.0574 -0.2376 -0.8945
 5055TIP3    H139360   1.833   4.943   8.903 -0.8421 -0.4159 -0.1500
 5055TIP3    H239361   1.829   4.943   8.752  0.9204 -1.7277 -0.2298
 5056TIP3   OH239362   3.960   4.347   9.650  0.3762  0.2327 -0.1848
 5056TIP3    H139363   4.021   4.315   9.716  0.5843  1.2307  0.1196
 5056TIP3    H239364   4.010   4.350   9.569  0.3328 -0.2626 -0.2352
 5057TIP3   OH239365   2.734   1.510   8.820 -0.0437  0.0775 -0.0560
 5057TIP3    H139366   2.763   1.537   8.733  0.7495 -0.3434  0.0665
 5057TIP3    H239367   2.815   1.486   8.866 -0.5070 -0.2761  0.5965
 5058TIP3   OH239368   4.571   1.579   1.006  0.0010 -0.0485  0.1183
 5058TIP3    H139369   4.644   1.563   0.946 -0.6163 -1.6853 -0.2496
 5058TIP3    H239370   4.577   1.673   1.027  1.1822  0.2153 -1.2397
 5059TIP3   OH239371   3.280   7.336   8.833  0.6164  0.1415  0.7118
 5059TIP3    H139372   3.271   7.415   8.780  1.4897  0.7664  1.4419
 5059TIP3    H239373   3.241   7.359   8.917  0.3282 -0.4172  0.7321
 5060TIP3   OH239374   4.333   2.755   0.804 -0.3938  1.3961 -0.2083
 5060TIP3    H139375   4.344   2.681   0.744 -2.0548  1.7026 -0.9514
 5060TIP3    H239376   4.357   2.832   0.751  0.1172  1.5007  0.1690
 5061TIP3   OH239377   4.503   3.679   9.952 -0.3347 -0.6155  0.2689
 5061TIP3    H139378   4.529   3.636   9.871  0.1468  0.7482 -0.3290
 5061TIP3    H239379   4.585   3.702   9.995 -0.4441  2.2019 -0.8111
 5062TIP3   OH239380   2.230   4.092   1.800  0.4172  0.3937  0.6393
 5062TIP3    H139381   2.135   4.099   1.793  0.3638 -0.5091  0.3890
 5062TIP3    H239382   2.250   4.123   1.888 -0.1339  0.3145  0.7960
 5063TIP3   OH239383   7.027   0.776   8.650  0.4871  0.6221  0.5926
 5063TIP3    H139384   7.045   0.690   8.611 -2.1851 -0.1101  0.7434
 5063TIP3    H239385   7.077   0.838   8.597  1.0410 -0.8520 -0.6874
 5064TIP3   OH239386   5.325   4.567   1.634 -0.2012  0.4502  0.0098
 5064TIP3    H139387   5.286   4.480   1.643  2.3583 -0.7153  0.7492
 5064TIP3    H239388   5.399   4.567   1.694 -0.5305  3.4592  0.6020
 5065TIP3   OH239389   6.650   6.690   9.816 -0.5377 -0.0871  0.4037
 5065TIP3    H139390   6.671   6.713   9.907  0.6564 -1.5503  0.5410
 5065TIP3    H239391   6.567   6.736   9.798 -1.4726 -0.7624  2.6398
 5066TIP3   OH239392   0.801   5.606   7.506 -0.2134 -0.3872 -0.2702
 5066TIP3    H139393   0.883   5.557   7.516  1.1528  1.7154 -0.5221
 5066TIP3    H239394   0.737   5.556   7.557  1.1907 -2.1122 -0.0818
 5067TIP3   OH239395   4.777   7.082   8.834 -0.1145 -0.5910 -0.1078
 5067TIP3    H139396   4.845   7.070   8.900 -0.0579 -1.7912 -0.3703
 5067TIP3    H239397   4.707   7.128   8.880  0.3378 -0.4952  0.5028
 5068TIP3   OH239398   6.377   5.608   7.573 -0.0309  0.6027  0.4381
 5068TIP3    H139399   6.463   5.611   7.614 -0.4412  2.7273  1.3274
 5068TIP3    H239400   6.342   5.522   7.595  1.4859  0.0731  0.8623
 5069TIP3   OH239401   3.993   6.585   9.260 -0.2873  0.1624  0.1931
 5069TIP3    H139402   3.986   6.566   9.167  1.7090  0.6409 -0.1039
 5069TIP3    H239403   4.046   6.513   9.295 -1.0102 -0.0100  0.9637
 5070TIP3   OH239404   1.160   1.709   9.928  0.2533 -0.2215  0.1267
 5070TIP3    H139405   1.140   1.615   9.931  2.9404 -0.8592  0.4852
 5070TIP3    H239406   1.154   1.737  10.019  0.8367 -0.4015  0.2271
 5071TIP3   OH239407   2.715   5.432   8.532  0.4275  0.1308  0.0435
 5071TIP3    H139408   2.625   5.438   8.565  0.3421 -0.1355 -0.1351
 5071TIP3    H239409   2.708   5.378   8.453  0.9501 -1.1304  0.8303
 5072TIP3   OH239410   3.996   2.060   9.289  0.1459  0.5148  0.0070
 5072TIP3    H139411   3.971   2.117   9.217 -0.7871 -0.2688 -0.3181
 5072TIP3    H239412   4.074   2.101   9.327 -0.1314  1.6428 -0.6039
 5073TIP3   OH239413   0.206   0.606   9.324  0.2878 -0.2012 -0.9002
 5073TIP3    H139414   0.181   0.698   9.330  0.5166 -0.1697 -0.3016
 5073TIP3    H239415   0.129   0.558   9.356  0.5952 -0.1538 -0.0603
 5074TIP3   OH239416   2.211   0.837   9.814  0.0840  0.3572 -0.7778
 5074TIP3    H139417   2.263   0.892   9.755  1.0114  1.2968  0.8414
 5074TIP3    H239418   2.262   0.756   9.822 -0.3452 -0.0118 -1.7133
 5075TIP3   OH239419   5.195   1.867   8.250 -1.1144  0.1261 -0.2033
 5075TIP3    H139420   5.170   1.790   8.199 -0.0018 -0.4057  0.0226
 5075TIP3    H239421   5.177   1.941   8.192 -0.0837 -0.4522 -1.3201
 5076TIP3   OH239422   0.775   7.004   0.547  0.0662  0.0513 -0.3871
 5076TIP3    H139423   0.729   7.007   0.464 -1.6338 -1.3410  0.4209
 5076TIP3    H239424   0.813   6.916   0.550  0.3211  0.1757  0.2067
 5077TIP3   OH239425   6.108   4.961   9.605 -0.4117 -0.2967 -0.0211
 5077TIP3    H139426   6.104   5.054   9.628 -0.7378 -0.0854 -0.8822
 5077TIP3    H239427   6.160   4.959   9.525 -0.3604 -0.8688  0.0248
 5078TIP3   OH239428   3.454   5.867   7.648 -0.1362  0.0532  0.5596
 5078TIP3    H139429   3.438   5.773   7.659  0.0768  0.1013  1.3515
 5078TIP3    H239430   3.416   5.888   7.563  1.7846 -1.1953 -0.6811
 5079TIP3   OH239431   2.878   6.110   2.390 -0.2857 -0.0086 -0.0848
 5079TIP3    H139432   2.880   6.114   2.295 -2.4060  2.3914 -0.1362
 5079TIP3    H239433   2.787   6.090   2.412  0.1774 -0.6100  1.4407
 5080TIP3   OH239434   4.208   5.743   9.586  0.4336  0.3943  0.1813
 5080TIP3    H139435   4.279   5.792   9.545 -0.3494 -0.8296 -2.8831
 5080TIP3    H239436   4.141   5.809   9.604  0.1455  0.8029 -2.1404
 5081TIP3   OH239437   2.183   4.045   2.454  0.2099 -0.1242 -0.5502
 5081TIP3    H139438   2.192   3.995   2.535 -0.3974 -1.9297 -1.5550
 5081TIP3    H239439   2.270   4.042   2.414  0.7371  1.4700  0.3643
 5082TIP3   OH239440   2.412   0.700   7.694 -1.0559  0.0128  0.1149
 5082TIP3    H139441   2.427   0.722   7.786 -1.8061  0.1531  0.2057
 5082TIP3    H239442   2.457   0.616   7.683 -1.0593 -0.0646  0.6374
 5083TIP3   OH239443   4.263   0.111   1.372  0.3249  0.1589  0.1576
 5083TIP3    H139444   4.327   0.041   1.360 -0.0045 -0.2484  0.7460
 5083TIP3    H239445   4.312   0.181   1.415  0.2543 -0.3438  1.0617
 5084TIP3   OH239446   2.794   7.052   7.218  0.2857 -1.4724 -0.7818
 5084TIP3    H139447   2.720   7.086   7.269  1.0968 -0.3093 -0.3220
 5084TIP3    H239448   2.846   7.004   7.282  2.7095  2.1682  0.3082
 5085TIP3   OH239449   7.301   4.668   8.297  0.1237 -0.1483 -0.7654
 5085TIP3    H139450   7.350   4.622   8.229  0.3888  1.1586 -1.4890
 5085TIP3    H239451   7.351   4.749   8.312 -0.8948  0.4099 -0.2913
 5086TIP3   OH239452   6.580   1.659   0.921  0.5271  0.0313 -0.1320
 5086TIP3    H139453   6.651   1.699   0.871  0.8794  0.1846  0.4815
 5086TIP3    H239454   6.603   1.566   0.923  0.0217 -0.1263 -1.0435
 5087TIP3   OH239455   1.371   5.600   0.455 -0.0732  0.6566  0.1705
 5087TIP3    H139456   1.421   5.551   0.389 -1.7264 -2.5806  1.0903
 5087TIP3    H239457   1.429   5.604   0.531 -0.3148 -1.1510  0.5073
 5088TIP3   OH239458   6.948   5.142   8.745 -0.5672  0.6980  0.1445
 5088TIP3    H139459   6.943   5.234   8.717  0.2711  0.8660  0.5193
 5088TIP3    H239460   6.973   5.147   8.837 -2.3068  0.1269  0.6883
 5089TIP3   OH239461   0.962   5.320   2.417  0.0529  0.0846  0.0844
 5089TIP3    H139462   0.987   5.272   2.338  0.6935  3.1476 -1.7245
 5089TIP3    H239463   1.045   5.335   2.464  0.3609  2.0454 -1.0037
 5090TIP3   OH239464   2.015   2.123   9.977  0.4269  0.1819 -0.5002
 5090TIP3    H139465   2.081   2.053   9.985 -0.1381 -0.2358  0.8261
 5090TIP3    H239466   1.995   2.147  10.068  0.6123  2.0975 -0.9318
 5091TIP3   OH239467   0.581   5.582   9.146  0.1359 -0.3198 -0.5289
 5091TIP3    H139468   0.528   5.600   9.223 -0.0657 -0.6743 -0.5847
 5091TIP3    H239469   0.624   5.666   9.126  0.2810 -0.2572  0.0350
 5092TIP3   OH239470   3.721   5.038   1.424 -0.0088 -0.5138 -0.4763
 5092TIP3    H139471   3.798   5.060   1.372  0.5503  0.1411  0.6016
 5092TIP3    H239472   3.750   5.046   1.514 -1.5983  0.7160 -0.0239
 5093TIP3   OH239473   7.448   4.009   7.407 -0.4840  0.5428  0.2916
 5093TIP3    H139474   7.530   4.054   7.425 -1.4303  2.2239  0.5709
 5093TIP3    H239475   7.456   3.980   7.316 -0.8027  3.5629 -0.7965
 5094TIP3   OH239476   3.296   7.675   2.199 -0.0931  0.4567 -0.2343
 5094TIP3    H139477   3.313   7.643   2.110  1.2165 -1.5560  0.6735
 5094TIP3    H239478   3.212   7.721   2.192  0.0361  0.4641 -2.5192
 5095TIP3   OH239479   0.261   2.760   7.815 -0.2710  0.0559  0.6199
 5095TIP3    H139480   0.316   2.838   7.811 -1.4426  1.0188  2.1656
 5095TIP3    H239481   0.319   2.689   7.786  1.4845  1.1707  1.2102
 5096TIP3   OH239482   2.052   4.577   8.900 -0.7560 -0.8451  0.3450
 5096TIP3    H139483   2.122   4.642   8.890 -0.5824 -1.2183 -1.0171
 5096TIP3    H239484   2.091   4.495   8.872 -1.5129 -1.2109  0.3324
 5097TIP3   OH239485   0.937   7.268   2.828 -0.4004 -0.5328 -0.0853
 5097TIP3    H139486   0.877   7.199   2.856 -1.3151 -0.0627 -0.8203
 5097TIP3    H239487   0.938   7.330   2.901 -0.3691 -0.8283  0.1652
 5098TIP3   OH239488   3.898   1.896   1.743  0.0526  0.0531  0.1014
 5098TIP3    H139489   3.938   1.944   1.815  1.7856  0.1030 -0.8560
 5098TIP3    H239490   3.969   1.881   1.681 -1.1337 -1.0337 -1.0602
 5099TIP3   OH239491   1.107   0.929   1.856 -0.0788  0.1671 -0.4026
 5099TIP3    H139492   1.182   0.876   1.884 -0.1346 -0.0936 -0.7476
 5099TIP3    H239493   1.142   0.983   1.784 -0.7112 -1.3630 -1.9082
 5100TIP3   OH239494   2.005   2.498   6.798  0.2629  0.2506  0.3012
 5100TIP3    H139495   2.099   2.513   6.788  0.0255  1.2099 -0.7115
 5100TIP3    H239496   1.974   2.574   6.847 -0.4104  1.4431 -1.8469
 5101TIP3   OH239497   1.858   5.877   6.788  0.2188  0.3062 -0.7229
 5101TIP3    H139498   1.914   5.842   6.857 -1.5311 -0.6956  0.2752
 5101TIP3    H239499   1.914   5.883   6.711  2.0102  0.6565  0.5551
 5102TIP3   OH239500   0.540   3.288   9.648  0.2050  0.1091  0.7134
 5102TIP3    H139501   0.600   3.216   9.670  0.5838  0.2262  0.0910
 5102TIP3    H239502   0.499   3.311   9.732  0.7123 -0.2625  1.0725
 5103TIP3   OH239503   3.670   1.429   0.522  0.2920  0.5459  0.0136
 5103TIP3    H139504   3.646   1.342   0.489  0.9792  0.2748  0.1968
 5103TIP3    H239505   3.724   1.467   0.453  0.1522  0.7467  0.0163
 5104TIP3   OH239506   4.219   0.950   1.945  0.4062 -0.1460  0.3747
 5104TIP3    H139507   4.165   0.873   1.929 -0.6013  0.8188 -1.2044
 5104TIP3    H239508   4.157   1.020   1.964  1.2925  0.3381  1.6152
 5105TIP3   OH239509   2.243   1.992   8.214  0.3077 -0.4533  0.6184
 5105TIP3    H139510   2.303   2.058   8.249 -1.3387  1.6431 -0.2991
 5105TIP3    H239511   2.160   2.010   8.256 -0.4968 -1.1223 -0.6234
 5106TIP3   OH239512   5.173   6.756   2.296  0.3810 -0.2746  0.0285
 5106TIP3    H139513   5.178   6.753   2.392  1.8513 -0.3798 -0.0279
 5106TIP3    H239514   5.262   6.778   2.268 -0.0777 -0.0146 -1.3159
 5107TIP3   OH239515   0.723   1.558   8.894 -0.6453 -0.6513 -0.1644
 5107TIP3    H139516   0.747   1.498   8.964 -1.5787 -1.1733 -0.2766
 5107TIP3    H239517   0.806   1.578   8.850 -0.2026 -1.1379  0.4368
 5108TIP3   OH239518   5.524   3.660   2.714  0.5390 -0.3361 -0.0052
 5108TIP3    H139519   5.436   3.624   2.726  0.5037 -0.3434 -0.2782
 5108TIP3    H239520   5.524   3.740   2.767 -0.6687  1.3554 -2.3766
 5109TIP3   OH239521   5.268   5.201   1.123 -0.1516 -0.4932 -0.0498
 5109TIP3    H139522   5.226   5.240   1.200 -0.3879  0.5852 -0.7073
 5109TIP3    H239523   5.240   5.256   1.049 -1.8939 -2.8985 -1.2959
 5110TIP3   OH239524   7.278   1.023   0.519 -0.2884 -0.3164 -0.0414
 5110TIP3    H139525   7.296   1.006   0.611  0.4203 -2.1961 -0.4615
 5110TIP3    H239526   7.183   1.037   0.514 -0.2907  0.0578  0.9891
 5111TIP3   OH239527   7.114   7.160   9.600 -0.0847 -0.4675 -0.2480
 5111TIP3    H139528   7.050   7.182   9.533  0.3019  0.2595 -0.3882
 5111TIP3    H239529   7.137   7.244   9.640  1.0448 -0.6689 -0.4428
 5112TIP3   OH239530   1.921   1.404   0.229 -0.1900 -0.7189  0.6983
 5112TIP3    H139531   1.886   1.343   0.295 -1.7535 -0.2898  0.2950
 5112TIP3    H239532   1.904   1.491   0.266 -0.5938 -0.4860 -0.0291
 5113TIP3   OH239533   3.388   5.015   7.676 -0.0011 -0.0127 -0.1097
 5113TIP3    H139534   3.450   5.010   7.748  3.6076  5.0482 -2.2869
 5113TIP3    H239535   3.409   4.940   7.620  2.6323  0.2069  0.4598
 5114TIP3   OH239536   5.270   3.473   0.214  0.2314 -0.6395  0.0354
 5114TIP3    H139537   5.174   3.465   0.214  0.1301  0.5040  0.3628
 5114TIP3    H239538   5.287   3.567   0.215  1.3730 -0.8127 -1.0355
 5115TIP3   OH239539   1.682   4.173   9.122  0.4297 -0.2574 -0.3390
 5115TIP3    H139540   1.776   4.156   9.116  0.5506  0.8955 -3.7870
 5115TIP3    H239541   1.675   4.246   9.184  1.6323 -0.9916  0.7183
 5116TIP3   OH239542   2.985   5.133   6.868 -0.1175  0.1250 -0.2556
 5116TIP3    H139543   3.034   5.191   6.810 -0.0709  0.0027 -0.3409
 5116TIP3    H239544   3.037   5.052   6.870 -0.9016 -0.4225 -1.2721
 5117TIP3   OH239545   0.252   6.824   1.715 -0.1763 -0.4011 -0.0027
 5117TIP3    H139546   0.302   6.857   1.790  0.6088 -1.7973  0.1253
 5117TIP3    H239547   0.201   6.751   1.751  0.0836 -0.9810 -0.7830
 5118TIP3   OH239548   4.161   4.196   1.238  0.3373 -0.2847  0.0432
 5118TIP3    H139549   4.239   4.142   1.253 -0.3910 -1.2750  0.4262
 5118TIP3    H239550   4.149   4.193   1.143  1.1292  0.4200 -0.0908
 5119TIP3   OH239551   6.827   0.704   0.877 -0.3855  0.0470  0.0520
 5119TIP3    H139552   6.913   0.721   0.840  0.2107 -2.1011  0.2692
 5119TIP3    H239553   6.844   0.645   0.951 -2.1445 -1.9751 -1.0395
 5120TIP3   OH239554   0.682   0.980   7.740  0.0287 -0.3581  0.2774
 5120TIP3    H139555   0.664   1.074   7.736 -0.7307 -0.5157 -0.3604
 5120TIP3    H239556   0.775   0.974   7.758 -0.3619  0.5111  2.9718
 5121TIP3   OH239557   4.429   5.957   1.348  0.0536 -0.1561 -0.5207
 5121TIP3    H139558   4.460   5.983   1.261  1.6130 -0.1640  0.0020
 5121TIP3    H239559   4.506   5.919   1.390 -0.5762  0.1911  1.0046
 5122TIP3   OH239560   6.270   5.720   1.115 -0.0860  0.1686 -0.0453
 5122TIP3    H139561   6.347   5.728   1.171 -1.4963  0.3023  1.9633
 5122TIP3    H239562   6.301   5.745   1.028  2.2686 -0.4181  0.5609
 5123TIP3   OH239563   3.312   5.922   7.421  0.3760  0.0010 -0.0457
 5123TIP3    H139564   3.308   5.880   7.335 -1.4864 -0.5820  0.2744
 5123TIP3    H239565   3.312   6.016   7.403  4.7149  0.0800 -0.7792
 5124TIP3   OH239566   2.657   2.905   9.932 -0.3111  0.5233 -0.2678
 5124TIP3    H139567   2.639   2.994   9.901 -1.3165  1.2467  2.1691
 5124TIP3    H239568   2.583   2.884   9.990  0.5852 -1.3816  0.2862
 5125TIP3   OH239569   2.724   6.648   2.902  0.0801 -0.6749  0.4007
 5125TIP3    H139570   2.662   6.608   2.841 -0.8180  1.8329 -0.4627
 5125TIP3    H239571   2.807   6.603   2.885 -0.7297 -1.7669 -0.8374
 5126TIP3   OH239572   2.075   5.394   7.482  0.0751 -0.0227 -0.6640
 5126TIP3    H139573   2.003   5.433   7.432  0.1898  3.2098  1.4252
 5126TIP3    H239574   2.142   5.375   7.417 -0.4688  2.2893 -1.9992
 5127TIP3   OH239575   5.351   2.461   0.323  0.5427  0.1830 -0.3212
 5127TIP3    H139576   5.339   2.546   0.279  1.7888  0.8507  0.5607
 5127TIP3    H239577   5.363   2.484   0.416 -3.1840 -1.2349  0.6898
 5128TIP3   OH239578   7.363   5.425   7.698  0.3096 -0.2169  0.2919
 5128TIP3    H139579   7.432   5.446   7.635 -0.9830 -1.0342 -1.4842
 5128TIP3    H239580   7.374   5.331   7.715  0.5459 -0.0377  1.2025
 5129TIP3   OH239581   5.218   2.327   8.157 -0.1494 -0.7547  0.1450
 5129TIP3    H139582   5.274   2.329   8.234 -1.7769 -0.6914  1.3628
 5129TIP3    H239583   5.265   2.380   8.092  0.5515  0.4550  1.5750
 5130TIP3   OH239584   2.858   0.014   9.897  0.0712  0.1121  0.1476
 5130TIP3    H139585   2.941   0.046   9.934  0.4354  0.3263 -0.8179
 5130TIP3    H239586   2.882  -0.062   9.845 -0.4731 -0.3567  0.5715
 5131TIP3   OH239587   1.671   3.948   7.465 -0.3443 -0.1578 -0.6360
 5131TIP3    H139588   1.715   3.996   7.394 -0.3628 -0.9606 -1.2001
 5131TIP3    H239589   1.660   4.013   7.534  1.9718  0.0325 -0.3507
 5132TIP3   OH239590   2.636   2.404   1.549 -0.4126 -0.1702  0.1391
 5132TIP3    H139591   2.573   2.405   1.477 -0.2188 -0.8043 -0.0522
 5132TIP3    H239592   2.650   2.496   1.570 -1.4139 -0.0220  0.1961
 5133TIP3   OH239593   5.713   7.213   0.611  0.1085 -0.0762  0.3709
 5133TIP3    H139594   5.642   7.188   0.553  0.4729 -0.7977  0.2263
 5133TIP3    H239595   5.670   7.259   0.683 -0.4132  0.2104 -0.1200
 5134TIP3   OH239596   6.609   2.668   7.942  0.1282 -0.1039 -0.1187
 5134TIP3    H139597   6.642   2.648   7.854 -0.9617 -1.4313 -0.2687
 5134TIP3    H239598   6.577   2.758   7.936  1.9848  0.5742 -0.4601
 5135TIP3   OH239599   0.831   6.291   0.476  0.1932  0.0709 -0.0962
 5135TIP3    H139600   0.814   6.197   0.485  0.2404  0.2397  2.2515
 5135TIP3    H239601   0.925   6.298   0.461  0.0189 -0.2792 -1.5130
 5136TIP3   OH239602   4.383   6.799   9.771  0.0650  0.5418 -0.5990
 5136TIP3    H139603   4.417   6.758   9.851 -0.9653  0.7912 -0.0097
 5136TIP3    H239604   4.454   6.790   9.707 -0.1085 -2.2276 -0.5241
 5137TIP3   OH239605   4.698   3.547   2.149 -0.0764 -0.2347 -0.1685
 5137TIP3    H139606   4.674   3.630   2.190  2.0098  0.6978 -0.7114
 5137TIP3    H239607   4.778   3.519   2.195 -1.4768 -2.7519  0.9974
 5138TIP3   OH239608   6.142   0.578   9.602 -0.3268  0.2227 -0.1159
 5138TIP3    H139609   6.088   0.531   9.538 -2.8351  2.4926  0.1754
 5138TIP3    H239610   6.105   0.666   9.607  1.0063  0.7834  2.9989
 5139TIP3   OH239611   0.947   0.377   8.340  0.0334  0.6043 -0.1273
 5139TIP3    H139612   0.924   0.305   8.280  4.4125  0.8807 -2.5007
 5139TIP3    H239613   0.952   0.335   8.426 -0.8400 -1.1392 -0.8586
 5140TIP3   OH239614   0.907   2.575   8.509  0.7703  0.5383 -0.0917
 5140TIP3    H139615   0.860   2.578   8.592 -0.2884  1.3200 -0.6989
 5140TIP3    H239616   0.990   2.532   8.530  0.3901  0.4422  1.2971
 5141TIP3   OH239617   1.185   0.646   2.541  0.2674  0.3765 -0.0997
 5141TIP3    H139618   1.206   0.718   2.600 -0.4684  0.9903 -0.5645
 5141TIP3    H239619   1.203   0.567   2.592 -1.2425  0.8741  1.3010
 5142TIP3   OH239620   2.407   5.017   7.355  0.1489  0.5608  0.9011
 5142TIP3    H139621   2.409   5.088   7.290  1.4390 -0.4101 -0.1778
 5142TIP3    H239622   2.376   5.059   7.435  0.8758  2.3556  0.2958
 5143TIP3   OH239623   0.562   7.196   1.736 -0.0544  0.5404 -0.1081
 5143TIP3    H139624   0.657   7.203   1.730  0.3808  1.1983  4.4565
 5143TIP3    H239625   0.530   7.285   1.723  0.2413  0.8179  0.9873
 5144TIP3   OH239626   5.140   1.983   9.845  0.2130  0.0084 -0.8661
 5144TIP3    H139627   5.145   1.966   9.751 -0.8669  1.2131 -1.1595
 5144TIP3    H239628   5.184   2.067   9.857  0.1801 -0.0462 -0.3004
 5145TIP3   OH239629   7.213   3.835   2.287  0.7639  0.1818  0.1809
 5145TIP3    H139630   7.222   3.778   2.364 -0.8440  0.1727  0.3930
 5145TIP3    H239631   7.177   3.778   2.219  1.8453  0.2767 -0.4890
 5146TIP3   OH239632   4.073   3.106   1.659  0.3302  0.4176 -0.4320
 5146TIP3    H139633   3.982   3.094   1.685 -0.0978  0.1494 -1.9849
 5146TIP3    H239634   4.122   3.049   1.719 -0.6217 -0.2886 -0.3074
 5147TIP3   OH239635   7.199   5.802   8.152 -0.6666  0.0761 -0.2232
 5147TIP3    H139636   7.197   5.742   8.226 -1.9338 -0.0129 -0.3006
 5147TIP3    H239637   7.132   5.868   8.173  0.0447  0.9374 -0.5727
 5148TIP3   OH239638   2.387   1.645   7.818 -0.3230 -0.0963 -0.1570
 5148TIP3    H139639   2.348   1.694   7.746 -1.9514  0.7833  1.2556
 5148TIP3    H239640   2.478   1.675   7.821 -0.1613 -0.2880 -1.9011
 5149TIP3   OH239641   4.180   6.598   3.212  0.1905 -0.2455 -0.2187
 5149TIP3    H139642   4.147   6.663   3.274  1.6636 -0.2525  0.6386
 5149TIP3    H239643   4.175   6.641   3.127 -0.8659  0.1666  0.0355
 5150TIP3   OH239644   5.008   3.509   2.480  0.4464 -0.0896  0.4912
 5150TIP3    H139645   4.972   3.538   2.396 -0.1159  1.4000  1.2152
 5150TIP3    H239646   5.102   3.502   2.464  0.3395  0.0958 -0.2848
 5151TIP3   OH239647   0.352   6.746   7.803 -0.1179 -0.7704  0.6080
 5151TIP3    H139648   0.412   6.815   7.776 -1.3301 -0.9262 -2.9923
 5151TIP3    H239649   0.271   6.792   7.826 -1.0592 -0.8311 -2.1768
 5152TIP3   OH239650   1.126   0.804   2.257 -0.0217  0.2700  0.2150
 5152TIP3    H139651   1.042   0.792   2.213  0.0082  0.5334  0.0840
 5152TIP3    H239652   1.177   0.727   2.232  0.5531  1.1439 -1.4907
 5153TIP3   OH239653   0.365   2.260   7.754  0.5036 -0.7550  0.0858
 5153TIP3    H139654   0.393   2.201   7.684  1.1751  1.6991 -1.8303
 5153TIP3    H239655   0.315   2.329   7.710  1.4808  1.2230  1.8988
 5154TIP3   OH239656   1.827   5.315   1.159  0.1151 -0.1197  0.7115
 5154TIP3    H139657   1.742   5.273   1.167 -1.1267  2.1829  0.3408
 5154TIP3    H239658   1.845   5.350   1.246  0.1769  0.3242  0.5217
 5155TIP3   OH239659   5.861   4.606   0.948 -0.0562  0.1301 -0.1534
 5155TIP3    H139660   5.934   4.544   0.952 -0.3073 -0.1697 -0.1430
 5155TIP3    H239661   5.851   4.637   1.037 -0.3234 -0.2848 -0.0333
 5156TIP3   OH239662   0.380   1.722   8.168 -0.0168 -0.5021 -0.1004
 5156TIP3    H139663   0.434   1.744   8.092  0.8690 -0.3092  0.5643
 5156TIP3    H239664   0.342   1.805   8.196  1.0935 -0.2500  0.7279
 5157TIP3   OH239665   2.572   2.821   0.665 -0.4939  0.0227  0.2704
 5157TIP3    H139666   2.654   2.871   0.667  1.0002 -2.2783  2.0135
 5157TIP3    H239667   2.516   2.866   0.729 -0.7214  1.6995 -1.0344
 5158TIP3   OH239668   1.950   5.681   3.018  0.0106 -0.2974  0.0506
 5158TIP3    H139669   1.956   5.609   3.081  3.2667  0.0117  0.2740
 5158TIP3    H239670   1.920   5.755   3.070  1.8796 -0.2436  1.1514
 5159TIP3   OH239671   6.361   1.266   9.947 -0.3907 -0.1613  0.2611
 5159TIP3    H139672   6.315   1.348   9.965  0.9429  0.4014  1.3347
 5159TIP3    H239673   6.327   1.237   9.863 -0.6708  1.6868 -0.3148
 5160TIP3   OH239674   4.801   5.577   9.550  0.1009  0.0282 -0.2869
 5160TIP3    H139675   4.795   5.655   9.606 -2.8695  1.3934 -2.2834
 5160TIP3    H239676   4.790   5.503   9.610 -2.5791  1.4137  1.0802
 5161TIP3   OH239677   1.915   7.655   7.701  0.0568  0.1452 -0.5980
 5161TIP3    H139678   1.874   7.588   7.646 -0.7273  1.6591 -1.9393
 5161TIP3    H239679   1.919   7.733   7.646  2.4838  0.7907  0.3331
 5162TIP3   OH239680   7.378   7.443   2.580 -0.1828 -0.3177  0.5646
 5162TIP3    H139681   7.403   7.481   2.664  0.2499  3.1552 -0.9590
 5162TIP3    H239682   7.438   7.483   2.517 -0.1055 -3.2184 -1.4220
 5163TIP3   OH239683   3.685   3.404   1.409 -0.1726 -0.3472  0.4123
 5163TIP3    H139684   3.723   3.440   1.488 -0.8158  1.3679 -0.0146
 5163TIP3    H239685   3.604   3.454   1.396 -1.2548 -2.1254 -0.0967
 5164TIP3   OH239686   6.335   2.238   8.727 -0.4969  0.0338 -0.2404
 5164TIP3    H139687   6.281   2.303   8.772 -1.4748 -0.3263 -0.8624
 5164TIP3    H239688   6.425   2.268   8.740 -0.8319  0.5981  0.8914
 5165TIP3   OH239689   5.306   3.316   1.062 -0.7607  0.1804  0.0719
 5165TIP3    H139690   5.375   3.251   1.053 -0.6293  0.4027 -0.5819
 5165TIP3    H239691   5.277   3.308   1.153 -1.7019 -1.7281 -0.3614
 5166TIP3   OH239692   0.920   3.027   1.892 -0.3639  0.3432  0.0930
 5166TIP3    H139693   1.015   3.037   1.888  0.0179 -1.9573  1.5008
 5166TIP3    H239694   0.900   3.019   1.985 -1.8763  0.2249 -0.2077
 5167TIP3   OH239695   1.708   5.001   0.073 -0.1139  0.1190  0.3769
 5167TIP3    H139696   1.673   5.014   0.162 -1.0242  0.8806 -0.0754
 5167TIP3    H239697   1.753   5.083   0.053  0.5419 -0.2442  0.3173
 5168TIP3   OH239698   4.958   3.790   0.478 -0.5991  0.1335 -0.5075
 5168TIP3    H139699   4.947   3.753   0.566  0.0058  0.1641 -0.4183
 5168TIP3    H239700   4.908   3.731   0.422  0.4289 -0.8936 -0.3814
 5169TIP3   OH239701   7.189   0.893   1.665 -0.5570 -0.3184  0.2270
 5169TIP3    H139702   7.201   0.799   1.655 -1.0765 -0.4164  0.5391
 5169TIP3    H239703   7.267   0.931   1.624  0.9443 -0.9526  2.3726
 5170TIP3   OH239704   0.035   5.585   8.954  0.5973  0.0543  0.3271
 5170TIP3    H139705  -0.000   5.653   8.896 -1.6216 -0.2967  1.1756
 5170TIP3    H239706   0.128   5.606   8.961  0.4724  1.4847 -1.4596
 5171TIP3   OH239707   5.036   1.435   9.521 -0.6456  0.1560 -0.1177
 5171TIP3    H139708   5.125   1.419   9.491 -0.8396  0.7876 -1.0578
 5171TIP3    H239709   5.012   1.356   9.569  0.5948  0.1758  0.5780
 5172TIP3   OH239710   4.372   5.766   2.150 -0.2469 -0.2089 -0.7029
 5172TIP3    H139711   4.450   5.716   2.122 -0.1709 -0.7662  0.4235
 5172TIP3    H239712   4.405   5.824   2.219 -0.4348  1.1066 -1.6788
 5173TIP3   OH239713   5.316   3.336   8.623  0.2941  0.4847 -0.4599
 5173TIP3    H139714   5.387   3.275   8.643  0.6338  0.6032 -1.2358
 5173TIP3    H239715   5.361   3.415   8.590 -0.1520  1.0314  0.2239
 5174TIP3   OH239716   0.386   0.274   2.049  0.0566  0.4762 -0.2537
 5174TIP3    H139717   0.408   0.182   2.036 -2.2657 -0.4120  1.4956
 5174TIP3    H239718   0.422   0.295   2.136 -0.7938  0.7269  0.0473
 5175TIP3   OH239719   0.478   7.587   0.159 -0.7540 -0.3868 -0.1672
 5175TIP3    H139720   0.554   7.529   0.153 -0.2526  0.2296  0.0466
 5175TIP3    H239721   0.515   7.675   0.155 -1.1530  0.0010  2.4174
 5176TIP3   OH239722   6.893   0.202   2.267  0.4042  0.2519  0.4862
 5176TIP3    H139723   6.915   0.254   2.345 -0.8173  0.8710  0.4398
 5176TIP3    H239724   6.837   0.132   2.300 -0.0167  0.4443  0.1828
 5177TIP3   OH239725   3.464   5.627   2.202  0.2739 -0.1791  0.4267
 5177TIP3    H139726   3.444   5.545   2.248  1.4177 -1.9374 -1.9861
 5177TIP3    H239727   3.558   5.640   2.216  0.0857  0.8081  0.8565
 5178TIP3   OH239728   6.744   6.597   8.624  0.4367  0.4401 -0.3149
 5178TIP3    H139729   6.714   6.628   8.709  1.3935  1.6537 -0.3928
 5178TIP3    H239730   6.827   6.642   8.610  0.4773 -0.0219 -1.7376
 5179TIP3   OH239731   6.448   5.832   8.637 -0.2235 -0.1323  0.6503
 5179TIP3    H139732   6.468   5.752   8.588 -0.7527  0.6850 -0.9631
 5179TIP3    H239733   6.352   5.831   8.645 -0.3118  0.7761 -0.1798
 5180TIP3   OH239734   2.250   0.227   9.029  0.9540 -0.1277  0.4237
 5180TIP3    H139735   2.307   0.172   9.084 -2.0855 -2.0969  1.8914
 5180TIP3    H239736   2.228   0.172   8.954  0.4113  0.3263  0.2426
 5181TIP3   OH239737   0.910   1.352   1.419  0.1360  0.7177  0.5222
 5181TIP3    H139738   0.828   1.371   1.373 -0.0155  0.5460  0.7241
 5181TIP3    H239739   0.912   1.415   1.490  0.3279  0.9237  0.3356
 5182TIP3   OH239740   0.548   0.926   2.183 -0.3504  0.1241  0.2354
 5182TIP3    H139741   0.607   1.000   2.168  0.7356 -0.3507  1.8888
 5182TIP3    H239742   0.573   0.862   2.116  1.4031 -0.2565  1.1869
 5183TIP3   OH239743   6.966   6.015   0.566  0.1371 -0.1344  0.3871
 5183TIP3    H139744   6.900   6.072   0.606 -0.1538  0.1832 -0.5425
 5183TIP3    H239745   7.048   6.062   0.576 -0.2618  1.0318 -1.4284
 5184TIP3   OH239746   1.412   1.730   1.683  0.5652  0.1729  0.6733
 5184TIP3    H139747   1.371   1.644   1.678 -0.7577  0.8202 -2.6180
 5184TIP3    H239748   1.369   1.773   1.757 -0.6124 -1.1366  0.7863
 5185TIP3   OH239749   3.920   2.709   0.953  0.2981 -0.3052 -0.4406
 5185TIP3    H139750   3.870   2.738   1.029  0.1078 -1.8993  0.0873
 5185TIP3    H239751   4.010   2.734   0.973  0.2908 -0.9419  0.4503
 5186TIP3   OH239752   6.030   7.012   1.353  0.0538 -0.5007 -0.4123
 5186TIP3    H139753   6.117   7.023   1.390  0.3946 -2.9787 -0.3377
 5186TIP3    H239754   5.975   7.070   1.406  1.3204 -0.4229  0.9014
 5187TIP3   OH239755   1.717   0.848   7.593  0.5250  0.2618 -0.2342
 5187TIP3    H139756   1.799   0.833   7.640  1.7440  2.6890 -1.3776
 5187TIP3    H239757   1.713   0.943   7.583 -3.5634  0.4986  1.6305
 5188TIP3   OH239758   6.759   5.511   8.453  0.1342 -0.4238  0.6974
 5188TIP3    H139759   6.728   5.602   8.447  1.6977  0.1171  0.1406
 5188TIP3    H239760   6.824   5.504   8.383  0.0048 -2.0127  0.7015
 5189TIP3   OH239761   6.624   3.036   2.418  0.3126  0.1113  0.0180
 5189TIP3    H139762   6.553   3.025   2.481  2.2079 -1.9035  1.9939
 5189TIP3    H239763   6.624   2.955   2.367  0.0040  0.9293 -1.3332
 5190TIP3   OH239764   0.178   6.927   9.080 -0.2087 -0.3791 -0.6701
 5190TIP3    H139765   0.251   6.988   9.075  0.1336 -0.8668 -2.0326
 5190TIP3    H239766   0.101   6.982   9.092  0.0659  0.3576 -2.0992
 5191TIP3   OH239767   7.081   3.360   9.811 -0.1813  0.2582 -0.3333
 5191TIP3    H139768   7.049   3.272   9.828 -1.2389  1.1468  2.9912
 5191TIP3    H239769   7.075   3.370   9.716 -0.0541 -3.1869 -0.8023
 5192TIP3   OH239770   0.907   5.007   2.507  0.0316  0.4318 -0.2729
 5192TIP3    H139771   0.976   5.067   2.533  2.1238 -0.5674 -3.0666
 5192TIP3    H239772   0.856   5.056   2.443  0.3697 -0.0247 -0.8926
 5193TIP3   OH239773   7.499   4.558   2.000  0.3211 -0.8251  0.0376
 5193TIP3    H139774   7.428   4.495   2.001  0.1946 -0.7199 -1.1218
 5193TIP3    H239775   7.474   4.624   2.065 -1.1584 -0.2560 -1.0618
 5194TIP3   OH239776   0.104   3.912   8.776 -0.2916 -0.1631  0.4448
 5194TIP3    H139777   0.139   3.895   8.863  0.2135  0.6488  0.4130
 5194TIP3    H239778   0.015   3.942   8.791 -0.8486 -1.7453  0.5585
 5195TIP3   OH239779   5.350   3.178   2.489  0.4104 -0.4634  0.1502
 5195TIP3    H139780   5.429   3.124   2.480  0.6710 -0.2719  1.2129
 5195TIP3    H239781   5.283   3.129   2.442  1.0501 -0.8613 -0.3674
 5196TIP3   OH239782   7.443   6.907   2.019 -0.0330  0.0369  0.0323
 5196TIP3    H139783   7.369   6.963   2.041  1.3639  2.4136 -0.9548
 5196TIP3    H239784   7.511   6.930   2.082  0.4843 -0.8302 -0.1803
 5197TIP3   OH239785   2.021   6.386   7.365  0.3809 -0.0065 -0.1000
 5197TIP3    H139786   1.942   6.440   7.372  0.3288 -0.0845 -0.0944
 5197TIP3    H239787   2.034   6.351   7.454  1.4739  1.5049  0.4007
 5198TIP3   OH239788   2.445   1.492   0.441  0.6246  0.4027  0.1397
 5198TIP3    H139789   2.471   1.526   0.355 -1.5955 -0.0038 -0.7732
 5198TIP3    H239790   2.460   1.398   0.434  1.9560  0.5525  0.8073
 5199TIP3   OH239791   3.032   2.726   9.695 -0.7224 -0.3366  0.1842
 5199TIP3    H139792   2.937   2.719   9.706 -0.7886 -0.5875 -0.4788
 5199TIP3    H239793   3.060   2.783   9.766 -1.4354  0.1413  0.0956
 5200TIP3   OH239794   6.940   1.405   9.121 -0.3373 -0.4998  0.3160
 5200TIP3    H139795   6.894   1.322   9.130 -1.3871  0.0064 -0.1600
 5200TIP3    H239796   6.881   1.460   9.069 -0.3510  1.0545  1.8842
 5201TIP3   OH239797   7.545   7.057   9.521 -0.5684 -0.4005 -0.7589
 5201TIP3    H139798   7.577   6.988   9.462 -0.5064 -0.7620 -0.3042
 5201TIP3    H239799   7.455   7.030   9.542 -0.4340 -0.5155 -0.3211
 5202TIP3   OH239800   6.745   0.388   2.110 -0.0859 -0.0333  0.0253
 5202TIP3    H139801   6.735   0.471   2.158  1.7854  0.3825 -0.2409
 5202TIP3    H239802   6.778   0.327   2.176  0.5141 -0.0157 -0.2615
 5203TIP3   OH239803   3.076   3.175   8.182  0.3847  0.1091  0.2542
 5203TIP3    H139804   3.163   3.141   8.163 -0.4850 -1.1721 -1.8975
 5203TIP3    H239805   3.055   3.142   8.269  1.8914  0.1736  0.6685
 5204TIP3   OH239806   2.177   7.273   8.394  0.6100 -0.2749 -0.5566
 5204TIP3    H139807   2.133   7.258   8.310  1.0720 -2.1983 -0.4884
 5204TIP3    H239808   2.262   7.229   8.385  0.5250 -0.8400  1.0396
 5205TIP3   OH239809   2.649   2.639   2.872  0.8927 -0.0925  0.0579
 5205TIP3    H139810   2.585   2.674   2.934 -0.5436 -1.5983 -0.5060
 5205TIP3    H239811   2.661   2.710   2.808 -2.2734 -0.6004 -1.3062
 5206TIP3   OH239812   6.760   6.171   2.064 -0.2828 -0.2655 -0.0354
 5206TIP3    H139813   6.820   6.239   2.096 -1.4368  0.3426  0.8969
 5206TIP3    H239814   6.755   6.108   2.136 -0.4857 -0.5124 -0.2638
 5207TIP3   OH239815   5.598   4.539   1.290  0.2649 -0.3399  0.2233
 5207TIP3    H139816   5.640   4.577   1.368  0.6866 -1.4241  0.5379
 5207TIP3    H239817   5.629   4.593   1.217  2.7671 -1.5060  0.3556
 5208TIP3   OH239818   1.242   0.176   1.089 -0.0903 -0.0088 -0.1397
 5208TIP3    H139819   1.217   0.103   1.146 -0.2062  1.1293  1.3321
 5208TIP3    H239820   1.264   0.135   1.005 -0.2711 -1.7059  0.6049
 5209TIP3   OH239821   7.638   5.495   0.896 -0.3255 -0.2040 -0.0421
 5209TIP3    H139822   7.612   5.559   0.962 -0.4333 -0.5717  0.2717
 5209TIP3    H239823   7.647   5.413   0.944 -0.3805 -0.4688 -0.4808
 5210TIP3   OH239824   2.633   3.557   8.858 -0.2249 -0.0651 -0.2720
 5210TIP3    H139825   2.646   3.649   8.880 -1.1907  0.0618 -0.1928
 5210TIP3    H239826   2.674   3.509   8.930 -0.5569  0.3202  0.1828
 5211TIP3   OH239827   4.946   1.529   8.985 -0.3190  0.0748  0.1579
 5211TIP3    H139828   4.895   1.487   9.054  0.0853 -1.6960 -0.5556
 5211TIP3    H239829   5.026   1.558   9.029 -0.0035 -1.1588  0.4390
 5212TIP3   OH239830   1.717   0.080   0.859  0.4533 -0.6771  0.1605
 5212TIP3    H139831   1.713   0.132   0.939  0.9461 -1.2670  0.5808
 5212TIP3    H239832   1.723  -0.011   0.890  0.9195 -0.8901 -0.5363
 5213TIP3   OH239833   2.836   4.430   9.114  0.3174 -0.3499  0.7687
 5213TIP3    H139834   2.841   4.523   9.093 -0.5825 -0.3777  0.3858
 5213TIP3    H239835   2.927   4.400   9.114  0.5187 -0.0493 -1.8598
 5214TIP3   OH239836   5.922   7.284   1.454 -0.3260  0.6954  0.6438
 5214TIP3    H139837   5.888   7.262   1.541  0.3710 -2.1258  0.2847
 5214TIP3    H239838   6.003   7.333   1.472 -0.5595  0.7689  1.5489
 5215TIP3   OH239839   7.521   0.074   1.186  0.1778  0.0711 -0.1291
 5215TIP3    H139840   7.582   0.008   1.151 -0.3004 -0.1377 -0.5884
 5215TIP3    H239841   7.483   0.115   1.108 -1.0299 -0.5096  0.1272
 5216TIP3   OH239842   7.359   5.055   9.069  0.3940  0.3646  0.2795
 5216TIP3    H139843   7.442   5.087   9.106  0.3811  1.2113 -0.3893
 5216TIP3    H239844   7.295   5.069   9.139  0.2142  2.6979 -0.2512
 5217TIP3   OH239845   1.851   0.575   0.376  0.2215 -0.3154 -0.2992
 5217TIP3    H139846   1.768   0.606   0.339 -0.8308 -0.0381  2.1423
 5217TIP3    H239847   1.867   0.632   0.451  0.9464 -2.3734  1.1954
 5218TIP3   OH239848   3.036   0.513   7.736  0.0174  0.1885 -0.2450
 5218TIP3    H139849   3.104   0.473   7.790  1.0084 -1.4906 -2.5967
 5218TIP3    H239850   2.973   0.548   7.799  1.9406 -0.1402  1.9830
 5219TIP3   OH239851   2.464   3.966   9.341  0.3111 -0.3602 -0.0622
 5219TIP3    H139852   2.388   4.021   9.361  2.6997  2.9617  0.5881
 5219TIP3    H239853   2.464   3.900   9.411 -2.0552 -0.6720 -0.2504
 5220TIP3   OH239854   6.173   5.689   7.743 -0.4604 -0.0969  0.4311
 5220TIP3    H139855   6.179   5.783   7.759 -0.5242 -0.1157  0.5592
 5220TIP3    H239856   6.223   5.676   7.661 -1.2239  0.1806 -0.0883
 5221TIP3   OH239857   0.025   4.725   0.076  0.2096 -0.0998 -0.1101
 5221TIP3    H139858  -0.051   4.717   0.133  1.7593 -0.3857  2.0634
 5221TIP3    H239859   0.040   4.819   0.068  0.3513 -0.0666  0.5048
 5222TIP3   OH239860   7.319   3.654   1.690  0.0976 -0.2065  0.1516
 5222TIP3    H139861   7.332   3.658   1.595 -1.3146 -1.4899 -0.1316
 5222TIP3    H239862   7.305   3.745   1.716 -1.4598 -0.0166 -1.2016
 5223TIP3   OH239863   6.735   1.801   0.762  0.6763 -0.6468  0.1919
 5223TIP3    H139864   6.784   1.782   0.683  1.0059  1.1737 -0.0915
 5223TIP3    H239865   6.770   1.885   0.792 -0.4159 -0.6187  1.4846
 5224TIP3   OH239866   2.532   5.742   2.165  0.1380  0.2726  0.2116
 5224TIP3    H139867   2.561   5.652   2.181  1.1695  0.4845 -0.3867
 5224TIP3    H239868   2.485   5.766   2.245 -1.7823 -1.4012 -0.2968
 5225TIP3   OH239869   4.810   7.613   9.638  0.2890  0.3364 -0.2608
 5225TIP3    H139870   4.727   7.660   9.626  0.8375  0.9410 -1.9425
 5225TIP3    H239871   4.876   7.682   9.640  0.7807 -0.1479  0.9896
 5226TIP3   OH239872   4.469   4.806   0.755  0.6672  0.3327  0.3796
 5226TIP3    H139873   4.563   4.818   0.772  1.0103  0.0061 -1.1294
 5226TIP3    H239874   4.436   4.895   0.739  1.1925  0.2802 -1.1940
 5227TIP3   OH239875   2.314   6.591   1.243  0.2600 -0.0617 -0.4612
 5227TIP3    H139876   2.254   6.521   1.269 -0.4525  0.0717 -1.7130
 5227TIP3    H239877   2.348   6.564   1.158  1.2858  0.3140 -0.1962
 5228TIP3   OH239878   7.036   1.973   8.677  0.7043  0.0620 -0.0816
 5228TIP3    H139879   6.984   2.032   8.622 -0.3693 -0.7324  0.0546
 5228TIP3    H239880   7.125   1.982   8.645  0.1331 -0.2448 -1.8381
 5229TIP3   OH239881   6.023   6.062   9.691 -0.1910 -1.0029 -0.9509
 5229TIP3    H139882   5.938   6.063   9.646  0.2445 -2.1170 -1.8582
 5229TIP3    H239883   6.077   6.003   9.638  0.6673 -1.5631  0.4983
 5230TIP3   OH239884   4.237   5.266   0.690 -0.3302  0.0623  0.0689
 5230TIP3    H139885   4.259   5.310   0.608  1.2940  0.4288  0.6710
 5230TIP3    H239886   4.233   5.336   0.755 -1.1949 -0.2795  0.4087
 5231TIP3   OH239887   6.734   3.719   1.425 -0.0390 -0.6384 -0.2667
 5231TIP3    H139888   6.724   3.780   1.352 -1.1338 -2.7641 -2.0115
 5231TIP3    H239889   6.707   3.770   1.502  2.4276  2.1027 -0.9949
 5232TIP3   OH239890   2.243   0.564   0.810  0.0559 -0.1581 -0.1288
 5232TIP3    H139891   2.324   0.553   0.760 -0.8085 -1.9436 -1.2448
 5232TIP3    H239892   2.179   0.594   0.745 -0.4359  0.2511  0.5263
 5233TIP3   OH239893   0.823   4.246   2.460  0.2555  0.1357  0.0076
 5233TIP3    H139894   0.877   4.174   2.427 -0.5988 -0.4751 -0.1140
 5233TIP3    H239895   0.800   4.220   2.549 -0.3153  0.1067 -0.1456
 5234TIP3   OH239896   6.009   3.793   8.481  0.0888 -0.0412 -0.5330
 5234TIP3    H139897   6.061   3.864   8.445  0.4219 -0.0212 -0.0202
 5234TIP3    H239898   6.047   3.714   8.443  0.4353 -0.0195 -0.2415
 5235TIP3   OH239899   3.526   3.442   7.228 -0.0934 -0.0170 -0.2479
 5235TIP3    H139900   3.468   3.516   7.207 -0.5818 -0.1312  0.6289
 5235TIP3    H239901   3.588   3.438   7.155 -0.3136  1.0031 -0.5049
 5236TIP3   OH239902   5.437   2.801   8.418 -0.4150 -0.1301  0.0829
 5236TIP3    H139903   5.412   2.794   8.326 -1.0854 -0.7412  0.2967
 5236TIP3    H239904   5.358   2.834   8.461  0.8337  3.3107  0.0147
 5237TIP3   OH239905   4.133   3.399   1.439 -0.2155  0.2514 -0.9004
 5237TIP3    H139906   4.213   3.450   1.426  0.4855 -0.5985 -0.0309
 5237TIP3    H239907   4.162   3.308   1.441 -1.2749 -0.1074 -1.1037
 5238TIP3   OH239908   2.196   0.433   8.826  0.2656  0.5656 -0.0249
 5238TIP3    H139909   2.165   0.372   8.760 -0.4913  0.9999 -0.0787
 5238TIP3    H239910   2.233   0.377   8.895  0.1735  0.0791 -0.3663
 5239TIP3   OH239911   2.127   4.259   2.283 -0.1857 -0.5253 -0.2151
 5239TIP3    H139912   2.159   4.185   2.335  0.4322  0.1416  0.3860
 5239TIP3    H239913   2.056   4.296   2.335 -1.0096 -1.1464 -0.8785
 5240TIP3   OH239914   0.897   1.403   2.167  0.6677 -0.0201  0.4506
 5240TIP3    H139915   0.805   1.402   2.196  0.9262  0.2321  1.2903
 5240TIP3    H239916   0.924   1.494   2.177  1.3226 -0.2904  1.2018
 5241TIP3   OH239917   5.992   2.320   9.371 -0.5674  0.1673  0.6899
 5241TIP3    H139918   5.938   2.370   9.432  0.1935  0.7619  0.8824
 5241TIP3    H239919   5.951   2.233   9.369 -0.2987 -0.0355  2.4697
 5242TIP3   OH239920   2.916   6.808   1.285  0.0354 -0.8917  0.1943
 5242TIP3    H139921   2.835   6.773   1.248 -1.0543 -0.4294  1.9974
 5242TIP3    H239922   2.902   6.903   1.288  2.1200 -0.3350 -2.7078
 5243TIP3   OH239923   4.581   3.638   8.243  0.4348 -0.4171 -0.6548
 5243TIP3    H139924   4.668   3.675   8.259  1.1761 -2.6300  0.8795
 5243TIP3    H239925   4.592   3.584   8.165  0.1087  0.2722 -1.1812
 5244TIP3   OH239926   2.124   3.634   6.538 -0.4827 -0.3467  0.0401
 5244TIP3    H139927   2.037   3.667   6.560 -0.3706 -0.3226  0.4494
 5244TIP3    H239928   2.184   3.686   6.593 -0.3039 -1.2705  0.7381
 5245TIP3   OH239929   2.314   3.723   8.308  0.0007  0.2251  0.1320
 5245TIP3    H139930   2.294   3.742   8.217 -0.9257 -0.5568  0.1498
 5245TIP3    H239931   2.304   3.807   8.353  1.3664  0.8109 -0.6051
 5246TIP3   OH239932   4.531   5.750   9.873  0.3768  0.1040 -0.1761
 5246TIP3    H139933   4.535   5.756   9.777  0.7948 -0.2316 -0.1862
 5246TIP3    H239934   4.559   5.660   9.892 -2.4323 -0.7982  0.1195
 5247TIP3   OH239935   6.577   0.376   8.652  0.2919  0.4723 -0.0329
 5247TIP3    H139936   6.535   0.393   8.567  0.9512  1.3477 -0.1900
 5247TIP3    H239937   6.668   0.355   8.630  0.6655  1.4819  0.5057
 5248TIP3   OH239938   1.357   0.212   8.775 -0.0306  0.3091 -0.3902
 5248TIP3    H139939   1.434   0.223   8.719  1.6464  2.8017  2.1455
 5248TIP3    H239940   1.311   0.295   8.770 -1.8062 -0.6408 -0.7092
 5249TIP3   OH239941   5.424   6.629   9.075 -0.3620 -0.0889 -0.2928
 5249TIP3    H139942   5.416   6.596   9.165 -0.1133 -2.7274 -1.1360
 5249TIP3    H239943   5.494   6.693   9.079  1.1547 -1.7103  1.0750
 5250TIP3   OH239944   6.140   5.362   1.473  0.2270  0.3389  0.3285
 5250TIP3    H139945   6.205   5.412   1.424  1.6976 -1.3674  0.4137
 5250TIP3    H239946   6.166   5.372   1.564  1.2655 -1.4466  0.2736
 5251TIP3   OH239947   7.575   0.114   2.472  0.4379 -0.3289  0.3089
 5251TIP3    H139948   7.486   0.150   2.468  0.4373 -0.4552 -1.2286
 5251TIP3    H239949   7.628   0.185   2.508 -0.3333 -0.4135  1.7224
 5252TIP3   OH239950   0.354   4.121   8.214 -0.1116  0.2291  0.2341
 5252TIP3    H139951   0.433   4.098   8.263  0.2169  1.1473  0.1682
 5252TIP3    H239952   0.282   4.096   8.271  0.2101 -1.1100  0.0715
 5253TIP3   OH239953   0.787   5.241   2.055 -0.4280 -0.4159  0.6716
 5253TIP3    H139954   0.847   5.196   1.995  0.3044  0.7488  0.4895
 5253TIP3    H239955   0.709   5.258   2.002 -0.1908 -0.3152  0.3494
 5254TIP3   OH239956   1.133   5.432   0.293  0.5370  0.4377 -0.1548
 5254TIP3    H139957   1.134   5.494   0.366  1.0241 -0.5075  0.6569
 5254TIP3    H239958   1.199   5.467   0.232  1.1799  0.4482  0.5319
 5255TIP3   OH239959   0.290   3.907   9.760  0.2246  0.4920 -0.2573
 5255TIP3    H139960   0.230   3.903   9.685  0.0070  0.7477 -0.1032
 5255TIP3    H239961   0.363   3.961   9.730 -0.4699  1.6887  0.1123
 5256TIP3   OH239962   2.087   3.171   2.967  0.1081  0.4202 -0.6706
 5256TIP3    H139963   2.044   3.149   2.884 -0.9467 -1.5183  0.3226
 5256TIP3    H239964   2.148   3.099   2.982  0.0728  0.6004  0.3779
 5257TIP3   OH239965   2.151   7.175   8.126  0.2701  0.5936  0.0878
 5257TIP3    H139966   2.124   7.091   8.164  1.7179 -0.0071 -0.1447
 5257TIP3    H239967   2.239   7.159   8.094 -0.2152  1.5967 -1.9003
 5258TIP3   OH239968   2.836   3.663   8.379 -0.6898  0.5686 -0.1342
 5258TIP3    H139969   2.914   3.712   8.405  0.5971 -0.6469 -1.5298
 5258TIP3    H239970   2.803   3.626   8.461  0.8279  0.2259  0.3636
 5259TIP3   OH239971   3.748   7.093   9.637  0.2648  0.5946  0.4465
 5259TIP3    H139972   3.802   7.124   9.565 -0.0461  0.8359  0.3147
 5259TIP3    H239973   3.802   7.028   9.682  0.5922  0.7033  0.2091
 5260TIP3   OH239974   5.896   6.051   2.472  0.2554 -0.4517  0.0799
 5260TIP3    H139975   5.951   6.121   2.508  0.4770  0.8496 -2.5420
 5260TIP3    H239976   5.807   6.077   2.493  0.4453 -1.2550  2.1262
 5261TIP3   OH239977   6.877   4.932   0.274 -0.3355 -0.4953 -0.8693
 5261TIP3    H139978   6.928   4.952   0.195 -1.9698 -2.4600 -2.5703
 5261TIP3    H239979   6.880   4.836   0.280 -0.7608 -0.4193  1.1303
 5262TIP3   OH239980   6.129   7.413   9.320 -0.3574 -0.1587  0.0106
 5262TIP3    H139981   6.102   7.441   9.233 -0.7970  1.5529  0.6474
 5262TIP3    H239982   6.222   7.437   9.325 -0.4929  0.3580  0.2125
 5263TIP3   OH239983   4.432   6.340   8.104 -0.2612 -0.0932  0.2421
 5263TIP3    H139984   4.492   6.391   8.050  1.2124 -0.7235  1.2197
 5263TIP3    H239985   4.364   6.402   8.131 -1.2239  0.1854 -2.4802
 5264TIP3   OH239986   1.890   5.098   1.416  0.0426  0.0964  0.1676
 5264TIP3    H139987   1.980   5.107   1.449 -0.2351  0.7911  0.7598
 5264TIP3    H239988   1.900   5.054   1.331  0.8473 -0.8059  0.7194
 5265TIP3   OH239989   5.979   3.172   0.073  0.0907 -0.1167  0.6017
 5265TIP3    H139990   6.031   3.134   0.144  1.3598 -0.3589 -0.4246
 5265TIP3    H239991   5.947   3.097   0.024  0.2772  0.0720  0.1860
 5266TIP3   OH239992   5.699   0.283   9.297  0.7023 -0.1723 -0.1886
 5266TIP3    H139993   5.753   0.204   9.296  2.6114  1.0831 -1.4391
 5266TIP3    H239994   5.694   0.310   9.206 -1.3562  0.2538  0.0052
 5267TIP3   OH239995   5.793   0.288   1.862  0.1118  0.1003 -0.0706
 5267TIP3    H139996   5.716   0.344   1.866  0.7407  0.9816 -0.1851
 5267TIP3    H239997   5.821   0.280   1.953 -1.5864 -2.3583  0.3533
 5268TIP3   OH239998   3.020   6.660   2.104 -0.2263 -0.1229  0.0897
 5268TIP3    H139999   3.068   6.627   2.028  0.8198 -1.4221  1.2714
 5268TIP3    H240000   2.987   6.745   2.076  0.6522 -0.2946 -1.6054
 5269TIP3   OH240001   0.660   3.456   9.476 -0.2838  0.2685 -0.3779
 5269TIP3    H140002   0.587   3.517   9.485 -1.3894 -0.7374 -2.0064
 5269TIP3    H240003   0.642   3.387   9.540 -1.1667 -0.3312 -1.2503
 5270TIP3   OH240004   4.267   4.352   8.232  0.0197  0.1985 -0.0175
 5270TIP3    H140005   4.291   4.301   8.155 -0.3608 -0.6226  0.3952
 5270TIP3    H240006   4.240   4.437   8.197  0.0246 -0.1027 -0.7692
 5271TIP3   OH240007   4.735   2.669   1.266 -0.9741  0.2878 -0.6184
 5271TIP3    H140008   4.700   2.721   1.338  2.1488 -1.1994  2.2962
 5271TIP3    H240009   4.760   2.733   1.200 -0.4034  2.2200  1.3421
 5272TIP3   OH240010   4.597   3.324   9.192  0.5809  0.1011 -0.1254
 5272TIP3    H140011   4.542   3.250   9.168  0.1773  0.4190 -0.1887
 5272TIP3    H240012   4.681   3.284   9.215  0.7585 -0.2808 -1.3331
 5273TIP3   OH240013   1.622   2.897   7.513 -0.4042 -0.0533  0.2605
 5273TIP3    H140014   1.544   2.916   7.461  1.1232  0.4348 -1.9863
 5273TIP3    H240015   1.620   2.802   7.525 -0.1000 -0.3812 -1.9682
 5274TIP3   OH240016   3.437   2.289   7.932  0.6073  0.0749  0.0218
 5274TIP3    H140017   3.522   2.312   7.895  0.6588  1.3407  0.8888
 5274TIP3    H240018   3.440   2.320   8.022  0.0293 -1.8618  0.7768
 5275TIP3   OH240019   6.401   3.607   9.233 -0.3294 -0.0273 -0.0950
 5275TIP3    H140020   6.409   3.652   9.317 -0.9041 -0.7157  0.3453
 5275TIP3    H240021   6.438   3.668   9.170 -0.7743  0.9230  0.5276
 5276TIP3   OH240022   2.232   3.815   0.036 -0.3747  0.2668  0.7788
 5276TIP3    H140023   2.242   3.833  -0.057 -0.6002  0.6921  0.8316
 5276TIP3    H240024   2.222   3.901   0.076  1.7444  0.2330  1.4652
 5277TIP3   OH240025   3.389   1.858   1.758 -0.0482 -0.2760 -0.1395
 5277TIP3    H140026   3.474   1.863   1.714 -0.6973  0.1954 -1.3720
 5277TIP3    H240027   3.336   1.926   1.716 -2.1100 -2.7307 -1.8169
 5278TIP3   OH240028   1.138   7.323   0.389  0.7777 -0.1940  0.1420
 5278TIP3    H140029   1.164   7.403   0.435 -0.1555  0.0206  0.3237
 5278TIP3    H240030   1.053   7.300   0.426  0.4367 -0.5447 -0.8080
 5279TIP3   OH240031   7.047   1.152   1.565 -0.5158 -0.2448  0.0901
 5279TIP3    H140032   7.088   1.214   1.506 -0.4568 -0.9110 -0.5889
 5279TIP3    H240033   7.102   1.073   1.558 -1.0428 -0.6386  0.3199
 5280TIP3   OH240034   6.634   0.615   8.133 -0.0559  0.1621  0.2137
 5280TIP3    H140035   6.627   0.710   8.119  0.7504  0.1890 -0.0674
 5280TIP3    H240036   6.627   0.578   8.045 -0.9449 -0.0913  0.3787
 5281TIP3   OH240037   0.468   2.588   8.775  0.4813  0.2762  0.2675
 5281TIP3    H140038   0.513   2.628   8.849 -0.7157  0.9928  0.6301
 5281TIP3    H240039   0.517   2.619   8.698  1.1220  0.3352  0.6950
 5282TIP3   OH240040   0.405   1.149   8.056 -0.4530 -0.0127 -0.1675
 5282TIP3    H140041   0.458   1.069   8.045  1.3631  1.0549  0.4612
 5282TIP3    H240042   0.462   1.210   8.102 -2.4129  1.0807  0.9431
 5283TIP3   OH240043   6.400   5.834   9.665  0.0783 -0.4513 -0.3072
 5283TIP3    H140044   6.494   5.848   9.648 -0.0008 -0.2469 -0.5821
 5283TIP3    H240045   6.398   5.791   9.751  0.3378  1.1468  0.5435
 5284TIP3   OH240046   5.253   1.794   0.658 -0.2729  0.3073  0.3202
 5284TIP3    H140047   5.200   1.805   0.579  0.0841 -2.4161 -0.3956
 5284TIP3    H240048   5.329   1.851   0.644 -0.3261  0.0432 -1.2272
 5285TIP3   OH240049   1.039   1.403   8.906 -0.0642 -0.1912 -0.3283
 5285TIP3    H140050   1.101   1.391   8.978 -0.4497 -0.2457 -0.0045
 5285TIP3    H240051   0.954   1.412   8.948 -0.2182  0.3801 -0.7460
 5286TIP3   OH240052   2.348   2.103   9.720  0.9163 -0.0101 -0.6541
 5286TIP3    H140053   2.278   2.059   9.671  1.6510 -0.5484 -1.2621
 5286TIP3    H240054   2.312   2.188   9.742  0.7746  0.5316 -2.7629
 5287TIP3   OH240055   6.034   1.542   7.501 -0.3699  0.2859  0.0581
 5287TIP3    H140056   6.015   1.609   7.566  1.0522  0.7261  0.0498
 5287TIP3    H240057   5.965   1.551   7.436 -1.8925 -0.2485  1.5342
 5288TIP3   OH240058   5.965   7.230   9.040  0.2778  0.1684 -0.2226
 5288TIP3    H140059   5.997   7.157   9.093  0.3189  0.7963  0.6349
 5288TIP3    H240060   6.035   7.247   8.978  2.4551  2.5087  2.5771
 5289TIP3   OH240061   2.305   0.874   1.172 -0.1145 -0.1752 -0.3502
 5289TIP3    H140062   2.375   0.830   1.123  0.6230 -0.7940  1.2082
 5289TIP3    H240063   2.351   0.925   1.238 -1.1404 -0.7705  0.8616
 5290TIP3   OH240064   1.278   2.513   8.045 -0.5410  0.0640  0.3470
 5290TIP3    H140065   1.185   2.526   8.027 -0.4053  0.0793 -0.3859
 5290TIP3    H240066   1.292   2.553   8.130 -1.0534  0.7331  0.1249
 5291TIP3   OH240067   2.600   2.504   7.530 -0.1546 -0.2449  0.1662
 5291TIP3    H140068   2.573   2.512   7.439  1.7734  1.4221 -0.3318
 5291TIP3    H240069   2.574   2.586   7.571 -2.2076 -1.4786  1.5457
 5292TIP3   OH240070   5.040   7.326   0.331 -0.1117  0.4677  0.2481
 5292TIP3    H140071   5.113   7.358   0.278 -0.7546  0.9108 -0.3969
 5292TIP3    H240072   4.973   7.394   0.323  0.1329  1.0539  2.4665
 5293TIP3   OH240073   2.350   5.394   0.886  0.1189 -0.4078 -0.9221
 5293TIP3    H140074   2.271   5.339   0.883  0.1365 -0.6753  1.7088
 5293TIP3    H240075   2.322   5.474   0.931  1.3157 -0.4686 -0.0224
 5294TIP3   OH240076   5.269   0.891   8.361  0.4050 -0.1483  0.3609
 5294TIP3    H140077   5.249   0.848   8.277 -0.0170  0.8696 -0.0843
 5294TIP3    H240078   5.356   0.929   8.348  0.7303 -0.7644  0.7147
 5295TIP3   OH240079   5.693   5.508   9.898  0.0889 -0.4240  0.0541
 5295TIP3    H140080   5.720   5.417   9.900 -0.1713 -0.5813 -1.8707
 5295TIP3    H240081   5.774   5.557   9.884  0.0882 -0.4561 -0.0651
 5296TIP3   OH240082   7.574   1.048   9.951  0.0640  0.7963  0.3741
 5296TIP3    H140083   7.627   1.086  10.021  0.8484 -1.4569  1.0565
 5296TIP3    H240084   7.490   1.029   9.993 -0.2301  1.4361  0.1013
 5297TIP3   OH240085   1.571   5.638   0.664 -1.0928 -0.1861 -0.6747
 5297TIP3    H140086   1.607   5.562   0.708 -0.9439 -0.1467 -0.7278
 5297TIP3    H240087   1.532   5.691   0.733 -1.3005 -0.3667 -0.6514
 5298TIP3   OH240088   1.715   0.864   1.462  0.1417 -0.6261 -0.8314
 5298TIP3    H140089   1.793   0.893   1.508 -2.1752  0.8347  2.5814
 5298TIP3    H240090   1.724   0.900   1.374  2.5076  0.9035 -0.0511
 5299TIP3   OH240091   0.275   1.785   7.247 -0.4853  0.3431 -0.4352
 5299TIP3    H140092   0.352   1.837   7.268 -0.5201  0.5226 -0.7528
 5299TIP3    H240093   0.288   1.756   7.157  0.2402 -1.4565  0.2102
 5300TIP3   OH240094   4.938   5.764   7.540  0.7719  0.0245  0.0159
 5300TIP3    H140095   4.984   5.847   7.544 -0.2732  0.7192 -1.4425
 5300TIP3    H240096   4.847   5.788   7.522 -0.1111 -1.3121  2.2866
 5301TIP3   OH240097   1.572   6.265   0.933  0.4248 -0.0423  0.1801
 5301TIP3    H140098   1.511   6.322   0.982  0.0931 -0.1600 -0.0893
 5301TIP3    H240099   1.654   6.314   0.931  0.2728  0.2244  0.3514
 5302TIP3   OH240100   2.687   2.290   8.926  0.6431  0.0060 -0.3318
 5302TIP3    H140101   2.763   2.337   8.890  1.0983 -0.7296 -0.3479
 5302TIP3    H240102   2.682   2.320   9.017  0.5468  0.5594 -0.5178
 5303TIP3   OH240103   5.562   2.496   2.397  0.3781  0.2419  0.0195
 5303TIP3    H140104   5.658   2.499   2.406  0.3523  0.8114  0.1364
 5303TIP3    H240105   5.541   2.402   2.398  0.4632  0.0128  4.8891
 5304TIP3   OH240106   3.626   0.284   2.147  0.5981 -0.0027  0.0748
 5304TIP3    H140107   3.542   0.329   2.137  0.9765  0.6338 -0.2827
 5304TIP3    H240108   3.675   0.339   2.208  1.3082  0.4312 -0.8659
 5305TIP3   OH240109   6.999   2.116   9.214  0.0509 -0.2504  0.1746
 5305TIP3    H140110   7.079   2.065   9.232  0.1587  0.3876  1.6401
 5305TIP3    H240111   7.019   2.164   9.134  1.5863  0.7461  1.1068
 5306TIP3   OH240112   1.873   2.659   9.423  0.6236  0.3971  0.1458
 5306TIP3    H140113   1.784   2.643   9.452  0.6270  0.0890 -0.0068
 5306TIP3    H240114   1.903   2.574   9.390  0.5644  0.7741 -0.9041
 5307TIP3   OH240115   3.327   4.488   9.017  0.4968 -0.3536  0.5270
 5307TIP3    H140116   3.245   4.441   9.002  1.0568 -1.7288  1.5736
 5307TIP3    H240117   3.313   4.534   9.100  0.0150  1.2573 -0.4030
 5308TIP3   OH240118   0.534   4.687   0.302  0.4159 -0.3188 -0.2825
 5308TIP3    H140119   0.555   4.735   0.382 -0.3578 -2.1191  1.0484
 5308TIP3    H240120   0.604   4.711   0.241  0.6372  1.6378  0.6548
 5309TIP3   OH240121   1.550   3.117   0.260  0.5240 -0.3700  0.4353
 5309TIP3    H140122   1.514   3.177   0.194  1.8265 -1.5356 -1.4629
 5309TIP3    H240123   1.501   3.036   0.249  1.8644 -1.1211 -0.3536
 5310TIP3   OH240124   6.884   1.686   1.630 -0.5121  0.2073 -0.7406
 5310TIP3    H140125   6.876   1.594   1.604 -1.0357  0.4275 -1.3703
 5310TIP3    H240126   6.853   1.688   1.720 -2.6411  0.1193 -1.4052
 5311TIP3   OH240127   2.569   0.771   0.658 -0.2690  0.1633 -0.3927
 5311TIP3    H140128   2.568   0.816   0.573 -1.0152 -0.1912 -0.5794
 5311TIP3    H240129   2.579   0.679   0.636 -1.4199 -0.0377 -0.1610
 5312TIP3   OH240130   7.606   2.345   1.263  0.4261  0.4103 -0.1373
 5312TIP3    H140131   7.545   2.373   1.195  2.3470  0.4744 -1.9215
 5312TIP3    H240132   7.667   2.418   1.273  2.7358 -1.1624 -1.5315
 5313TIP3   OH240133   5.886   7.571   8.558 -0.0511 -0.3783 -0.1325
 5313TIP3    H140134   5.950   7.505   8.535  0.5210 -0.2495  1.0218
 5313TIP3    H240135   5.883   7.570   8.654  0.3300  1.5786 -0.0578
 5314TIP3   OH240136   0.365   5.853   9.970 -0.0212 -0.1083 -0.2239
 5314TIP3    H140137   0.447   5.819   9.936 -0.6997 -1.0516 -0.9549
 5314TIP3    H240138   0.301   5.835   9.902 -1.2684 -1.3729  1.1931
 5315TIP3   OH240139   5.703   0.659   1.901 -0.4061  0.1613  0.4712
 5315TIP3    H140140   5.723   0.628   1.813  2.4082  0.1710  1.0038
 5315TIP3    H240141   5.649   0.736   1.888  0.3483  0.4354 -1.2951
 5316TIP3   OH240142   5.142   3.266   7.503  0.1505  0.1931 -0.0930
 5316TIP3    H140143   5.124   3.327   7.432  0.7519 -0.0386 -0.4477
 5316TIP3    H240144   5.057   3.224   7.521  0.0556  0.0524 -0.8548
 5317TIP3   OH240145   6.522   1.711   9.543  0.2507  0.0967  0.5303
 5317TIP3    H140146   6.612   1.737   9.524  0.4678 -0.7079  0.4165
 5317TIP3    H240147   6.495   1.661   9.465  0.1884 -0.8511  1.1463
 5318TIP3   OH240148   2.365   1.002   9.188  0.0920  0.2822 -0.1782
 5318TIP3    H140149   2.413   0.938   9.136 -0.0037 -0.4207  0.5811
 5318TIP3    H240150   2.275   0.999   9.155 -0.4332 -1.5868  1.2959
 5319TIP3   OH240151   7.219   0.014   8.834  0.1524 -0.1918 -0.7256
 5319TIP3    H140152   7.182   0.093   8.795 -0.1959 -0.6196 -1.2813
 5319TIP3    H240153   7.285   0.046   8.896  0.1974  0.5191 -1.1298
 5320TIP3   OH240154   5.794   1.141   7.961 -0.3591  0.4308  0.0365
 5320TIP3    H140155   5.753   1.086   8.028 -1.1626  0.8338 -0.1184
 5320TIP3    H240156   5.843   1.079   7.907 -1.0315 -0.1013  0.0252
 5321TIP3   OH240157   6.303   7.660   1.049 -0.1612 -0.0606 -0.0651
 5321TIP3    H140158   6.283   7.611   1.128  0.4045 -0.2140 -0.0066
 5321TIP3    H240159   6.274   7.749   1.067 -0.9219 -0.3026 -0.0578
 5322TIP3   OH240160   3.114   2.502   7.494  0.0128 -0.0317 -0.4157
 5322TIP3    H140161   3.183   2.440   7.515  0.3108  0.6889  0.8353
 5322TIP3    H240162   3.150   2.556   7.424  1.1163  0.9480  0.8675
 5323TIP3   OH240163   6.529   7.273   8.197 -0.1599  0.1606 -0.2325
 5323TIP3    H140164   6.434   7.263   8.199 -0.1368 -0.0114  1.0305
 5323TIP3    H240165   6.543   7.362   8.164 -0.8106  0.6095  0.6619
 5324TIP3   OH240166   2.793   6.067   9.903 -0.2473 -0.2227  0.4034
 5324TIP3    H140167   2.832   6.110   9.827  0.3742 -1.7043 -0.1548
 5324TIP3    H240168   2.710   6.113   9.916 -0.1185  0.4176 -0.8329
 5325TIP3   OH240169   6.995   7.100   7.942  0.3076 -0.7845  0.2046
 5325TIP3    H140170   6.953   7.092   7.856  0.5458 -1.1704  0.1251
 5325TIP3    H240171   6.935   7.156   7.992  0.8069  0.5374 -0.6185
 5326TIP3   OH240172   7.073   0.279   0.060 -0.2401  0.1816  0.1423
 5326TIP3    H140173   7.123   0.320  -0.011  0.4276 -0.1646  0.4008
 5326TIP3    H240174   7.139   0.232   0.111 -0.9663 -1.0827 -0.0606
 5327TIP3   OH240175   1.803   4.630   8.797  0.0254  0.8780 -0.5195
 5327TIP3    H140176   1.755   4.548   8.812 -0.2322  0.6837 -2.1832
 5327TIP3    H240177   1.884   4.620   8.847 -0.8028  0.4106  0.7959
 5328TIP3   OH240178   2.832   6.625   8.439 -0.6563 -0.1734 -0.5418
 5328TIP3    H140179   2.836   6.648   8.532  0.7749  1.3772 -0.9294
 5328TIP3    H240180   2.771   6.689   8.402 -0.4612 -0.1549 -0.8329
 5329TIP3   OH240181   3.226   3.654   0.266 -0.3082  0.3383 -0.5340
 5329TIP3    H140182   3.222   3.695   0.179 -1.0765  1.6651  0.0902
 5329TIP3    H240183   3.199   3.563   0.251  0.0734  0.4105 -1.7593
 5330TIP3   OH240184   3.018   0.225   7.001 -0.8606 -0.1667 -0.5858
 5330TIP3    H140185   3.036   0.156   7.065  0.4050  2.0570  1.6154
 5330TIP3    H240186   3.074   0.205   6.926  0.7012 -0.6850  0.6779
 5331TIP3   OH240187   0.321   0.042   1.249  0.0551  0.2037 -0.4105
 5331TIP3    H140188   0.376   0.083   1.315 -0.4218  0.3734 -0.1078
 5331TIP3    H240189   0.311  -0.048   1.279 -1.9263  0.8029  0.9614
 5332TIP3   OH240190   6.187   1.350   7.601  0.0431  0.0605  0.2220
 5332TIP3    H140191   6.133   1.331   7.678 -0.5870 -0.9269 -0.4256
 5332TIP3    H240192   6.141   1.421   7.556  0.0575  0.1953  0.4212
 5333TIP3   OH240193   6.872   3.577   0.291 -0.0743  0.1571 -0.5828
 5333TIP3    H140194   6.804   3.527   0.246  0.2420  0.4555 -1.4041
 5333TIP3    H240195   6.874   3.540   0.380 -0.7152 -0.4229 -0.8005
 5334TIP3   OH240196   4.650   2.445   9.379  0.0275 -0.3169 -0.1464
 5334TIP3    H140197   4.719   2.470   9.440  1.3426 -0.2818 -1.5722
 5334TIP3    H240198   4.675   2.357   9.350  0.1953  0.1737 -1.5937
 5335TIP3   OH240199   1.762   7.288   9.432 -0.1723  0.1409  0.1351
 5335TIP3    H140200   1.687   7.237   9.401  1.1000 -0.6982 -1.7731
 5335TIP3    H240201   1.813   7.225   9.483  0.0228  0.2670  0.0955
 5336TIP3   OH240202   0.684   0.664   1.347 -0.0331  0.0441  0.4471
 5336TIP3    H140203   0.659   0.626   1.263  0.3618  0.8688 -0.0557
 5336TIP3    H240204   0.720   0.750   1.325  1.2794 -0.2369  1.3342
 5337TIP3   OH240205   3.790   7.464   0.956 -0.7829 -0.6698  0.1459
 5337TIP3    H140206   3.802   7.369   0.954 -0.2854 -0.6196 -2.4465
 5337TIP3    H240207   3.879   7.499   0.956 -0.9637 -0.1854  1.1575
 5338TIP3   OH240208   2.938   0.901   9.000  0.5493  0.4877  0.1163
 5338TIP3    H140209   2.922   0.977   8.944  0.1808 -1.1725 -2.1854
 5338TIP3    H240210   2.981   0.837   8.942 -0.3261 -1.5334  1.5515
 5339TIP3   OH240211   1.736   6.695   0.646  0.6472 -0.1042 -0.0383
 5339TIP3    H140212   1.829   6.674   0.641  0.5910 -0.1465 -1.2825
 5339TIP3    H240213   1.692   6.621   0.604  0.1354  0.3883 -0.3901
 5340TIP3   OH240214   4.127   6.676   9.771 -0.2968  0.3391  0.1515
 5340TIP3    H140215   4.141   6.585   9.745 -1.5970 -0.1610  1.1070
 5340TIP3    H240216   4.209   6.720   9.748  1.3598 -1.6024  1.9241
 5341TIP3   OH240217   0.729   5.148   9.095  0.1213 -0.3500 -0.2979
 5341TIP3    H140218   0.758   5.063   9.127  1.4703 -0.6475 -2.1927
 5341TIP3    H240219   0.746   5.208   9.168  2.0554 -1.1755 -0.0295
 5342TIP3   OH240220   2.643   2.747   9.148  0.3047  0.1931 -0.4364
 5342TIP3    H140221   2.715   2.713   9.201 -0.8903  0.0407  1.1685
 5342TIP3    H240222   2.629   2.836   9.181  0.2937  0.5207 -1.3036
 5343TIP3   OH240223   2.110   3.802   1.808  0.4183 -0.1556 -0.2851
 5343TIP3    H140224   2.143   3.730   1.861  1.2666  0.6269  0.2920
 5343TIP3    H240225   2.182   3.865   1.807 -0.8075  1.3227  0.4224
 5344TIP3   OH240226   7.070   0.530   2.308  0.3718 -0.2155  0.0143
 5344TIP3    H140227   7.070   0.552   2.215  0.1067 -2.4560 -0.5784
 5344TIP3    H240228   7.001   0.585   2.346 -2.5977 -2.2122 -1.9917
 5345TIP3   OH240229   7.625   0.450   8.162  0.2466 -0.0696 -0.8325
 5345TIP3    H140230   7.587   0.363   8.152 -0.4206 -0.1529  1.7194
 5345TIP3    H240231   7.715   0.441   8.132  0.0942 -1.5580 -0.9001
 5346TIP3   OH240232   5.893   7.280   7.491 -0.2851 -0.0397  0.6180
 5346TIP3    H140233   5.922   7.300   7.401 -1.3291  0.4185  0.3705
 5346TIP3    H240234   5.827   7.346   7.510 -1.9615 -1.6727  0.7644
 5347TIP3   OH240235   4.495   2.403   8.152  0.5066 -0.1372 -0.3818
 5347TIP3    H140236   4.427   2.353   8.107 -0.0994 -1.2656  1.6292
 5347TIP3    H240237   4.565   2.339   8.165 -0.5165 -0.8006  2.7542
 5348TIP3   OH240238   3.164   5.014   2.240  0.1055 -0.5560  0.4611
 5348TIP3    H140239   3.190   4.930   2.203 -0.8535 -0.8627  0.4532
 5348TIP3    H240240   3.133   4.993   2.329  0.0147 -0.1910  0.5191
 5349TIP3   OH240241   7.526   5.076   9.391 -0.1150  0.5915  0.3222
 5349TIP3    H140242   7.583   5.091   9.316  0.7210  1.4066  1.0979
 5349TIP3    H240243   7.462   5.146   9.387 -0.7763 -0.0330 -0.2654
 5350TIP3   OH240244   1.761   0.492   0.077  0.4310  0.6960  0.3782
 5350TIP3    H140245   1.855   0.494   0.062  0.1936  0.6017 -1.3544
 5350TIP3    H240246   1.746   0.414   0.129  1.3392  0.9232  1.0037
 5351TIP3   OH240247   1.993   7.206   9.830 -0.1426  0.1608  0.6105
 5351TIP3    H140248   2.086   7.227   9.825 -0.5634  2.0959  0.3091
 5351TIP3    H240249   1.949   7.290   9.821 -1.9544 -0.8311 -0.1318
 5352TIP3   OH240250   1.553   5.251   0.775  0.4026 -0.3578  0.7873
 5352TIP3    H140251   1.500   5.191   0.723  1.1071 -0.1464 -0.1919
 5352TIP3    H240252   1.597   5.195   0.839 -3.3338 -0.2596  3.8147
 5353TIP3   OH240253   2.698   7.299   2.675  0.3974  0.7155  0.4116
 5353TIP3    H140254   2.744   7.249   2.743  1.4610  0.0326 -0.7603
 5353TIP3    H240255   2.608   7.305   2.707  0.4811 -1.0394  1.1180
 5354TIP3   OH240256   3.398   6.552   9.207 -0.2473  0.1436 -0.5084
 5354TIP3    H140257   3.493   6.565   9.198  0.2617 -2.4190  0.4653
 5354TIP3    H240258   3.377   6.486   9.142 -1.0753 -0.4334  0.3280
 5355TIP3   OH240259   1.976   2.940   2.089 -0.3889 -0.4749  0.0550
 5355TIP3    H140260   2.035   2.932   2.164  1.9038  1.3551 -1.3829
 5355TIP3    H240261   1.964   3.035   2.078 -2.2585 -0.7527 -0.7579
 5356TIP3   OH240262   6.340   5.737   8.962 -0.2734 -0.0859 -0.1181
 5356TIP3    H140263   6.415   5.679   8.951  0.2169  0.6021 -0.5256
 5356TIP3    H240264   6.309   5.720   9.051  1.2066  0.5676  0.5606
 5357TIP3   OH240265   0.508   3.849   0.472 -0.5256 -0.2083  0.2510
 5357TIP3    H140266   0.455   3.797   0.533 -1.1871 -0.9955 -0.9473
 5357TIP3    H240267   0.443   3.888   0.412  0.1611 -0.0803 -0.4207
 5358TIP3   OH240268   6.476   3.798   2.609 -0.6119 -0.4223 -0.3422
 5358TIP3    H140269   6.514   3.711   2.600  0.3564  0.1492 -2.2982
 5358TIP3    H240270   6.536   3.856   2.563 -1.3629  1.2708  0.6867
 5359TIP3   OH240271   1.508   5.758   9.478  0.0833 -0.5793  0.3385
 5359TIP3    H140272   1.551   5.828   9.526 -0.5495  0.1039 -0.0679
 5359TIP3    H240273   1.564   5.743   9.402  0.8181 -1.3164  0.9952
 5360TIP3   OH240274   3.650   0.742   1.232 -0.0670 -0.1191  0.2989
 5360TIP3    H140275   3.689   0.812   1.283 -1.0610  0.1800  0.6742
 5360TIP3    H240276   3.640   0.779   1.144 -1.1469  0.4541  0.6378
 5361TIP3   OH240277   5.253   1.796   0.929  0.0050  0.6331 -0.3433
 5361TIP3    H140278   5.250   1.799   0.833 -4.0170 -0.7748 -0.4291
 5361TIP3    H240279   5.215   1.712   0.952 -0.0176  1.3309  2.5492
 5362TIP3   OH240280   3.031   0.711   0.847  0.3101 -0.2701 -0.1158
 5362TIP3    H140281   2.993   0.717   0.934  1.3916  0.9777  0.3032
 5362TIP3    H240282   2.956   0.712   0.788 -0.4345 -1.0862  0.7864
 5363TIP3   OH240283   3.200   0.183   1.668 -0.4545 -0.2492  0.0175
 5363TIP3    H140284   3.153   0.153   1.746  1.0964  1.0956  1.5459
 5363TIP3    H240285   3.251   0.107   1.641 -0.4845 -0.5442  0.7447
 5364TIP3   OH240286   3.954   4.012   2.494 -0.6922 -0.3623  0.3015
 5364TIP3    H140287   4.027   3.964   2.531 -0.0073 -1.7764 -2.5534
 5364TIP3    H240288   3.991   4.097   2.469 -0.7548 -0.0224  1.3448
 5365TIP3   OH240289   3.235   4.641   9.587  0.0616  0.0601 -0.3611
 5365TIP3    H140290   3.302   4.612   9.650 -0.9272 -1.5911 -0.0099
 5365TIP3    H240291   3.206   4.725   9.621  0.2192 -0.3608  0.8804
 5366TIP3   OH240292   4.483   2.785   1.043  0.1037  0.7608  0.5479
 5366TIP3    H140293   4.429   2.786   0.964  1.4824 -0.7245 -0.4820
 5366TIP3    H240294   4.572   2.803   1.012  1.1573 -2.5115  1.2524
 5367TIP3   OH240295   3.818   5.660   9.159 -0.0268  0.3785 -0.4046
 5367TIP3    H140296   3.832   5.717   9.234 -1.0185 -0.4918  0.4734
 5367TIP3    H240297   3.737   5.613   9.179 -0.3618  0.1939 -2.0661
 5368TIP3   OH240298   2.027   7.447   9.153 -1.2724  0.0270 -0.4538
 5368TIP3    H140299   2.055   7.456   9.244 -0.5626 -0.7363 -0.5902
 5368TIP3    H240300   1.939   7.486   9.151 -1.3708 -0.1270  0.5912
 5369TIP3   OH240301   4.784   2.967   8.660 -0.1692 -0.7504 -0.4215
 5369TIP3    H140302   4.730   2.970   8.739  0.9979  1.4810  0.3721
 5369TIP3    H240303   4.738   3.022   8.596 -0.7023 -1.9060 -1.0696
 5370TIP3   OH240304   2.934   2.805   1.335 -0.5292 -0.1626  0.8568
 5370TIP3    H140305   2.967   2.860   1.263 -1.7492 -2.4338 -1.6250
 5370TIP3    H240306   2.845   2.836   1.349  0.2400  1.4334  2.7633
 5371TIP3   OH240307   3.004   2.478   0.035 -0.6897 -0.1826 -0.4010
 5371TIP3    H140308   2.972   2.560  -0.003  0.2522 -0.0920 -1.0333
 5371TIP3    H240309   2.983   2.485   0.128 -2.3246 -0.0607 -0.7578
 5372TIP3   OH240310   6.996   1.014   9.843  0.6572  0.3627  0.3054
 5372TIP3    H140311   6.974   1.006   9.751  2.6377  2.3131 -0.4362
 5372TIP3    H240312   6.930   1.073   9.879 -0.0242 -0.2695  0.1024
 5373TIP3   OH240313   2.415   0.933   9.657 -0.5478  0.3798  0.3437
 5373TIP3    H140314   2.355   0.985   9.603  0.8035  0.8791 -0.7543
 5373TIP3    H240315   2.461   0.877   9.594  0.0776 -0.0470  1.1646
 5374TIP3   OH240316   1.012   1.604   1.010  0.1255 -0.2677 -0.1293
 5374TIP3    H140317   0.983   1.542   0.943  2.1886 -1.6092  0.1333
 5374TIP3    H240318   0.932   1.632   1.053 -1.0427 -1.1644 -1.6215
 5375TIP3   OH240319   2.650   0.096   7.477  0.3302 -0.4429 -0.3634
 5375TIP3    H140320   2.716   0.166   7.473 -0.7073  0.5411 -0.9774
 5375TIP3    H240321   2.566   0.143   7.480 -0.3311 -1.6334  1.3913
 5376TIP3   OH240322   6.081   3.763   9.043 -0.4443 -0.5515  0.1339
 5376TIP3    H140323   6.148   3.827   9.066 -0.9075  0.6889 -1.6790
 5376TIP3    H240324   6.034   3.746   9.125  0.1511  0.8838  0.8014
 5377TIP3   OH240325   4.632   5.512   1.796  0.2678 -0.2587 -0.1444
 5377TIP3    H140326   4.666   5.464   1.872  0.8262  1.0047  0.4365
 5377TIP3    H240327   4.708   5.559   1.761 -0.0671 -0.5323 -1.2612
 5378TIP3   OH240328   0.101   4.864   0.423 -0.1382  0.1527 -0.2686
 5378TIP3    H140329   0.076   4.780   0.385  1.2723 -0.0931 -0.7024
 5378TIP3    H240330   0.196   4.858   0.435  0.0171  1.7487 -0.4785
 5379TIP3   OH240331   0.498   4.703   7.883 -0.4764  0.1114  0.4569
 5379TIP3    H140332   0.425   4.697   7.820 -0.9079  1.2899  0.8327
 5379TIP3    H240333   0.509   4.796   7.899  2.6002  0.1855 -1.2713
 5380TIP3   OH240334   3.092   5.424   6.926 -0.0860 -0.0934  0.5386
 5380TIP3    H140335   3.116   5.389   6.841  0.5414 -0.2511  0.7737
 5380TIP3    H240336   3.086   5.519   6.912  2.7538  0.2297  0.8904
 5381TIP3   OH240337   4.962   0.587   2.253  0.2445 -0.0401 -0.2287
 5381TIP3    H140338   5.014   0.668   2.248  0.1570  0.1928  1.7453
 5381TIP3    H240339   4.993   0.534   2.180  1.5852  1.0466 -0.4921
 5382TIP3   OH240340   5.179   4.710   9.442 -0.2538  0.1197 -0.2130
 5382TIP3    H140341   5.236   4.785   9.423  0.1386 -0.3148 -0.8026
 5382TIP3    H240342   5.177   4.661   9.359  0.7132 -1.3331  0.5870
 5383TIP3   OH240343   3.986   1.960   7.747 -0.2222 -0.2102 -0.2689
 5383TIP3    H140344   4.022   1.905   7.678 -0.6429 -0.3874 -0.3500
 5383TIP3    H240345   4.005   1.913   7.828  0.7179  0.2426 -0.2203
 5384TIP3   OH240346   5.646   1.214   8.802 -0.0047 -0.6097 -0.0748
 5384TIP3    H140347   5.565   1.166   8.818 -0.9406  0.3234 -1.7470
 5384TIP3    H240348   5.686   1.171   8.727 -0.7386  0.9733 -1.4528
 5385TIP3   OH240349   6.112   5.667   2.291  0.0933 -0.6938  0.8036
 5385TIP3    H140350   6.044   5.730   2.312  1.2506  0.8548  0.0992
 5385TIP3    H240351   6.126   5.619   2.373 -0.0474  0.7421  1.6996
 5386TIP3   OH240352   2.336   5.111   8.093 -0.6922 -0.2613 -0.3383
 5386TIP3    H140353   2.303   5.046   8.155 -1.1734  1.1476  0.9438
 5386TIP3    H240354   2.270   5.180   8.095 -0.5754 -0.0508 -2.2500
 5387TIP3   OH240355   2.006   6.897   1.820  0.1248 -0.5562  0.0630
 5387TIP3    H140356   1.932   6.954   1.798  1.8809  1.5697 -0.7227
 5387TIP3    H240357   2.007   6.894   1.915 -0.9557 -0.6360  0.0882
 5388TIP3   OH240358   3.926   0.683   9.324 -0.7963  0.2328  0.3435
 5388TIP3    H140359   3.942   0.731   9.243 -2.0271  1.9277  1.0550
 5388TIP3    H240360   3.882   0.745   9.381  2.4668  0.0326  3.4070
 5389TIP3   OH240361   0.097   2.062   7.866 -0.1527 -0.2039  0.6747
 5389TIP3    H140362   0.155   1.988   7.883 -0.2252 -0.0367  1.7727
 5389TIP3    H240363   0.009   2.025   7.870 -0.3226  0.2649  3.5518
 5390TIP3   OH240364   6.563   0.548   2.417 -0.1657  0.0769 -0.7951
 5390TIP3    H140365   6.644   0.584   2.381 -0.8709  2.1850 -0.4432
 5390TIP3    H240366   6.494   0.588   2.365 -1.0323 -0.7541 -0.3222
 5391TIP3   OH240367   2.755   0.839   7.796 -0.1400  0.7999 -0.1537
 5391TIP3    H140368   2.684   0.814   7.737 -0.3552  0.1611  0.3688
 5391TIP3    H240369   2.793   0.756   7.825 -0.5403  1.0804  1.2191
 5392TIP3   OH240370   3.301   3.205   0.226  0.5202  0.0524 -0.1671
 5392TIP3    H140371   3.385   3.177   0.264  1.2262  0.6476 -1.2346
 5392TIP3    H240372   3.262   3.124   0.194 -0.0184 -0.4385  1.6306
 5393TIP3   OH240373   2.539   4.746   0.459  0.4845  0.0141  0.1130
 5393TIP3    H140374   2.620   4.790   0.488  0.9986 -0.5512 -0.4365
 5393TIP3    H240375   2.506   4.802   0.389  0.3814  0.2528  0.3462
 5394TIP3   OH240376   5.607   4.656   2.047  0.3426  0.0610 -0.0407
 5394TIP3    H140377   5.523   4.697   2.029  0.7644  0.8117 -0.3603
 5394TIP3    H240378   5.615   4.659   2.143 -0.3797 -0.8260  0.0589
 5395TIP3   OH240379   0.985   1.145   9.241  0.4684  0.0923  0.0953
 5395TIP3    H140380   1.038   1.198   9.181 -0.3783  0.2387 -0.5353
 5395TIP3    H240381   0.895   1.164   9.216  0.1189 -0.2909  1.0468
 5396TIP3   OH240382   1.754   5.362   7.779 -0.4414 -0.1281 -0.1687
 5396TIP3    H140383   1.754   5.451   7.744  3.5802 -0.1048 -0.5252
 5396TIP3    H240384   1.674   5.357   7.832  0.0619  4.3324  1.3957
 5397TIP3   OH240385   7.167   2.651   9.903 -0.0635  0.1320 -0.0968
 5397TIP3    H140386   7.151   2.694   9.819 -0.3471  1.5945  0.6732
 5397TIP3    H240387   7.235   2.586   9.884 -0.5942 -0.0318 -1.5845
 5398TIP3   OH240388   1.260   3.400   9.759  0.3253 -0.2553 -0.3069
 5398TIP3    H140389   1.225   3.486   9.735 -0.8028 -0.8332 -0.8558
 5398TIP3    H240390   1.353   3.415   9.775  0.3851  0.8552 -1.5141
 5399TIP3   OH240391   4.920   0.951   7.937 -0.3202 -0.4261 -0.3690
 5399TIP3    H140392   4.895   0.922   8.024 -0.7581 -2.6347 -1.1655
 5399TIP3    H240393   4.968   0.878   7.900  2.0792  1.4050 -1.1205
 5400TIP3   OH240394   4.786   3.214   9.854  0.3502  0.9607  0.1775
 5400TIP3    H140395   4.840   3.172   9.787 -1.5046 -2.8223  0.8231
 5400TIP3    H240396   4.698   3.215   9.818 -1.0375 -2.6393  2.8685
 5401TIP3   OH240397   6.433   4.240   0.741  0.1371  0.6826 -0.0420
 5401TIP3    H140398   6.398   4.163   0.786 -0.2362  0.7352 -0.2364
 5401TIP3    H240399   6.472   4.293   0.811  0.3736  0.3279  0.0934
 5402TIP3   OH240400   1.624   4.747   1.296  0.4686  0.7936 -0.5119
 5402TIP3    H140401   1.632   4.758   1.391  0.9991  3.4725 -0.7893
 5402TIP3    H240402   1.532   4.725   1.283  0.4071  0.2971  0.6157
 5403TIP3   OH240403   7.473   6.048   8.692  0.1747 -0.4505 -0.0651
 5403TIP3    H140404   7.488   6.013   8.604 -0.9067 -0.0315 -0.4471
 5403TIP3    H240405   7.395   6.001   8.723  0.5238 -0.5576  0.6510
 5404TIP3   OH240406   0.502   1.943   7.293  0.7376  0.2497  0.1110
 5404TIP3    H140407   0.553   2.023   7.288  1.3162  0.0029  1.5407
 5404TIP3    H240408   0.567   1.873   7.285  0.3164 -0.0777 -0.5116
 5405TIP3   OH240409   1.693   4.281   0.336 -0.2329 -0.0960 -0.0852
 5405TIP3    H140410   1.721   4.198   0.296  1.2325 -0.4317  1.4914
 5405TIP3    H240411   1.645   4.255   0.415  0.1455  0.5342  0.3656
 5406TIP3   OH240412   1.965   6.731   2.740 -0.4817 -0.0902 -0.9157
 5406TIP3    H140413   2.034   6.719   2.805 -1.0995 -0.1431 -0.2645
 5406TIP3    H240414   2.010   6.720   2.656  0.8411  2.3196 -0.6411
 5407TIP3   OH240415   4.668   4.648   8.925  0.3281 -0.2363  0.2377
 5407TIP3    H140416   4.678   4.552   8.922  0.0031 -0.2628 -0.0264
 5407TIP3    H240417   4.686   4.677   8.836  0.8260 -0.0061  0.4061
 5408TIP3   OH240418   5.390   0.153   9.767 -0.1396  0.2090  0.4696
 5408TIP3    H140419   5.449   0.115   9.832 -0.0131  1.4897  1.1465
 5408TIP3    H240420   5.411   0.246   9.767 -0.8496  0.3904 -0.6818
 5409TIP3   OH240421   2.154   6.682   0.549  0.4017  0.1686  0.0473
 5409TIP3    H140422   2.094   6.608   0.548  0.6353 -0.0145 -0.3818
 5409TIP3    H240423   2.130   6.733   0.472 -2.3567  2.6501  2.2709
 5410TIP3   OH240424   1.773   2.577   1.736  0.1246  0.2777 -0.1834
 5410TIP3    H140425   1.715   2.501   1.729 -0.5288  0.4297  2.6185
 5410TIP3    H240426   1.744   2.623   1.814  2.4604  1.7562 -0.0861
 5411TIP3   OH240427   3.194   4.413   0.702  0.2254 -0.1288  0.5329
 5411TIP3    H140428   3.223   4.459   0.624 -0.2948 -0.3195  0.2175
 5411TIP3    H240429   3.250   4.336   0.707 -0.6196 -0.8334 -0.4352
 5412TIP3   OH240430   0.775   4.402   1.435  0.0062  0.0330  0.0701
 5412TIP3    H140431   0.865   4.436   1.434  0.3089 -0.7448  0.7454
 5412TIP3    H240432   0.721   4.481   1.440  0.6286  0.5242 -0.5277
 5413TIP3   OH240433   5.975   3.514   9.549 -0.3108  0.3472 -0.2603
 5413TIP3    H140434   5.892   3.505   9.503 -0.8021  0.9643  0.4608
 5413TIP3    H240435   5.978   3.439   9.608 -0.2152  0.1570 -0.5113
 5414TIP3   OH240436   6.058   5.296   1.024  0.0461 -0.4202 -0.0158
 5414TIP3    H140437   6.132   5.286   1.083 -1.1306 -0.8149  1.4613
 5414TIP3    H240438   6.007   5.216   1.036 -0.5850 -0.1902 -1.0609
 5415TIP3   OH240439   6.185   0.372   8.575  0.2349  0.0764  0.1356
 5415TIP3    H140440   6.261   0.420   8.544  0.4597 -0.1958  0.2604
 5415TIP3    H240441   6.173   0.302   8.510  1.5505 -1.3553  1.3760
 5416TIP3   OH240442   2.052   2.005   8.659  0.0420  0.2148  0.6730
 5416TIP3    H140443   2.006   1.997   8.742 -0.2255 -1.0863  0.4164
 5416TIP3    H240444   2.144   1.986   8.680 -0.1771 -1.1287  0.5311
 5417TIP3   OH240445   2.352   4.892   6.755  0.1240  0.1206 -0.0510
 5417TIP3    H140446   2.337   4.986   6.762  0.4786  0.0856  1.3252
 5417TIP3    H240447   2.447   4.883   6.754  0.0924 -0.2417  0.0994
 5418TIP3   OH240448   2.601   0.449   7.701  0.2429 -0.2128  0.0089
 5418TIP3    H140449   2.594   0.448   7.606 -1.4621  2.1853 -0.0097
 5418TIP3    H240450   2.576   0.361   7.729  0.6079 -0.9017 -1.7345
 5419TIP3   OH240451   1.429   0.331   9.976 -0.0950 -0.4650  0.0251
 5419TIP3    H140452   1.511   0.329  10.025  0.6401 -1.4532 -1.2056
 5419TIP3    H240453   1.399   0.240   9.974 -2.2900  0.1073  2.1303
 5420TIP3   OH240454   5.060   1.168   1.149  0.4316 -0.0500 -0.1291
 5420TIP3    H140455   5.003   1.108   1.196  0.0635  0.3827 -0.0225
 5420TIP3    H240456   5.114   1.208   1.217  1.6129 -1.2325 -0.3285
 5421TIP3   OH240457   2.223   3.634   0.953  0.4368  0.1463  0.1163
 5421TIP3    H140458   2.178   3.614   0.871  1.6304  1.5423 -0.9328
 5421TIP3    H240459   2.294   3.693   0.928  0.8942  0.5470  2.1521
 5422TIP3   OH240460   3.060   1.063   9.856  0.0394 -0.0492  0.4807
 5422TIP3    H140461   3.119   1.123   9.901 -0.0439  0.9205 -0.6376
 5422TIP3    H240462   3.097   1.055   9.768 -1.8358  1.1415 -0.4669
 5423TIP3   OH240463   0.390   1.313   0.606 -0.3546  0.3029  0.2236
 5423TIP3    H140464   0.426   1.294   0.519 -0.2716  1.2343  0.0476
 5423TIP3    H240465   0.448   1.380   0.642  0.6288 -1.2855  1.7171
 5424TIP3   OH240466   0.580   6.259   9.535  0.4369 -0.4307  0.2222
 5424TIP3    H140467   0.645   6.205   9.580  1.5520 -0.4226 -1.2939
 5424TIP3    H240468   0.544   6.202   9.467  1.2094  0.4996 -1.0228
 5425TIP3   OH240469   1.259   6.802   7.780 -0.1521  0.2697 -0.2895
 5425TIP3    H140470   1.311   6.757   7.848 -0.0026 -0.3645 -0.8077
 5425TIP3    H240471   1.180   6.831   7.825  0.1903  0.3320  0.2788
 5426TIP3   OH240472   0.197   3.959   0.017  0.9014 -0.1217  0.3389
 5426TIP3    H140473   0.137   4.033   0.014 -1.2313 -1.7877 -1.2822
 5426TIP3    H240474   0.240   3.959  -0.069  0.7521 -0.8350  0.2519
 5427TIP3   OH240475   6.676   5.619   0.190 -0.5039  0.4369 -0.4765
 5427TIP3    H140476   6.698   5.536   0.147 -0.6129 -0.1305  0.5089
 5427TIP3    H240477   6.687   5.600   0.284 -0.3917  1.5836 -0.2473
 5428TIP3   OH240478   7.427   1.037   1.636  0.2050  0.1222  0.5252
 5428TIP3    H140479   7.484   1.013   1.709 -1.5311  1.6317  2.5255
 5428TIP3    H240480   7.421   1.133   1.641 -0.0964  0.2499 -1.5277
 5429TIP3   OH240481   3.248   5.600   0.766  0.3262  0.7544  0.9382
 5429TIP3    H140482   3.288   5.538   0.704 -2.4164  0.6282 -0.8416
 5429TIP3    H240483   3.277   5.686   0.734 -0.6963  0.6669 -0.3171
 5430TIP3   OH240484   2.274   6.989   8.589 -0.1271 -0.2101  0.0089
 5430TIP3    H140485   2.210   7.058   8.609 -1.2316 -0.5191 -2.1167
 5430TIP3    H240486   2.317   7.020   8.509 -1.1763 -2.2703 -1.4397
 5431TIP3   OH240487   5.810   6.173   7.926  0.0983 -0.0657  0.1103
 5431TIP3    H140488   5.746   6.228   7.971 -0.0067  0.2993 -0.4758
 5431TIP3    H240489   5.855   6.126   7.996 -0.6394 -0.1407  0.5500
 5432TIP3   OH240490   5.980   5.457   1.950  0.0271 -0.1931  0.0749
 5432TIP3    H140491   6.057   5.514   1.950  0.3940 -0.6717  0.5033
 5432TIP3    H240492   5.923   5.494   2.018  0.6643 -0.8472  0.9806
 5433TIP3   OH240493   4.742   5.085   0.257 -0.8126 -0.0203 -0.3379
 5433TIP3    H140494   4.776   5.159   0.307 -0.5121  1.7476 -2.9410
 5433TIP3    H240495   4.805   5.015   0.272 -0.6715  0.4618  1.5822
 5434TIP3   OH240496   3.504   0.922   9.994  0.1346  0.2610 -0.3683
 5434TIP3    H140497   3.549   0.937   9.911 -0.4106 -0.4045 -0.7894
 5434TIP3    H240498   3.503   1.009  10.036 -0.2094  0.7543 -1.3650
 5435TIP3   OH240499   3.414   2.655   7.572  0.4119 -0.0101  0.3822
 5435TIP3    H140500   3.349   2.587   7.559 -0.5729  0.9206  0.2995
 5435TIP3    H240501   3.388   2.725   7.512  2.1488 -0.0593 -0.5077
 5436TIP3   OH240502   4.877   6.512   9.809  0.1528 -0.4883 -0.4434
 5436TIP3    H140503   4.791   6.534   9.773  0.1509  0.7273  0.2749
 5436TIP3    H240504   4.932   6.588   9.789  1.2687 -1.5104 -1.4689
 5437TIP3   OH240505   1.908   4.857   7.817 -0.1943  0.3603  0.2027
 5437TIP3    H140506   1.908   4.914   7.894  0.0154 -0.3696  0.7682
 5437TIP3    H240507   1.912   4.916   7.742  1.8061  1.0448  0.7986
 5438TIP3   OH240508   4.261   6.082   1.965 -0.5412  0.1259  0.4079
 5438TIP3    H140509   4.259   6.143   1.892 -1.4439 -0.7145 -0.2896
 5438TIP3    H240510   4.188   6.108   2.021 -0.6961 -0.0776  0.3020
 5439TIP3   OH240511   2.604   1.882   2.169 -0.0666  0.3215  0.6730
 5439TIP3    H140512   2.539   1.947   2.195 -0.2868  1.0387 -1.4998
 5439TIP3    H240513   2.642   1.916   2.088  1.6978 -1.0019  0.8658
 5440TIP3   OH240514   7.003   2.566   2.258 -0.3666 -0.1992 -0.0560
 5440TIP3    H140515   7.063   2.494   2.274  1.5340  1.6068  1.4341
 5440TIP3    H240516   6.957   2.579   2.341 -2.9426 -1.5239 -1.1467
 5441TIP3   OH240517   0.237   2.958   1.638  0.0668  0.2054 -0.2019
 5441TIP3    H140518   0.191   2.893   1.584 -1.7328 -0.0956  1.5506
 5441TIP3    H240519   0.254   3.031   1.579 -2.0660  0.0066 -1.1542
 5442TIP3   OH240520   1.831   0.259   9.654 -0.0941  0.0124 -0.4105
 5442TIP3    H140521   1.802   0.350   9.664  0.1601  0.2118 -1.3154
 5442TIP3    H240522   1.886   0.261   9.575  1.5968 -0.5284  0.6938
 5443TIP3   OH240523   4.868   0.909   8.210 -0.2596 -0.7457  0.1315
 5443TIP3    H140524   4.776   0.883   8.221 -0.4438  0.5353  2.3620
 5443TIP3    H240525   4.918   0.833   8.238 -0.6967 -0.8908  0.5333
 5444TIP3   OH240526   6.723   5.341   0.540 -0.0251  0.2137  0.9814
 5444TIP3    H140527   6.770   5.267   0.503  2.2193  1.5032  1.0200
 5444TIP3    H240528   6.692   5.310   0.625  3.0344 -0.0557  2.1269
 5445TIP3   OH240529   0.723   7.452   0.088 -0.1043  0.3304 -0.0072
 5445TIP3    H140530   0.781   7.388   0.046 -0.5612 -0.0146 -0.1192
 5445TIP3    H240531   0.729   7.530   0.033 -0.1021  0.1394 -0.2812
 5446TIP3   OH240532   7.638   1.948   7.525 -0.2331  0.2336  0.4300
 5446TIP3    H140533   7.642   2.041   7.550 -1.0876  0.2719  0.4573
 5446TIP3    H240534   7.644   1.901   7.609 -0.8246  0.2966  0.5098
 5447TIP3   OH240535   7.674   5.884   9.885  0.0965  0.6802  0.1898
 5447TIP3    H140536   7.652   5.800   9.925  1.6208  0.9001  1.5552
 5447TIP3    H240537   7.758   5.870   9.843 -0.1224  1.2585 -0.4667
 5448TIP3   OH240538   5.571   0.227   8.302  0.3600  0.1447  0.9911
 5448TIP3    H140539   5.490   0.276   8.313  0.2309  0.1439  0.1026
 5448TIP3    H240540   5.625   0.282   8.246 -0.3081 -1.2675 -1.1868
 5449TIP3   OH240541   3.599   3.165   1.330  0.1168  0.4337  0.2942
 5449TIP3    H140542   3.538   3.188   1.260  0.2649 -0.6161 -0.1981
 5449TIP3    H240543   3.633   3.249   1.361 -1.5080  1.0401  0.5338
 5450TIP3   OH240544   2.631   1.405   7.700  0.2058  0.1483 -0.2456
 5450TIP3    H140545   2.710   1.361   7.668  0.0677 -1.4933  1.5406
 5450TIP3    H240546   2.659   1.452   7.778 -0.2187  1.1231 -0.6614
 5451TIP3   OH240547   2.470   7.028   1.211 -0.0592  0.1874  0.7000
 5451TIP3    H140548   2.377   7.027   1.186 -0.5470 -1.0572  2.3711
 5451TIP3    H240549   2.504   6.944   1.178  0.1501  0.0839  1.1800
 5452TIP3   OH240550   2.109   6.351   9.927 -0.0360 -0.2739  0.4118
 5452TIP3    H140551   2.135   6.395  10.008  1.4554 -0.9866  0.3452
 5452TIP3    H240552   2.116   6.418   9.860 -1.3272  0.3349  0.8490
 5453TIP3   OH240553   2.330   3.695   8.664 -0.0478  0.1589 -0.0441
 5453TIP3    H140554   2.242   3.683   8.701  1.7613 -1.1905  4.4884
 5453TIP3    H240555   2.372   3.758   8.722  1.7686  1.6110 -2.7560
 5454TIP3   OH240556   0.314   1.544   0.386  0.1055  0.3530 -0.1681
 5454TIP3    H140557   0.363   1.466   0.360 -0.6526  0.6615 -2.8683
 5454TIP3    H240558   0.222   1.516   0.387  0.0563  0.1076  3.5707
 5455TIP3   OH240559   2.389   4.674   9.707  0.7119  0.5200  0.0465
 5455TIP3    H140560   2.310   4.626   9.683  1.8103 -1.7854  0.8039
 5455TIP3    H240561   2.357   4.749   9.757 -1.0884  0.9137 -1.5820
 5456TIP3   OH240562   5.292   6.573   1.488 -0.1428  0.5500  0.1184
 5456TIP3    H140563   5.319   6.570   1.579  1.4040 -2.2299 -0.3241
 5456TIP3    H240564   5.373   6.585   1.438 -0.4530 -1.4894 -0.9825
 5457TIP3   OH240565   5.079   0.751   9.492 -0.3343 -0.4006 -0.0176
 5457TIP3    H140566   5.135   0.819   9.529  1.2859 -0.6156 -1.8830
 5457TIP3    H240567   4.989   0.784   9.503  0.2068  0.5091  1.9753
 5458TIP3   OH240568   0.190   0.840   9.946 -0.1586  0.1450 -0.4686
 5458TIP3    H140569   0.133   0.764   9.936 -1.6407  0.8300  1.9754
 5458TIP3    H240570   0.262   0.810  10.001 -1.6733  0.8316  2.0391
 5459TIP3   OH240571   0.239   0.970   1.535  0.1351  0.2065  0.1242
 5459TIP3    H140572   0.286   0.921   1.467  2.0004  0.4781  1.1419
 5459TIP3    H240573   0.287   1.053   1.541 -0.3076  0.3743  1.4162
 5460TIP3   OH240574   6.079   3.533   1.623 -0.1585  0.3724 -0.4419
 5460TIP3    H140575   6.170   3.553   1.604 -0.4699  0.2271 -2.2414
 5460TIP3    H240576   6.061   3.451   1.576 -1.8471  1.6524 -2.1817
 5461TIP3   OH240577   1.197   2.554   9.637  0.0301 -0.0143  0.3251
 5461TIP3    H140578   1.253   2.563   9.560 -1.6344 -2.4321 -1.3216
 5461TIP3    H240579   1.156   2.640   9.647  0.8707  0.5705 -1.0213
 5462TIP3   OH240580   5.142   0.996   9.256  0.1670  0.1101  0.2579
 5462TIP3    H140581   5.137   0.910   9.215  0.9398 -0.0249  0.4312
 5462TIP3    H240582   5.229   0.999   9.295  0.1724  1.0022  0.1960
 5463TIP3   OH240583   5.779   4.533   9.119 -0.0198 -0.1512  0.2303
 5463TIP3    H140584   5.843   4.599   9.144 -0.0825  0.0268 -0.0715
 5463TIP3    H240585   5.826   4.476   9.058 -0.1577 -0.0075 -0.0087
 5464TIP3   OH240586   0.351   2.800   0.144  0.1508  0.2847 -0.6487
 5464TIP3    H140587   0.271   2.839   0.109 -0.3895  0.0630  0.2831
 5464TIP3    H240588   0.329   2.707   0.156 -0.1381  0.5640  1.4067
 5465TIP3   OH240589   4.828   7.200   7.790  0.3931  0.2271 -0.3796
 5465TIP3    H140590   4.839   7.266   7.721  0.2897  2.2320  1.4167
 5465TIP3    H240591   4.751   7.149   7.763  0.7162  0.5461 -2.0129
 5466TIP3   OH240592   1.587   0.931   8.167  0.1699 -0.0911 -0.0612
 5466TIP3    H140593   1.643   1.008   8.180 -0.0357 -0.0169  0.4392
 5466TIP3    H240594   1.545   0.946   8.083 -0.2646  0.6101  0.2681
 5467TIP3   OH240595   2.166   4.248   3.245  0.3379  0.0942 -0.3226
 5467TIP3    H140596   2.165   4.156   3.271 -0.0279  0.2972  0.3970
 5467TIP3    H240597   2.252   4.279   3.274  0.5694 -0.0840 -0.8076
 5468TIP3   OH240598   1.701   5.944   1.115 -0.4131 -0.4141 -0.1617
 5468TIP3    H140599   1.724   5.875   1.053 -0.2655 -0.6366  0.1393
 5468TIP3    H240600   1.779   5.955   1.169 -0.3398  0.1864 -0.3880
 5469TIP3   OH240601   0.265   6.909   0.756  0.3654  0.1464 -0.3529
 5469TIP3    H140602   0.212   6.851   0.811  0.9193 -0.0731 -0.0352
 5469TIP3    H240603   0.277   6.861   0.674 -0.7182  0.6039 -0.7923
 5470TIP3   OH240604   3.512   4.587   9.760 -0.1640  0.3886  0.2049
 5470TIP3    H140605   3.580   4.533   9.801  0.0754  0.7412  0.2761
 5470TIP3    H240606   3.475   4.638   9.832 -1.3599 -0.6927  0.3893
 5471TIP3   OH240607   3.395   7.167   6.991  0.4543  0.1551 -0.0240
 5471TIP3    H140608   3.353   7.251   6.976 -0.5522  0.0576  1.9481
 5471TIP3    H240609   3.489   7.185   6.985  0.2331  1.0122 -1.3866
 5472TIP3   OH240610   1.887   3.205   8.853  0.2212 -0.3118 -0.2759
 5472TIP3    H140611   1.840   3.144   8.796  1.0299 -0.2938 -0.9881
 5472TIP3    H240612   1.858   3.183   8.942 -0.8255 -0.5449 -0.6685
 5473TIP3   OH240613   4.757   4.524   9.316 -0.2442  0.0583 -0.7020
 5473TIP3    H140614   4.683   4.465   9.303  0.6766 -1.4460  0.5901
 5473TIP3    H240615   4.742   4.562   9.403  1.1907 -1.3344  0.1786
 5474TIP3   OH240616   0.030   7.192   0.231  0.0987  0.3221  0.9733
 5474TIP3    H140617   0.077   7.275   0.225  2.2509 -0.8116  0.9046
 5474TIP3    H240618   0.033   7.156   0.142 -1.4585  0.4812  0.8429
 5475TIP3   OH240619   1.810   0.788   2.124  0.1306 -0.7518 -0.0064
 5475TIP3    H140620   1.864   0.781   2.203 -0.2183 -1.0929  0.2033
 5475TIP3    H240621   1.847   0.863   2.077  0.5367 -0.7354  0.3272
 5476TIP3   OH240622   7.114   3.632   2.124  0.6114 -1.4936  0.0284
 5476TIP3    H140623   7.129   3.602   2.034  0.8580  0.1171 -0.5086
 5476TIP3    H240624   7.135   3.556   2.178 -0.4310 -2.8075 -1.2898
 5477TIP3   OH240625   0.713   4.645   8.275  0.1518 -0.1217 -0.2899
 5477TIP3    H140626   0.672   4.559   8.273 -1.0006  0.3643  1.1253
 5477TIP3    H240627   0.651   4.703   8.231  0.6488  0.0975 -0.7120
 5478TIP3   OH240628   7.143   5.482   7.866  0.2060  0.3515  0.1710
 5478TIP3    H140629   7.223   5.462   7.817  0.3958  0.3335  0.4894
 5478TIP3    H240630   7.116   5.568   7.832 -1.3725 -0.9812 -2.1819
 5479TIP3   OH240631   2.132   5.232   0.835 -0.1562  0.5020  0.2115
 5479TIP3    H140632   2.125   5.262   0.745 -1.8602  1.3295  0.5854
 5479TIP3    H240633   2.085   5.149   0.836 -2.2948  1.6452  0.7926
 5480TIP3   OH240634   2.464   3.373   7.572 -0.6368  0.2784 -0.5541
 5480TIP3    H140635   2.486   3.388   7.480 -2.4834  1.0959 -0.9099
 5480TIP3    H240636   2.464   3.460   7.611  2.4668 -0.2350  0.8771
 5481TIP3   OH240637   1.324   1.998   0.103  0.0811 -0.0038  0.9321
 5481TIP3    H140638   1.285   1.917   0.070 -0.8748 -0.1419  2.3525
 5481TIP3    H240639   1.270   2.068   0.065  0.6177 -0.0325  0.0887
 5482TIP3   OH240640   7.100   6.215   8.454 -0.5039  0.0748 -0.0281
 5482TIP3    H140641   7.077   6.207   8.362 -0.0473  0.3133 -0.1669
 5482TIP3    H240642   7.022   6.252   8.495 -0.9335 -0.6045 -0.2048
 5483TIP3   OH240643   4.580   5.649   1.155 -0.3895 -0.4042  0.1380
 5483TIP3    H140644   4.622   5.733   1.174 -0.3952 -0.8495  2.2888
 5483TIP3    H240645   4.539   5.623   1.237 -2.6204 -1.2950 -1.1746
 5484TIP3   OH240646   0.719   3.376   2.409  0.0015 -0.1960  0.1237
 5484TIP3    H140647   0.666   3.322   2.350  0.0560 -0.2724  0.1449
 5484TIP3    H240648   0.795   3.322   2.429 -0.9334 -0.9660  1.8178
 5485TIP3   OH240649   2.207   5.998   8.879 -0.0503  0.0909  0.1707
 5485TIP3    H140650   2.302   6.003   8.885  0.0485 -1.7768  1.1051
 5485TIP3    H240651   2.179   5.973   8.967 -1.3790  0.3754 -0.1543
 5486TIP3   OH240652   6.326   3.843   1.076  0.1001 -0.0172 -0.5106
 5486TIP3    H140653   6.364   3.755   1.068  1.9319  0.4457  1.8943
 5486TIP3    H240654   6.249   3.831   1.131  1.5317  0.0514  1.6454
 5487TIP3   OH240655   5.636   4.154   1.404  0.2161 -0.5088 -0.6203
 5487TIP3    H140656   5.578   4.170   1.479  1.4940  1.1405  0.0594
 5487TIP3    H240657   5.711   4.108   1.442  1.4478  1.4260 -0.6092
 5488TIP3   OH240658   3.186   7.007   0.554 -0.0342  0.1874  0.3957
 5488TIP3    H140659   3.139   7.036   0.632  1.0882 -0.0737  1.1938
 5488TIP3    H240660   3.142   7.052   0.481 -0.9511  0.6111  1.1952
 5489TIP3   OH240661   7.573   4.785   0.644  0.1282  0.0549  0.1024
 5489TIP3    H140662   7.645   4.824   0.693 -0.9906  0.5640  1.4015
 5489TIP3    H240663   7.537   4.856   0.591  1.8760 -0.6743 -2.2833
 5490TIP3   OH240664   3.164   4.154   6.751 -0.7615 -0.7896  0.1654
 5490TIP3    H140665   3.239   4.107   6.714 -0.0747  0.2701  0.1727
 5490TIP3    H240666   3.090   4.095   6.738 -0.3484 -0.9340 -1.8767
 5491TIP3   OH240667   4.696   1.392   9.927 -0.4401 -0.6196 -0.3207
 5491TIP3    H140668   4.617   1.441   9.950 -0.1594  0.5970 -1.7990
 5491TIP3    H240669   4.664   1.304   9.906 -1.2338 -0.4842  0.2730
 5492TIP3   OH240670   1.377   2.591   8.326 -0.2527  0.1978  0.3082
 5492TIP3    H140671   1.379   2.687   8.327 -0.9689  0.2363 -0.5838
 5492TIP3    H240672   1.470   2.565   8.329 -0.0697  0.8969  1.0292
 5493TIP3   OH240673   2.613   6.222   2.198 -0.6009 -0.3415  0.1320
 5493TIP3    H140674   2.532   6.201   2.246 -0.0678  0.6548  1.5025
 5493TIP3    H240675   2.619   6.317   2.201 -0.7341 -0.1870 -2.2938
 5494TIP3   OH240676   3.339   6.424   2.627  0.3357 -0.1204  0.0669
 5494TIP3    H140677   3.349   6.474   2.546 -0.1035  1.3143  0.8687
 5494TIP3    H240678   3.245   6.410   2.636  0.4464 -1.0047 -0.0850
 5495TIP3   OH240679   0.423   1.163   1.605  0.3319 -0.1307  0.0403
 5495TIP3    H140680   0.409   1.161   1.699 -0.2146  2.2348  0.0829
 5495TIP3    H240681   0.518   1.167   1.594  0.4091 -0.7344  0.4550
 5496TIP3   OH240682   4.083   3.590   7.871 -0.0678  0.3485 -0.0893
 5496TIP3    H140683   4.149   3.641   7.823  0.2554 -0.3018 -0.3521
 5496TIP3    H240684   4.025   3.555   7.802 -0.0180 -0.0098  0.0473
 5497TIP3   OH240685   2.300   0.507   0.252  0.4409  0.0759  0.2632
 5497TIP3    H140686   2.214   0.469   0.273  0.6747 -0.3478  0.4537
 5497TIP3    H240687   2.338   0.446   0.189  0.1805  0.7947 -0.6174
 5498TIP3   OH240688   4.267   7.635   2.633  0.3867 -0.5724 -0.3897
 5498TIP3    H140689   4.251   7.600   2.545  0.8548  0.5203 -0.9267
 5498TIP3    H240690   4.293   7.559   2.684  0.1864 -1.2170 -1.2237
 5499TIP3   OH240691   1.708   4.397   9.295  0.2958 -0.1717  0.4004
 5499TIP3    H140692   1.645   4.445   9.241  1.0130 -0.0123 -0.3240
 5499TIP3    H240693   1.725   4.454   9.369  0.3619  0.2467  0.0682
 5500TIP3   OH240694   5.475   6.984   8.595  0.2783 -0.4798 -0.2677
 5500TIP3    H140695   5.439   6.948   8.514  1.2260  0.6739 -1.2295
 5500TIP3    H240696   5.421   6.945   8.664 -0.2643 -1.8282 -1.4083
 5501TIP3   OH240697   0.062   2.179   0.765  0.0550  0.5446  0.3642
 5501TIP3    H140698   0.039   2.204   0.676  1.7479  0.2005 -0.2109
 5501TIP3    H240699   0.125   2.108   0.754  0.4979  0.6760  1.8309
 5502TIP3   OH240700   4.522   0.681   0.489  0.1911  0.4406  0.4899
 5502TIP3    H140701   4.532   0.756   0.431  0.0842  1.5794  1.9032
 5502TIP3    H240702   4.520   0.605   0.430  2.8085  1.2919 -0.8504
 5503TIP3   OH240703   6.160   5.669   2.021  0.5981  0.1250 -0.0170
 5503TIP3    H140704   6.157   5.673   2.117 -1.0941  3.5844 -0.0424
 5503TIP3    H240705   6.243   5.626   2.001 -0.3515 -3.6027  2.8594
 5504TIP3   OH240706   0.088   4.726   9.670  0.2176  0.1259  0.1911
 5504TIP3    H140707   0.003   4.698   9.703  0.4198  0.1790  0.7652
 5504TIP3    H240708   0.082   4.714   9.575 -0.4093  0.0800  0.2326
 5505TIP3   OH240709   2.553   2.948   9.311  0.3367 -0.0968  0.1562
 5505TIP3    H140710   2.626   2.948   9.373 -0.1048  0.5980  0.7001
 5505TIP3    H240711   2.475   2.957   9.367 -0.0727  0.4781 -0.4950
 5506TIP3   OH240712   3.606   6.973   0.979 -0.2370 -0.1284  0.4148
 5506TIP3    H140713   3.616   7.067   0.967  1.5083 -0.2522  0.6500
 5506TIP3    H240714   3.657   6.954   1.058  0.6169 -1.4760 -0.4347
 5507TIP3   OH240715   3.243   2.663   7.312 -0.4384  0.1055 -0.1304
 5507TIP3    H140716   3.315   2.712   7.272 -0.1136 -0.7167 -0.5800
 5507TIP3    H240717   3.207   2.610   7.240 -2.4362  1.5235 -0.2826
 5508TIP3   OH240718   1.636   2.600   1.148  0.1047 -0.4667  0.1654
 5508TIP3    H140719   1.700   2.591   1.078  0.0190 -1.2568  0.1818
 5508TIP3    H240720   1.639   2.516   1.195  1.4988  0.6868  2.2729
 5509TIP3   OH240721   7.341   1.850   9.019 -0.2013  0.0842  0.5925
 5509TIP3    H140722   7.264   1.808   8.982 -1.5333  0.1813  3.0481
 5509TIP3    H240723   7.407   1.780   9.023  0.0937  0.1371 -2.0147
 5510TIP3   OH240724   4.458   4.754   7.386  0.4245 -0.1037  0.3892
 5510TIP3    H140725   4.465   4.835   7.437  0.6451 -0.4690  0.9486
 5510TIP3    H240726   4.467   4.684   7.451 -1.4820 -0.6066  0.1708
 5511TIP3   OH240727   0.501   1.693   8.424 -0.1420 -0.4536  0.2741
 5511TIP3    H140728   0.465   1.692   8.335 -1.1471 -0.7897  0.6790
 5511TIP3    H240729   0.509   1.786   8.445 -1.7441 -0.3448  0.5442
 5512TIP3   OH240730   3.279   1.769   0.803 -0.1332  0.3890  0.0701
 5512TIP3    H140731   3.324   1.810   0.877  0.8057 -0.5753  0.0638
 5512TIP3    H240732   3.325   1.801   0.726 -1.1340  1.4193 -0.1079
 5513TIP3   OH240733   5.743   5.901   9.952  0.5154  0.0980 -0.6501
 5513TIP3    H140734   5.674   5.857  10.000  0.2888 -0.8423 -1.7826
 5513TIP3    H240735   5.711   5.990   9.938  0.3182  0.1901  0.3565
 5514TIP3   OH240736   5.298   4.684   9.174 -0.1107  0.0304 -0.4435
 5514TIP3    H140737   5.380   4.650   9.139 -0.3738  0.1997 -1.2402
 5514TIP3    H240738   5.296   4.775   9.145 -1.9202 -0.7062 -2.9458
 5515TIP3   OH240739   6.268   1.794   1.768  0.2131  1.0281  0.6922
 5515TIP3    H140740   6.204   1.810   1.698  0.5596 -0.8230 -0.1148
 5515TIP3    H240741   6.351   1.783   1.722  0.6934  1.1215  1.5191
 5516TIP3   OH240742   5.286   5.049   9.368 -0.4746 -0.3925 -0.4020
 5516TIP3    H140743   5.327   4.993   9.434 -0.0937  1.4247  0.9867
 5516TIP3    H240744   5.313   5.011   9.284 -0.7315 -2.5871  0.4617
 5517TIP3   OH240745   4.299   5.361   1.218  0.9598  0.0156 -0.0478
 5517TIP3    H140746   4.276   5.349   1.310  2.5178 -0.4676  0.3204
 5517TIP3    H240747   4.225   5.408   1.180 -0.3445 -1.0294  1.1153
 5518TIP3   OH240748   0.207   4.003   7.944  0.0076 -0.2188 -0.0974
 5518TIP3    H140749   0.294   4.017   7.980  0.2172 -1.7623  0.0764
 5518TIP3    H240750   0.219   4.001   7.849 -0.0086  0.5613 -0.1192
 5519TIP3   OH240751   2.448   7.094   1.490 -0.6133  0.2600 -0.0990
 5519TIP3    H140752   2.483   7.028   1.430 -0.2398 -0.3779  0.8074
 5519TIP3    H240753   2.355   7.073   1.497 -1.0071  1.2910 -1.6508
 5520TIP3   OH240754   2.865   5.322   0.778 -0.6302  0.1328 -0.0078
 5520TIP3    H140755   2.903   5.410   0.773  1.3556 -0.6733  0.0273
 5520TIP3    H240756   2.771   5.337   0.790 -0.1711  2.2474  1.5335
 5521TIP3   OH240757   5.320   7.664   0.182  0.3155  0.1963  0.3909
 5521TIP3    H140758   5.342   7.757   0.182 -2.3163  0.8964  1.0579
 5521TIP3    H240759   5.318   7.639   0.274  0.2588 -0.3415  0.2476
 5522TIP3   OH240760   3.488   3.407   7.496  0.6517  0.7244  0.4054
 5522TIP3    H140761   3.514   3.400   7.404  0.2020  2.0115  0.1624
 5522TIP3    H240762   3.546   3.474   7.532  0.8216  0.2307  1.0763
 5523TIP3   OH240763   6.874   0.032   8.647 -0.5745 -0.2119  0.3758
 5523TIP3    H140764   6.966   0.019   8.624 -0.1031  1.0401  1.4428
 5523TIP3    H240765   6.829   0.037   8.563  0.1298 -1.9888 -0.1597
 5524TIP3   OH240766   5.988   1.208   8.703  0.2487  0.3704 -0.0064
 5524TIP3    H140767   5.916   1.160   8.662  1.5377 -1.6724 -0.0024
 5524TIP3    H240768   6.037   1.245   8.630 -0.3127  1.0624 -0.0433
 5525TIP3   OH240769   3.583   5.022   2.072  0.1176 -0.1930  0.7600
 5525TIP3    H140770   3.617   5.058   2.153  1.1723 -2.1106  1.2311
 5525TIP3    H240771   3.620   4.934   2.067  2.2421  0.6781 -3.0541
 5526TIP3   OH240772   6.236   2.007   0.135 -0.0647 -0.0442  0.1484
 5526TIP3    H140773   6.232   1.923   0.181  1.7285  0.2553  0.9704
 5526TIP3    H240774   6.299   1.993   0.064  1.9244  1.0816  1.5715
 5527TIP3   OH240775   1.971   4.086   0.734 -0.2963 -0.4093 -0.1615
 5527TIP3    H140776   2.014   4.002   0.750  1.4451  0.3049 -0.8234
 5527TIP3    H240777   2.032   4.151   0.768 -1.4188  0.6274 -0.0598
 5528TIP3   OH240778   7.095   1.243   1.238 -0.0076 -0.6097  0.2511
 5528TIP3    H140779   7.017   1.189   1.247  0.4431 -1.2069  0.6041
 5528TIP3    H240780   7.168   1.183   1.249  0.5285 -0.2192 -0.9191
 5529TIP3   OH240781   3.727   5.928   7.520 -0.1322  0.1125  0.0335
 5529TIP3    H140782   3.765   6.012   7.495  1.1621 -0.5402 -0.3224
 5529TIP3    H240783   3.775   5.903   7.599 -0.1259 -0.5295 -0.1668
 5530TIP3   OH240784   5.150   4.760   1.734 -0.2052  0.7532  0.3698
 5530TIP3    H140785   5.138   4.718   1.819  1.1288  2.9941  1.7374
 5530TIP3    H240786   5.224   4.713   1.695  0.4564  0.9989  1.3140
 5531TIP3   OH240787   3.406   0.450   7.143 -0.0058  0.0708 -0.6563
 5531TIP3    H140788   3.436   0.377   7.090  0.2683 -1.2914  1.2886
 5531TIP3    H240789   3.311   0.440   7.146  0.0682 -0.5269  0.0043
 5532TIP3   OH240790   6.572   4.919   9.383 -0.0548  0.1025  0.1320
 5532TIP3    H140791   6.531   4.857   9.322 -2.0354  0.1032  1.3701
 5532TIP3    H240792   6.664   4.920   9.358 -0.3457 -1.7912 -1.2378
 5533TIP3   OH240793   5.462   6.025   2.513 -0.5774 -0.3867  0.2498
 5533TIP3    H140794   5.528   6.093   2.498  0.1984 -1.2264 -0.2292
 5533TIP3    H240795   5.387   6.052   2.460 -0.2195  0.0230 -0.0527
 5534TIP3   OH240796   0.462   7.006   8.302  0.4354 -0.6948  0.0458
 5534TIP3    H140797   0.493   7.065   8.234  1.4816 -2.2977 -0.9287
 5534TIP3    H240798   0.534   7.002   8.365  0.2418 -0.7001  0.2677
 5535TIP3   OH240799   7.175   2.950   1.930 -0.6866  0.4042 -0.4603
 5535TIP3    H140800   7.200   2.967   1.839 -0.0960 -0.5515 -0.4938
 5535TIP3    H240801   7.228   3.012   1.980 -1.6233  1.5115 -0.7964
 5536TIP3   OH240802   6.997   5.459   8.297 -0.0322 -0.1371  0.5674
 5536TIP3    H140803   7.023   5.408   8.221 -1.0785 -1.2498  0.9173
 5536TIP3    H240804   7.047   5.422   8.370 -1.0981 -0.9924  0.8965
 5537TIP3   OH240805   5.927   0.451   9.748  0.0250 -0.1095 -0.6166
 5537TIP3    H140806   5.977   0.528   9.775  0.0372 -0.7623  1.3565
 5537TIP3    H240807   5.978   0.413   9.676  0.8663  0.8075 -0.5295
 5538TIP3   OH240808   5.671   6.470   7.396 -0.0328  0.1778  0.2122
 5538TIP3    H140809   5.754   6.476   7.348 -0.1747  0.2026 -0.0282
 5538TIP3    H240810   5.609   6.433   7.333  0.0234 -0.7458  0.6807
 5539TIP3   OH240811   2.365   0.926   1.801 -0.8438 -0.5221 -0.0019
 5539TIP3    H140812   2.315   1.001   1.834  0.0290 -0.0269  0.1979
 5539TIP3    H240813   2.342   0.921   1.708  0.1171  0.8341 -0.3470
 5540TIP3   OH240814   6.577   5.405   8.682 -0.0043 -0.4204  0.5297
 5540TIP3    H140815   6.623   5.489   8.674 -1.2605  0.4880  2.3422
 5540TIP3    H240816   6.611   5.366   8.762  1.3729 -2.2247 -0.8574
 5541TIP3   OH240817   5.959   6.961   0.883  0.0516  0.1036 -0.7291
 5541TIP3    H140818   5.988   6.996   0.967  1.2447  2.2567 -1.9466
 5541TIP3    H240819   5.874   6.922   0.901  0.6141 -0.1863  1.6067
 5542TIP3   OH240820   0.938   7.419   9.169 -0.5419  0.1526  0.5419
 5542TIP3    H140821   0.922   7.493   9.110 -0.0969 -0.9492 -1.0212
 5542TIP3    H240822   0.991   7.358   9.118  0.3847 -0.5986  2.3079
 5543TIP3   OH240823   6.802   5.438   0.985  0.0625 -0.0111 -0.3544
 5543TIP3    H140824   6.863   5.476   1.048 -0.1573  0.6256 -0.5104
 5543TIP3    H240825   6.715   5.461   1.018 -0.1958 -2.4824  0.8489
 5544TIP3   OH240826   0.195   2.535   8.412 -0.2279  0.2120 -0.2215
 5544TIP3    H140827   0.169   2.615   8.458 -0.0634  0.3346 -0.3451
 5544TIP3    H240828   0.176   2.553   8.320 -1.9195 -0.5549 -0.0587
 5545TIP3   OH240829   1.448   7.393   7.406 -0.4827  0.2905 -0.4670
 5545TIP3    H140830   1.489   7.307   7.411 -1.8205 -0.4048 -0.8962
 5545TIP3    H240831   1.508   7.451   7.454  1.1705 -0.5720 -1.3953
 5546TIP3   OH240832   3.288   2.208   9.844  0.2821 -0.4882  0.0565
 5546TIP3    H140833   3.225   2.234   9.911 -0.0985 -2.3697  0.4800
 5546TIP3    H240834   3.247   2.233   9.761 -0.0264  0.2803  0.4325
 5547TIP3   OH240835   4.104   1.040   9.291 -0.3809  0.6884 -0.3133
 5547TIP3    H140836   4.075   0.968   9.235 -0.2280  0.4641 -0.1106
 5547TIP3    H240837   4.159   0.997   9.357  2.2149  1.3224 -1.9238
 5548TIP3   OH240838   0.050   0.584   0.406 -0.0480  0.0370 -0.3722
 5548TIP3    H140839   0.029   0.503   0.359 -0.6156  0.9306 -1.7452
 5548TIP3    H240840  -0.033   0.610   0.446  0.0458  0.1054 -0.2251
 5549TIP3   OH240841   1.563   2.682   9.802  0.4032 -0.0240  0.1288
 5549TIP3    H140842   1.618   2.758   9.820  0.7016  0.2100 -1.5862
 5549TIP3    H240843   1.473   2.714   9.813  0.5403  0.4573 -0.1073
 5550TIP3   OH240844   6.989   4.647   1.020 -0.0513  0.2355  0.5887
 5550TIP3    H140845   7.019   4.596   1.095  0.4972 -0.6494 -0.2165
 5550TIP3    H240846   7.064   4.650   0.961  0.2884  2.8081  1.0026
 5551TIP3   OH240847   5.115   7.440   9.732  0.2338  0.1186 -0.0751
 5551TIP3    H140848   5.096   7.452   9.639  0.0550  0.2498 -0.0245
 5551TIP3    H240849   5.116   7.529   9.768 -0.3618  0.0353  0.1693
 5552TIP3   OH240850   2.843   7.306   8.994  0.4609 -0.4545 -0.2844
 5552TIP3    H140851   2.876   7.331   8.908  0.2374 -0.8465 -0.4870
 5552TIP3    H240852   2.751   7.332   8.994 -0.0635 -2.1840 -0.8919
 5553TIP3   OH240853   3.315   5.935   8.405 -0.1268  0.6109  0.3818
 5553TIP3    H140854   3.240   5.883   8.376 -1.1363  1.8560  0.7081
 5553TIP3    H240855   3.304   6.020   8.362  1.7485  0.4694 -0.5135
 5554TIP3   OH240856   4.832   6.427   0.366  0.3835  0.0178 -0.4279
 5554TIP3    H140857   4.899   6.391   0.425 -0.0559 -1.0482 -0.5585
 5554TIP3    H240858   4.794   6.499   0.416  1.9961  1.0310 -0.5690
 5555TIP3   OH240859   4.441   2.513   8.630  0.2615  0.4263  0.4412
 5555TIP3    H140860   4.437   2.449   8.701  0.1175 -0.7092 -0.5633
 5555TIP3    H240861   4.350   2.534   8.610  0.2469 -0.4232 -0.4223
 5556TIP3   OH240862   7.090   5.831   2.154  0.4141  0.3184 -0.2222
 5556TIP3    H140863   7.004   5.853   2.117  0.3464 -0.4773 -0.5568
 5556TIP3    H240864   7.117   5.911   2.200  1.1758  1.9403 -3.2003
 5557TIP3   OH240865   0.573   3.053   9.252 -0.0587  0.2681  0.0534
 5557TIP3    H140866   0.636   3.117   9.286 -1.2132  1.3444  0.2395
 5557TIP3    H240867   0.527   3.021   9.330 -1.6562  1.5968 -0.2991
 5558TIP3   OH240868   3.318   6.509   1.181  0.0877 -0.8609 -0.1517
 5558TIP3    H140869   3.326   6.421   1.146 -0.5747 -1.0920  0.2702
 5558TIP3    H240870   3.278   6.560   1.111  2.2322 -0.4095 -1.1370
 5559TIP3   OH240871   6.762   6.606   8.344 -0.1583  0.2446  0.6997
 5559TIP3    H140872   6.784   6.698   8.333  3.4233 -0.2734  2.0309
 5559TIP3    H240873   6.719   6.600   8.429  0.5974  0.5830  1.1097
 5560TIP3   OH240874   0.934   7.278   7.793  0.0695 -0.0973  0.5561
 5560TIP3    H140875   0.953   7.198   7.744 -0.7180 -0.1177  0.2824
 5560TIP3    H240876   1.006   7.337   7.769 -0.0303 -0.2787 -0.2326
 5561TIP3   OH240877   5.218   5.279   8.088 -0.7289 -0.0195 -0.6075
 5561TIP3    H140878   5.313   5.287   8.080 -0.6691  0.5120  0.5277
 5561TIP3    H240879   5.202   5.267   8.181 -1.6763 -1.8340 -0.9592
 5562TIP3   OH240880   1.266   5.105   8.847 -0.1275 -0.0605  0.2230
 5562TIP3    H140881   1.214   5.149   8.780  1.7007  1.9754  0.0001
 5562TIP3    H240882   1.357   5.126   8.825  0.6008 -0.0561  2.7917
 5563TIP3   OH240883   0.021   0.140   2.203 -0.3657 -0.0949 -0.2003
 5563TIP3    H140884  -0.053   0.115   2.149 -1.6511  1.2811  0.8282
 5563TIP3    H240885  -0.008   0.123   2.293  0.2748  1.1424  0.2634
 5564TIP3   OH240886   1.640   7.263   6.576 -0.1742 -0.1241 -0.2154
 5564TIP3    H140887   1.648   7.325   6.649 -0.8383 -1.2928  0.9044
 5564TIP3    H240888   1.726   7.220   6.571 -0.1002  0.0176 -0.1535
 5565TIP3   OH240889   1.714   7.178   2.655 -0.6372  0.2379 -0.1996
 5565TIP3    H140890   1.743   7.257   2.702  0.1141 -0.3736  0.4014
 5565TIP3    H240891   1.778   7.169   2.584  0.8971 -1.2495  1.2703
 5566TIP3   OH240892   2.217   0.375   6.475  0.0227 -0.2376  0.2882
 5566TIP3    H140893   2.251   0.295   6.434 -0.7831  0.2164 -1.3565
 5566TIP3    H240894   2.165   0.343   6.549  0.9952 -1.1218  0.6297
 5567TIP3   OH240895   2.571   1.388   2.154  0.3496 -0.6530 -0.3362
 5567TIP3    H140896   2.632   1.459   2.132  0.1152 -0.6120 -0.8641
 5567TIP3    H240897   2.485   1.430   2.155  0.0568 -1.1469 -1.8306
 5568TIP3   OH240898   1.003   5.239   8.744 -0.3649  0.0871 -0.7435
 5568TIP3    H140899   1.029   5.328   8.721 -0.0054 -0.1596 -1.3313
 5568TIP3    H240900   0.975   5.245   8.835  1.4999  0.4367 -0.1338
 5569TIP3   OH240901   0.358   4.167   9.104 -0.5858  0.0451  0.2957
 5569TIP3    H140902   0.415   4.093   9.082  1.4276  1.4477  0.5005
 5569TIP3    H240903   0.333   4.152   9.195 -0.1908 -0.3869  0.3365
 5570TIP3   OH240904   1.210   2.692   8.803 -0.2548  0.4440  0.0487
 5570TIP3    H140905   1.208   2.596   8.799 -0.3061  0.3546  1.6138
 5570TIP3    H240906   1.137   2.714   8.861 -0.8233  1.4914 -1.0443
 5571TIP3   OH240907   0.696   6.665   6.916  0.0657  0.2355  0.0714
 5571TIP3    H140908   0.670   6.753   6.942 -0.1356  0.5956 -1.2863
 5571TIP3    H240909   0.740   6.629   6.994 -0.2327  1.3579  0.7828
 5572TIP3   OH240910   2.858   7.312   8.341  0.0597  0.1615 -0.1619
 5572TIP3    H140911   2.899   7.331   8.257  0.8155  1.7072  0.5158
 5572TIP3    H240912   2.930   7.285   8.398 -0.1952  0.6048  0.3866
 5573TIP3   OH240913   0.256   7.351   9.671  0.1065  0.0399  0.1067
 5573TIP3    H140914   0.192   7.367   9.740  0.0487  1.9216 -0.3356
 5573TIP3    H240915   0.270   7.256   9.673 -1.9769 -0.3080  0.8516
 5574TIP3   OH240916   7.552   1.175   2.760  0.0161 -0.5201 -0.0112
 5574TIP3    H140917   7.495   1.103   2.787 -0.5253  0.3247  1.2062
 5574TIP3    H240918   7.498   1.228   2.700 -0.1468 -0.2768  0.3433
 5575TIP3   OH240919   3.157   1.378   7.387  0.7304  0.0741 -0.4277
 5575TIP3    H140920   3.107   1.297   7.389 -1.3249  1.2766 -0.0822
 5575TIP3    H240921   3.246   1.352   7.411 -0.4113 -1.7338  2.3859
 5576TIP3   OH240922   2.073   3.418   7.231 -0.1143  0.2574  0.3899
 5576TIP3    H140923   2.138   3.468   7.280  2.3262 -2.8932  0.7221
 5576TIP3    H240924   2.094   3.435   7.139  0.2928  0.3241  0.4920
 5577TIP3   OH240925   1.619   2.353   1.019  0.1857 -0.1879  0.3572
 5577TIP3    H140926   1.569   2.275   1.043 -2.4191  1.4260  0.5885
 5577TIP3    H240927   1.577   2.385   0.939  1.3913  0.8462  0.0969
 5578TIP3   OH240928   2.470   6.981   6.959  0.4111  0.3520 -0.5599
 5578TIP3    H140929   2.459   7.060   6.905 -1.9997  0.3704 -0.1321
 5578TIP3    H240930   2.482   6.910   6.896 -1.3638  0.5260 -1.1481
 5579TIP3   OH240931   1.870   0.303   7.941 -0.5043  0.2951 -0.2623
 5579TIP3    H140932   1.885   0.313   7.847 -3.0404  0.1394 -0.7688
 5579TIP3    H240933   1.865   0.208   7.954  0.7751  0.2788  0.2392
 5580TIP3   OH240934   6.688   3.558   9.038  0.3386  0.4841 -0.2010
 5580TIP3    H140935   6.760   3.558   9.101  1.2967 -2.6349 -1.1147
 5580TIP3    H240936   6.731   3.566   8.953 -0.3499 -1.1281 -0.7374
 5581TIP3   OH240937   6.954   0.083   1.202  0.0328  0.3878  0.0076
 5581TIP3    H140938   6.894   0.120   1.138  0.2791 -1.7565 -1.5782
 5581TIP3    H240939   7.015   0.030   1.151 -0.5894 -2.5415  2.0450
 5582TIP3   OH240940   1.086   3.466   9.334 -0.1164  0.1776 -0.1858
 5582TIP3    H140941   1.106   3.559   9.332 -0.2974  0.2271  0.2958
 5582TIP3    H240942   1.032   3.454   9.412 -0.6216 -0.2266 -0.5881
 5583TIP3   OH240943   4.569   4.060   8.346  0.1661  0.1187  0.1765
 5583TIP3    H140944   4.496   4.119   8.366  0.4004  0.0486  1.3523
 5583TIP3    H240945   4.595   4.025   8.432  2.5984  1.3417  0.0109
 5584TIP3   OH240946   3.174   0.421   9.583 -0.1830 -0.4774 -0.1221
 5584TIP3    H140947   3.147   0.513   9.583 -1.2569 -0.7625 -1.0248
 5584TIP3    H240948   3.159   0.392   9.673 -0.9171 -0.0548 -0.0994
 5585TIP3   OH240949   3.093   2.608   1.742  0.3878 -0.0208  0.4621
 5585TIP3    H140950   3.082   2.682   1.682 -3.3177 -1.5523 -1.0377
 5585TIP3    H240951   3.074   2.644   1.828 -0.0941  1.0280 -0.0672
 5586TIP3   OH240952   1.221   1.214   1.413 -0.3526 -0.3673 -0.2119
 5586TIP3    H140953   1.200   1.295   1.366  1.3517  0.6895  0.7698
 5586TIP3    H240954   1.309   1.191   1.382 -0.0186 -0.7411  0.9645
 5587TIP3   OH240955   0.152   5.561   0.279  0.1109 -0.1236 -0.4972
 5587TIP3    H140956   0.097   5.488   0.307 -0.3305  0.0006 -1.0228
 5587TIP3    H240957   0.166   5.613   0.358 -0.8352  0.0439 -0.4291
 5588TIP3   OH240958   5.327   4.501   1.293 -0.1182  0.3868  0.4382
 5588TIP3    H140959   5.356   4.411   1.278 -1.2534  0.2463 -1.2237
 5588TIP3    H240960   5.403   4.545   1.331  0.9986 -0.8658 -0.2573
 5589TIP3   OH240961   6.372   4.718   2.003 -0.0512 -0.4586  0.1823
 5589TIP3    H140962   6.416   4.796   2.037  0.5345 -0.4438 -0.5932
 5589TIP3    H240963   6.284   4.723   2.040  0.1632  0.2560  0.6225
 5590TIP3   OH240964   4.101   1.799   8.355  0.0441  0.1192  0.1778
 5590TIP3    H140965   4.015   1.805   8.313  0.0204  0.8632  0.3296
 5590TIP3    H240966   4.140   1.885   8.342  0.4075  0.0648  0.8925
 5591TIP3   OH240967   5.623   7.508   1.567  0.1797  0.3245  0.6459
 5591TIP3    H140968   5.684   7.575   1.536 -0.2296  0.0963 -0.7280
 5591TIP3    H240969   5.678   7.444   1.611  0.7182  0.9712  0.9234
 5592TIP3   OH240970   6.117   3.694   1.343 -0.3624  0.8581 -0.1993
 5592TIP3    H140971   6.112   3.714   1.436 -1.0255  0.8268 -0.2197
 5592TIP3    H240972   6.055   3.621   1.331 -0.7425  1.2638 -0.7682
 5593TIP3   OH240973   3.949   6.214   9.073 -0.2975  0.0059  0.3167
 5593TIP3    H140974   3.856   6.230   9.057 -0.0574  1.2777  0.0510
 5593TIP3    H240975   3.994   6.261   9.003  0.5454 -1.0155  0.1432
 5594TIP3   OH240976   2.738   6.198   8.979 -0.7834 -0.6473  0.2284
 5594TIP3    H140977   2.822   6.170   9.015 -0.4911 -2.7878 -1.8683
 5594TIP3    H240978   2.760   6.276   8.927 -0.3499 -0.3895  0.7884
 5595TIP3   OH240979   1.051   5.169   0.342  0.5492  0.2571 -0.6689
 5595TIP3    H140980   1.025   5.254   0.307 -1.1492 -0.5391 -1.4217
 5595TIP3    H240981   1.146   5.177   0.355  0.8484  1.4578 -3.0104
 5596TIP3   OH240982   4.159   4.419   8.844  0.4096 -0.0018  0.1445
 5596TIP3    H140983   4.105   4.490   8.809 -1.4896 -0.7202  1.4041
 5596TIP3    H240984   4.233   4.462   8.885  1.2372  0.9927 -2.2289
 5597TIP3   OH240985   2.370   6.721   2.136 -0.1591 -0.9471 -0.4036
 5597TIP3    H140986   2.353   6.697   2.227  0.6586 -0.6901 -0.1794
 5597TIP3    H240987   2.295   6.687   2.088  0.8806 -3.9269 -0.1000
 5598TIP3   OH240988   2.143   0.159   0.093 -0.4115  0.1476 -0.2979
 5598TIP3    H140989   2.063   0.194   0.055  0.5490  0.3075 -2.2854
 5598TIP3    H240990   2.187   0.114   0.021  1.0388 -0.3825  0.8630
 5599TIP3   OH240991   0.843   3.864   8.443  0.1434 -0.1244 -0.4980
 5599TIP3    H140992   0.770   3.885   8.501  0.6793  0.6337 -0.0869
 5599TIP3    H240993   0.855   3.769   8.453 -0.8916 -0.2910 -0.7117
 5600TIP3   OH240994   3.847   4.459   7.583  0.2156 -0.3354  0.0072
 5600TIP3    H140995   3.797   4.382   7.558 -0.4730  0.0810  0.0777
 5600TIP3    H240996   3.881   4.493   7.500  0.6262 -0.7795 -0.0101
 5601TIP3   OH240997   0.031   2.448   1.825 -0.1932  0.0522 -0.0156
 5601TIP3    H140998  -0.037   2.381   1.818 -0.0685 -0.0072 -0.7185
 5601TIP3    H240999   0.037   2.466   1.919 -0.3843 -0.7608  0.1637
 5602TIP3   OH241000   0.494   6.993   7.808  0.0967  0.0030 -0.8409
 5602TIP3    H141001   0.405   7.013   7.778  0.1071  0.2473 -0.7132
 5602TIP3    H241002   0.491   7.011   7.902  0.0776 -0.7003 -0.7002
 5603TIP3   OH241003   3.036   3.189   2.527  0.3336  0.2835  0.0849
 5603TIP3    H141004   3.093   3.235   2.588  1.3334  0.5431 -0.9941
 5603TIP3    H241005   3.036   3.244   2.448  1.9021 -1.6820 -1.4104
 5604TIP3   OH241006   4.346   5.029   0.786 -0.8520  0.3119  0.0874
 5604TIP3    H141007   4.347   5.122   0.762  0.1838  0.3355  0.1825
 5604TIP3    H241008   4.312   5.029   0.876 -0.4469  0.6508  0.2481
 5605TIP3   OH241009   2.402   0.564   9.438  0.2516  0.3948 -0.0102
 5605TIP3    H141010   2.337   0.494   9.433 -1.1902  1.7801 -2.2723
 5605TIP3    H241011   2.471   0.539   9.377  2.6386 -1.6148  3.1629
 5606TIP3   OH241012   7.348   0.718   1.450 -0.0088  0.0943 -0.1887
 5606TIP3    H141013   7.290   0.657   1.496  0.9004 -1.2178 -0.7536
 5606TIP3    H241014   7.289   0.769   1.395 -0.6673 -1.0834 -0.6055
 5607TIP3   OH241015   3.065   5.797   8.365  0.0349 -0.1184 -0.5572
 5607TIP3    H141016   3.033   5.709   8.386 -1.5470  0.4619 -0.3851
 5607TIP3    H241017   2.988   5.842   8.329 -0.0413  2.1216  2.1422
 5608TIP3   OH241018   4.897   4.235   9.032 -0.3245 -0.5761 -0.1543
 5608TIP3    H141019   4.842   4.297   8.983  0.1429  1.0492  1.2904
 5608TIP3    H241020   4.925   4.283   9.110  1.9794 -1.8295 -0.1119
 5609TIP3   OH241021   2.583   6.706   7.172  0.5131  0.4164  0.1291
 5609TIP3    H141022   2.588   6.670   7.083 -0.2124 -0.2001  0.3268
 5609TIP3    H241023   2.662   6.674   7.215  0.3071 -0.2314  0.0421
 5610TIP3   OH241024   0.344   4.150   1.302 -0.2062  0.2623 -0.0208
 5610TIP3    H141025   0.264   4.098   1.304  0.5724 -1.0715 -1.2862
 5610TIP3    H241026   0.357   4.180   1.392 -1.7207 -0.0977  0.3377
 5611TIP3   OH241027   7.242   1.760   0.678  0.4861 -0.8427  0.0225
 5611TIP3    H141028   7.231   1.688   0.741 -0.0199 -2.2665 -1.6216
 5611TIP3    H241029   7.236   1.840   0.731 -0.0017 -1.9867  1.7587
 5612TIP3   OH241030   5.027   6.733   9.010 -0.2146 -0.0843 -0.0251
 5612TIP3    H141031   5.044   6.768   8.923  1.3939  0.4459  0.4681
 5612TIP3    H241032   4.960   6.666   8.997 -0.5841  0.5605 -1.5384
 5613TIP3   OH241033   7.188   7.267   2.577 -0.6772  0.2599 -0.0275
 5613TIP3    H141034   7.263   7.326   2.570 -0.6321  0.3493  0.9772
 5613TIP3    H241035   7.112   7.324   2.566 -0.6077  0.1930 -0.8996
 5614TIP3   OH241036   3.414   4.137   0.168  0.3185  0.6191  0.0582
 5614TIP3    H141037   3.488   4.110   0.114 -0.6513  0.8664 -1.4415
 5614TIP3    H241038   3.407   4.069   0.235  0.5139 -0.6042 -1.1293
 5615TIP3   OH241039   5.096   0.511   0.686  0.0943  0.2356  0.2507
 5615TIP3    H141040   5.156   0.577   0.653 -1.6487  1.2889 -0.9309
 5615TIP3    H241041   5.093   0.444   0.618  0.5550 -0.2532  0.6950
 5616TIP3   OH241042   6.261   3.300   0.733  0.5191 -0.0314 -0.3298
 5616TIP3    H141043   6.196   3.350   0.783  0.3758  1.3107 -1.7842
 5616TIP3    H241044   6.339   3.299   0.789  0.1643  0.8908  0.1979
 5617TIP3   OH241045   3.282   2.820   2.421  0.8889  0.2192  0.0855
 5617TIP3    H141046   3.220   2.884   2.387  1.5436  0.5876 -0.4418
 5617TIP3    H241047   3.317   2.860   2.501 -0.2286 -0.3993  0.9133
 5618TIP3   OH241048   5.960   4.222   0.561  0.1211 -0.6968 -0.4014
 5618TIP3    H141049   5.956   4.317   0.546  1.4169 -0.6422 -0.5740
 5618TIP3    H241050   6.036   4.194   0.509 -1.2416 -2.1121 -1.7309
 5619TIP3   OH241051   6.865   4.482   1.691 -0.3893  0.5024 -0.0731
 5619TIP3    H141052   6.927   4.530   1.636  1.8345  0.7799  2.4667
 5619TIP3    H241053   6.802   4.548   1.720  2.1799  1.9837  2.7469
 5620TIP3   OH241054   2.565   6.041   0.997 -0.5656 -0.3875 -0.2908
 5620TIP3    H141055   2.480   6.008   1.023 -2.0459  1.2127 -2.6749
 5620TIP3    H241056   2.579   6.118   1.052 -0.0942 -1.2830  0.8729
 5621TIP3   OH241057   5.969   1.393   8.472  0.3971 -0.1628 -0.3457
 5621TIP3    H141058   5.992   1.439   8.391  0.2475 -0.4637 -0.5617
 5621TIP3    H241059   6.005   1.448   8.542  1.4809 -0.4614 -0.6569
 5622TIP3   OH241060   0.596   5.676   1.247 -0.2295 -0.3796 -0.0331
 5622TIP3    H141061   0.670   5.674   1.186 -0.4503  0.6757 -0.3650
 5622TIP3    H241062   0.519   5.665   1.192 -0.5421  2.0892 -0.2210
 5623TIP3   OH241063   4.036   0.855   1.196  0.2314 -0.3413  0.2071
 5623TIP3    H141064   4.018   0.878   1.105  1.3162  1.8140  0.4779
 5623TIP3    H241065   4.110   0.795   1.191 -1.0093 -1.8993 -0.3883
 5624TIP3   OH241066   3.954   1.215   1.314 -0.3236  0.0089 -0.0716
 5624TIP3    H141067   3.999   1.282   1.263 -0.9126  1.1994  0.9297
 5624TIP3    H241068   3.885   1.184   1.256 -1.0840  1.4533  0.0084
 5625TIP3   OH241069   1.398   5.524   1.213 -0.1390 -0.1442  0.5158
 5625TIP3    H141070   1.427   5.488   1.129  1.7637  1.0544  0.6087
 5625TIP3    H241071   1.385   5.617   1.197 -1.0579 -0.1151  1.2650
 5626TIP3   OH241072   0.690   6.245   8.709 -0.1595 -0.0089  0.3989
 5626TIP3    H141073   0.626   6.285   8.651  0.9865 -1.6540 -2.2440
 5626TIP3    H241074   0.774   6.284   8.682  0.3854 -0.6877  1.0672
 5627TIP3   OH241075   1.486   4.609   8.445  0.2331 -0.5281 -0.5886
 5627TIP3    H141076   1.456   4.598   8.355  0.2494 -1.1852 -0.5153
 5627TIP3    H241077   1.412   4.578   8.498  0.3684 -0.4893 -0.3775
 5628TIP3   OH241078   0.234   2.884   9.515 -0.2518 -0.9180  0.2177
 5628TIP3    H141079   0.164   2.831   9.554 -0.5105 -0.6164  0.1609
 5628TIP3    H241080   0.200   2.973   9.515  0.6073 -0.5720  1.3164
 5629TIP3   OH241081   1.749   6.788   1.494  0.2392 -0.1028 -0.6884
 5629TIP3    H141082   1.752   6.841   1.414  0.1981 -1.4663 -1.6430
 5629TIP3    H241083   1.760   6.698   1.462  1.9266 -0.5593  0.9927
 5630TIP3   OH241084   3.129   2.975   9.472  0.3370 -0.3297 -0.1307
 5630TIP3    H141085   3.151   2.893   9.516 -0.5360  0.8268  2.6915
 5630TIP3    H241086   3.117   2.951   9.380  0.4379 -3.2727  0.5367
 5631TIP3   OH241087   4.710   4.285   9.793  0.2439  0.0259 -0.6138
 5631TIP3    H141088   4.750   4.308   9.710 -1.0512 -0.2684 -1.3497
 5631TIP3    H241089   4.782   4.286   9.856  0.8492  2.6319 -1.2372
 5632TIP3   OH241090   7.661   1.761   8.151 -0.3249  0.5878  0.0879
 5632TIP3    H141091   7.597   1.701   8.189  1.6294 -1.7418 -0.0467
 5632TIP3    H241092   7.629   1.849   8.174 -2.3620 -0.5369  1.8628
 5633TIP3   OH241093   7.410   1.014   7.342  0.2870 -0.6556  0.0039
 5633TIP3    H141094   7.450   1.094   7.375 -0.6836  0.3526 -1.1469
 5633TIP3    H241095   7.463   0.989   7.267 -1.0836  0.6475 -1.4843
 5634TIP3   OH241096   4.429   1.499   8.287 -0.5600 -0.4422 -0.4556
 5634TIP3    H141097   4.523   1.517   8.297 -0.6795  0.1755 -0.4153
 5634TIP3    H241098   4.398   1.487   8.377 -0.8658  1.1738 -0.3208
 5635TIP3   OH241099   4.583   1.723   1.590  0.7895 -0.1522  0.1735
 5635TIP3    H141100   4.515   1.781   1.557  0.7899 -1.2148 -1.8738
 5635TIP3    H241101   4.623   1.771   1.663 -0.0693  1.8310 -0.5909
 5636TIP3   OH241102   7.205   4.291   1.450 -0.0777 -0.0151 -0.2554
 5636TIP3    H141103   7.221   4.329   1.364  0.0055 -1.1950 -0.7934
 5636TIP3    H241104   7.285   4.308   1.500 -0.3823  1.2459 -0.1795
 5637TIP3   OH241105   0.349   4.712   1.142  0.7186 -0.0341  0.3809
 5637TIP3    H141106   0.344   4.709   1.047  0.0624  1.0925  0.3653
 5637TIP3    H241107   0.342   4.620   1.170  3.6543 -0.7161 -0.7548
 5638TIP3   OH241108   6.200   7.649   0.807  0.5368  0.8269 -0.2606
 5638TIP3    H141109   6.247   7.579   0.763  1.5809  2.1539 -1.3479
 5638TIP3    H241110   6.248   7.663   0.888 -0.2968 -0.3819  0.4708
 5639TIP3   OH241111   6.784   7.316   9.985 -0.0996 -0.5255  0.6902
 5639TIP3    H141112   6.697   7.355   9.992  0.3360  0.6085  0.0593
 5639TIP3    H241113   6.803   7.315   9.891 -0.2002 -2.5731  0.6407
 5640TIP3   OH241114   7.679   2.780   7.868  0.1588 -0.0747 -0.4182
 5640TIP3    H141115   7.769   2.758   7.843 -0.8512 -0.1529 -4.6247
 5640TIP3    H241116   7.664   2.867   7.831 -1.2149  0.4303  1.1920
 5641TIP3   OH241117   7.295   1.000   0.808 -0.5303  0.0588  0.6330
 5641TIP3    H141118   7.366   0.936   0.801 -0.4698  0.1377  0.5297
 5641TIP3    H241119   7.280   1.010   0.902  0.2134  0.7384  0.6828
 5642TIP3   OH241120   0.432   4.940   2.338 -0.1515 -0.6417 -0.2706
 5642TIP3    H141121   0.497   4.889   2.386 -1.0395 -1.5420  0.0137
 5642TIP3    H241122   0.357   4.881   2.329 -2.0220  1.2046  1.8258
 5643TIP3   OH241123   2.096   7.242   8.929 -0.5722 -0.1458 -0.1797
 5643TIP3    H141124   2.186   7.271   8.941 -1.1141  1.4517  0.3470
 5643TIP3    H241125   2.048   7.286   9.000 -2.0180  0.3292 -1.4007
 5644TIP3   OH241126   4.289   4.702   1.146 -0.1764 -0.2655 -0.2807
 5644TIP3    H141127   4.237   4.624   1.165 -2.2535  1.3841  1.1595
 5644TIP3    H241128   4.366   4.693   1.203  0.7510 -2.2479 -1.7175
 5645TIP3   OH241129   5.545   4.912   1.843  0.1153 -0.1084  0.7050
 5645TIP3    H141130   5.530   4.978   1.910 -0.0134  0.6192 -0.0258
 5645TIP3    H241131   5.490   4.838   1.870 -0.5203  0.4563  0.9978
 5646TIP3   OH241132   0.102   1.785   2.144  0.2410  0.8085  0.1296
 5646TIP3    H141133   0.006   1.780   2.137  0.3319 -1.4209 -0.1642
 5646TIP3    H241134   0.122   1.745   2.228  0.8186  3.6766  1.4596
 5647TIP3   OH241135   0.726   1.962   2.559 -0.3060 -0.0115  0.3054
 5647TIP3    H141136   0.637   1.933   2.580 -0.6603  0.4699 -0.4939
 5647TIP3    H241137   0.715   2.053   2.530  0.0080 -0.8407 -2.7402
 5648TIP3   OH241138   4.397   2.188   0.952 -0.5199  0.2895  0.2458
 5648TIP3    H141139   4.330   2.257   0.955 -0.0062  0.7957  0.1537
 5648TIP3    H241140   4.451   2.204   1.028 -0.4086 -0.0309  0.2351
 5649TIP3   OH241141   1.735   3.400   7.692 -0.1686 -0.1727 -0.3101
 5649TIP3    H141142   1.711   3.353   7.612  2.0188  0.2807 -1.3011
 5649TIP3    H241143   1.805   3.347   7.731  1.5089  1.5463 -0.8136
 5650TIP3   OH241144   0.136   4.118   8.378 -0.1000  0.6393  0.3836
 5650TIP3    H141145   0.116   4.144   8.469 -1.4175 -0.1015  0.3346
 5650TIP3    H241146   0.054   4.081   8.346  0.3013  1.0587 -1.1849
 5651TIP3   OH241147   3.803   1.298   1.097 -0.1011 -0.8751  0.2298
 5651TIP3    H141148   3.757   1.351   1.032  2.6361 -1.0567 -2.0552
 5651TIP3    H241149   3.737   1.277   1.163 -2.2471  2.0465 -0.7942
 5652TIP3   OH241150   0.861   4.688   9.090  0.0407  0.7641 -0.4746
 5652TIP3    H141151   0.955   4.698   9.107 -0.0185 -0.6575  0.9031
 5652TIP3    H241152   0.831   4.626   9.156 -1.2032 -1.5667 -3.0262
 5653TIP3   OH241153   1.012   1.221   1.022 -0.4296 -0.5452  0.1711
 5653TIP3    H141154   0.923   1.221   0.988 -0.3830 -0.2355  0.0423
 5653TIP3    H241155   1.065   1.259   0.952 -0.2499 -0.4055  0.3796
 5654TIP3   OH241156   2.050   5.102   7.324  0.0847  0.0421 -0.4570
 5654TIP3    H141157   1.970   5.138   7.364  0.3102 -0.4695  0.4964
 5654TIP3    H241158   2.112   5.175   7.328  0.2325 -0.1215  0.5406
 5655TIP3   OH241159   1.043   0.760   7.709 -0.1987 -0.5888  0.1889
 5655TIP3    H141160   1.030   0.825   7.778  1.2702 -1.7748  1.6704
 5655TIP3    H241161   0.988   0.791   7.637 -1.0909  1.1989  1.5347
 5656TIP3   OH241162   4.194   1.315   1.650 -0.1074  0.5068 -0.6915
 5656TIP3    H141163   4.288   1.333   1.649  0.3158 -1.0702  1.9263
 5656TIP3    H241164   4.153   1.400   1.637  1.7335  1.9167  1.7847
 5657TIP3   OH241165   2.752   7.631   9.449  0.2732 -0.0443  0.0861
 5657TIP3    H141166   2.794   7.570   9.510 -0.2959 -1.1823 -0.6268
 5657TIP3    H241167   2.818   7.698   9.432  2.1718 -2.1985 -1.6348
 5658TIP3   OH241168   1.499   6.380   8.564  0.3914 -0.6986 -0.2164
 5658TIP3    H141169   1.559   6.392   8.638 -0.1702  0.7299  0.0385
 5658TIP3    H241170   1.516   6.290   8.534  0.4430 -1.4090  1.7921
 5659TIP3   OH241171   1.263   3.637   1.932  0.3461 -0.3813 -0.8730
 5659TIP3    H141172   1.314   3.717   1.919  0.0700 -0.4256 -2.5213
 5659TIP3    H241173   1.329   3.567   1.937  0.5244 -0.3528 -2.2736
 5660TIP3   OH241174   0.927   0.116   2.326 -0.0882  0.0378 -0.1191
 5660TIP3    H141175   0.883   0.196   2.356 -1.9035  0.5204 -3.4880
 5660TIP3    H241176   0.876   0.044   2.364 -0.2070  0.5419  0.6835
 5661TIP3   OH241177   0.679   0.873   8.656 -0.2192 -0.5905 -0.5869
 5661TIP3    H141178   0.660   0.832   8.740  0.4503  2.3140  1.1331
 5661TIP3    H241179   0.762   0.919   8.669 -0.0478 -0.1020 -2.8654
 5662TIP3   OH241180   4.825   6.386   1.220  0.3645  0.1222  0.3997
 5662TIP3    H141181   4.755   6.452   1.219  0.4350  0.2469 -1.7860
 5662TIP3    H241182   4.895   6.425   1.272 -1.0018  0.1505  2.3323
 5663TIP3   OH241183   7.132   7.602   9.963  0.5999  0.0349 -0.3725
 5663TIP3    H141184   7.060   7.540   9.976 -2.3311  3.1197 -0.4695
 5663TIP3    H241185   7.175   7.607  10.049 -0.3579 -0.6674  0.1680
 5664TIP3   OH241186   7.096   5.112   0.409  0.0351  0.6233 -0.4704
 5664TIP3    H141187   7.103   5.018   0.428  0.0766  0.3548 -1.7459
 5664TIP3    H241188   7.173   5.132   0.357  0.0377  1.3785 -0.1857
 5665TIP3   OH241189   2.957   5.707   9.405  0.3100 -0.3231  0.2891
 5665TIP3    H141190   2.869   5.679   9.380  0.9819 -1.3496 -1.0102
 5665TIP3    H241191   3.006   5.709   9.323  1.3318  0.9052  0.8946
 5666TIP3   OH241192   5.853   3.504   0.544  0.0551 -0.1644 -0.1372
 5666TIP3    H141193   5.761   3.480   0.528 -0.1563 -1.0595  2.0091
 5666TIP3    H241194   5.849   3.564   0.618  1.2088 -0.0353 -0.1650
 5667TIP3   OH241195   2.334   3.346   9.859  0.4064 -0.2310  0.6120
 5667TIP3    H141196   2.416   3.391   9.878  0.3513 -0.1992  0.7771
 5667TIP3    H241197   2.271   3.416   9.844  0.6076 -0.2516 -0.3942
 5668TIP3   OH241198   5.535   5.956   1.360  0.0174 -0.6198  0.2845
 5668TIP3    H141199   5.584   5.874   1.362  1.3996  0.1617 -0.5190
 5668TIP3    H241200   5.488   5.954   1.276  1.0098 -0.0833 -0.3090
 5669TIP3   OH241201   1.626   0.686   7.267 -0.1250  0.1985  0.0118
 5669TIP3    H141202   1.646   0.691   7.361 -1.5049  3.0625  0.2453
 5669TIP3    H241203   1.687   0.747   7.226 -1.8437  1.6805 -0.4502
 5670TIP3   OH241204   1.851   6.852   8.993 -0.2751 -0.9403  0.1606
 5670TIP3    H141205   1.770   6.803   8.981 -0.7945 -0.3355  1.0156
 5670TIP3    H241206   1.885   6.865   8.905 -0.9717 -1.4336 -0.1898
 5671TIP3   OH241207   7.345   4.760   1.084 -0.1679  0.2934  0.4035
 5671TIP3    H141208   7.357   4.754   1.178  2.0836 -0.6786  0.0960
 5671TIP3    H241209   7.426   4.797   1.051 -1.3470  1.7132 -1.0834
 5672TIP3   OH241210   3.130   4.521   0.986  0.0849 -0.2277 -0.0242
 5672TIP3    H141211   3.106   4.567   1.066  0.0718  1.2389 -0.8428
 5672TIP3    H241212   3.127   4.428   1.010 -2.7731  0.0073  0.9101
 5673TIP3   OH241213   6.395   4.232   0.423 -0.7171 -0.4239  0.1687
 5673TIP3    H141214   6.331   4.194   0.364 -3.3520  1.5784  1.5192
 5673TIP3    H241215   6.409   4.164   0.490 -0.5259 -1.3154 -0.7602
 5674TIP3   OH241216   7.387   5.112   1.045 -0.0235 -0.0357  0.3510
 5674TIP3    H141217   7.310   5.147   1.088 -0.8601 -0.7435 -0.5263
 5674TIP3    H241218   7.373   5.129   0.952  1.0470  0.1396  0.2111
 5675TIP3   OH241219   2.679   2.060   0.026  0.4894  0.0155  0.1062
 5675TIP3    H141220   2.610   2.124   0.009  0.4114 -0.5496 -1.9753
 5675TIP3    H241221   2.643   2.006   0.097 -0.8781  0.2580 -0.3584
 5676TIP3   OH241222   7.133   5.555   9.224 -0.6155 -0.3463  0.0863
 5676TIP3    H141223   7.139   5.648   9.200 -0.5849  0.1858  1.9908
 5676TIP3    H241224   7.111   5.556   9.317  1.7686 -2.2295  0.7612
 5677TIP3   OH241225   4.596   5.437   0.216 -0.4728 -0.6149 -0.7898
 5677TIP3    H141226   4.685   5.414   0.243  0.3924  0.8594 -2.2471
 5677TIP3    H241227   4.540   5.399   0.285  1.4078  0.7639  1.6539
 5678TIP3   OH241228   3.664   5.740   9.674 -0.6102  0.4541 -0.8646
 5678TIP3    H141229   3.659   5.737   9.770  0.9589  0.4061 -0.7559
 5678TIP3    H241230   3.674   5.648   9.648  1.9495  0.6605 -0.8229
 5679TIP3   OH241231   1.554   6.085   0.451  0.0717  0.0417 -0.1535
 5679TIP3    H141232   1.538   6.125   0.537 -1.2331 -0.3296 -0.2057
 5679TIP3    H241233   1.640   6.046   0.459 -0.7509 -1.5669  1.6213
 5680TIP3   OH241234   5.429   5.211   2.486  0.3389 -0.1064 -0.3514
 5680TIP3    H141235   5.458   5.134   2.535 -0.8383 -2.0546 -2.5468
 5680TIP3    H241236   5.477   5.284   2.526  0.7702 -1.7728  2.4690
 5681TIP3   OH241237   3.159   2.644   8.535  0.1946 -0.1181  0.1478
 5681TIP3    H141238   3.149   2.550   8.520  1.8581 -0.1359 -1.0190
 5681TIP3    H241239   3.251   2.656   8.555  0.0765  1.3207 -0.0464
 5682TIP3   OH241240   5.211   2.717   9.612  0.5889  0.3179 -0.2321
 5682TIP3    H141241   5.248   2.691   9.527 -2.1628 -1.1637 -1.0972
 5682TIP3    H241242   5.228   2.641   9.669  2.3607  1.2785  0.6007
 5683TIP3   OH241243   5.560   3.770   1.933  0.1211 -0.1544  0.2055
 5683TIP3    H141244   5.611   3.719   1.870 -0.3766  0.1930 -0.4875
 5683TIP3    H241245   5.612   3.767   2.014  1.0742 -0.0918 -0.3908
 5684TIP3   OH241246   5.767   1.034   8.626 -0.2446  0.0380  0.2093
 5684TIP3    H141247   5.790   1.034   8.533 -0.9902 -0.2399  0.0126
 5684TIP3    H241248   5.744   0.942   8.644 -0.5965  0.1877  0.5344
 5685TIP3   OH241249   4.747   6.881   8.163 -0.3918  0.4015 -0.3207
 5685TIP3    H141250   4.672   6.835   8.126 -0.3487  0.7408 -0.8472
 5685TIP3    H241251   4.802   6.902   8.087  0.4542 -0.2327  0.1101
 5686TIP3   OH241252   3.914   0.075   9.435  0.2462 -0.7528 -0.1665
 5686TIP3    H141253   3.929   0.165   9.408  2.2054 -1.0531 -0.2500
 5686TIP3    H241254   3.921   0.076   9.530 -2.5043 -0.3974  0.0987
 5687TIP3   OH241255   4.463   6.746   1.157 -0.0423  0.0669  0.1156
 5687TIP3    H141256   4.438   6.726   1.067  0.2401  1.6433 -0.3468
 5687TIP3    H241257   4.380   6.762   1.202 -0.3855 -3.1245  0.8268
 5688TIP3   OH241258   0.303   5.862   0.653 -0.0492 -0.1369  0.1189
 5688TIP3    H141259   0.350   5.792   0.698  0.5109 -0.7396 -1.3497
 5688TIP3    H241260   0.241   5.817   0.596  1.0255  0.4622 -1.6168
 5689TIP3   OH241261   3.948   4.725   0.325  0.0462  0.0324 -0.4304
 5689TIP3    H141262   3.939   4.784   0.250  3.2723  2.8887  1.1255
 5689TIP3    H241263   4.041   4.703   0.327 -0.0381 -0.4446  2.3046
 5690TIP3   OH241264   5.968   0.995   7.808  0.0910  0.0298  0.2405
 5690TIP3    H141265   6.049   0.966   7.851 -1.3562 -0.6060  2.7596
 5690TIP3    H241266   5.932   0.915   7.769  1.7846  0.7379 -3.0839
 5691TIP3   OH241267   5.877   4.715   2.018  0.0047 -0.1389  0.0166
 5691TIP3    H141268   5.791   4.673   2.025  0.1729 -0.5699 -0.4205
 5691TIP3    H241269   5.868   4.775   1.944 -0.2839  0.7328  0.7424
 5692TIP3   OH241270   6.363   5.557   0.164  0.3175  0.1906  0.3503
 5692TIP3    H141271   6.416   5.581   0.240 -2.0861 -0.7946  2.4896
 5692TIP3    H241272   6.330   5.469   0.184  1.1431 -0.9494 -2.7875
 5693TIP3   OH241273   3.417   0.061   1.909 -0.4479  0.0979  0.4529
 5693TIP3    H141274   3.428   0.046   1.815  0.4430 -0.8957  0.7003
 5693TIP3    H241275   3.386   0.151   1.915 -2.0135 -0.2893 -0.8820
 5694TIP3   OH241276   4.211   0.539   2.085 -0.3604  0.4871 -0.9750
 5694TIP3    H141277   4.296   0.528   2.042  0.3236 -0.3670  0.5015
 5694TIP3    H241278   4.222   0.613   2.144  0.0362 -0.8263  0.6799
 5695TIP3   OH241279   3.538   7.077   9.796 -0.1836 -0.5395 -0.0616
 5695TIP3    H141280   3.601   7.054   9.865  0.5358  0.0714 -0.5068
 5695TIP3    H241281   3.592   7.104   9.722 -0.9402  2.2154  0.2772
 5696TIP3   OH241282   6.328   2.703   8.523 -0.0575  0.2405  0.1817
 5696TIP3    H141283   6.297   2.708   8.613  1.7822  1.8537  0.7909
 5696TIP3    H241284   6.385   2.626   8.522  0.5789  0.6980  0.6374
 5697TIP3   OH241285   5.636   6.231   9.590 -0.0502 -0.2317 -0.0338
 5697TIP3    H141286   5.703   6.184   9.539 -0.8981 -1.8760  0.2976
 5697TIP3    H241287   5.558   6.228   9.535 -0.4584 -0.3406  0.5427
 5698TIP3   OH241288   3.111   4.143   7.741 -0.1802 -0.2864  0.1537
 5698TIP3    H141289   3.087   4.175   7.654  0.3373 -0.7229 -0.1622
 5698TIP3    H241290   3.112   4.047   7.732  0.5049 -0.3165  0.4618
 5699TIP3   OH241291   6.001   4.077   7.316  0.3653  0.8039 -0.2435
 5699TIP3    H141292   6.060   4.021   7.366  1.2869  2.2668  0.3764
 5699TIP3    H241293   5.940   4.112   7.381  1.0296  2.0382 -0.2536
 5700TIP3   OH241294   4.260   6.111   9.477  0.2146  0.1280 -0.3684
 5700TIP3    H141295   4.210   6.150   9.549  0.1446 -0.5614 -0.0344
 5700TIP3    H241296   4.235   6.161   9.400 -0.4366  0.2577 -0.0778
 5701TIP3   OH241297   6.379   1.257   0.770 -0.0340  0.1808 -0.5557
 5701TIP3    H141298   6.285   1.243   0.759 -0.1515  1.2915 -1.0913
 5701TIP3    H241299   6.400   1.215   0.853 -1.1815  0.7102  0.0216
 5702TIP3   OH241300   6.899   5.810   7.995  0.1443  0.3180  0.7473
 5702TIP3    H141301   6.892   5.906   7.998  1.9881  0.4776  2.0644
 5702TIP3    H241302   6.925   5.791   7.905 -1.3194  0.9282  0.1658
 5703TIP3   OH241303   0.503   1.324   2.500  0.2676 -0.8275  0.2646
 5703TIP3    H141304   0.429   1.263   2.498 -1.0509  0.6432  1.8975
 5703TIP3    H241305   0.576   1.271   2.533 -0.7117 -1.6847  1.1362
 5704TIP3   OH241306   1.597   0.136   9.720 -0.0382  0.5790  0.1423
 5704TIP3    H141307   1.566   0.082   9.648 -1.9214  3.2708 -1.2063
 5704TIP3    H241308   1.678   0.175   9.688  0.1281  0.3296  0.2511
 5705TIP3   OH241309   2.263   0.868   8.193 -0.2104  0.3120  0.3737
 5705TIP3    H141310   2.259   0.956   8.155 -2.4045  0.0402 -0.1633
 5705TIP3    H241311   2.173   0.850   8.220  0.4324 -1.3197  1.5701
 5706TIP3   OH241312   6.968   4.333   9.996 -0.1146 -0.1709  0.1872
 5706TIP3    H141313   6.988   4.243   9.969  1.1049  0.9964 -3.3078
 5706TIP3    H241314   6.884   4.351   9.955 -0.6924  0.1411  1.4496
 5707TIP3   OH241315   2.170   1.263   0.315 -0.5314 -0.2521  0.2104
 5707TIP3    H141316   2.083   1.257   0.274  0.2196 -0.1996 -1.4679
 5707TIP3    H241317   2.231   1.255   0.242  0.8729  0.6267  1.2431
 5708TIP3   OH241318   6.102   7.354   8.848 -0.1668  0.2928  0.7200
 5708TIP3    H141319   6.162   7.429   8.848 -0.4255  0.5116 -0.2546
 5708TIP3    H241320   6.080   7.341   8.756  0.8036 -1.7206  0.7128
 5709TIP3   OH241321   5.097   2.728   1.063  0.3249  0.3293 -0.0640
 5709TIP3    H141322   5.059   2.641   1.070  1.0364 -0.0863 -1.0672
 5709TIP3    H241323   5.043   2.783   1.120 -1.9695 -0.1368 -1.6630
 5710TIP3   OH241324   0.833   7.625   9.351 -0.4998  0.1999 -0.1544
 5710TIP3    H141325   0.928   7.634   9.341 -0.5599  0.0251 -0.9947
 5710TIP3    H241326   0.822   7.578   9.434  0.1386  0.4423  0.0722
 5711TIP3   OH241327   3.092   0.052   0.089  0.2465 -0.0082  0.1132
 5711TIP3    H141328   3.165   0.078   0.145  0.1634  0.8864 -0.1740
 5711TIP3    H241329   3.014   0.086   0.134  0.2357  1.3592 -0.8724
 5712TIP3   OH241330   0.022   4.556   8.106 -0.0840  0.0141  0.2416
 5712TIP3    H141331  -0.068   4.522   8.105 -0.0199 -0.1925 -1.2027
 5712TIP3    H241332   0.077   4.479   8.091  0.3826  0.0789  1.5045
 5713TIP3   OH241333   5.772   0.708   9.024  0.3948 -0.1475 -0.4212
 5713TIP3    H141334   5.785   0.789   8.975 -1.5837  0.6362  0.2756
 5713TIP3    H241335   5.728   0.650   8.963  2.3276 -0.9843 -1.1152
 5714TIP3   OH241336   1.646   1.281   0.690 -0.2141 -0.1895  0.0811
 5714TIP3    H141337   1.581   1.217   0.717 -1.8858  1.0816 -0.7244
 5714TIP3    H241338   1.692   1.240   0.617  1.0328 -1.7183  1.6312
 5715TIP3   OH241339   7.191   0.867   1.301  0.3698  0.5365  0.0758
 5715TIP3    H141340   7.241   0.949   1.300 -1.1626  1.5794  1.8620
 5715TIP3    H241341   7.156   0.859   1.212  1.3568  1.2804 -0.3954
 5716TIP3   OH241342   7.653   7.090   0.799  0.0682 -0.1029 -0.3256
 5716TIP3    H141343   7.605   7.172   0.788 -1.4179 -0.9548 -0.4675
 5716TIP3    H241344   7.629   7.037   0.723  0.0278 -1.1226  0.3698
 5717TIP3   OH241345   4.730   4.790   7.959 -0.1083  0.1662 -0.1159
 5717TIP3    H141346   4.759   4.764   8.046 -0.5686  0.3175  0.0868
 5717TIP3    H241347   4.809   4.786   7.905  0.0979 -0.3194  0.2142
 5718TIP3   OH241348   0.183   4.387   0.463 -0.7020  0.0597  0.9915
 5718TIP3    H141349   0.138   4.471   0.450  1.3565  1.3202  1.5404
 5718TIP3    H241350   0.228   4.371   0.380 -0.9551 -0.4135  0.9462
 5719TIP3   OH241351   4.814   1.536   0.559  0.3920 -0.6864  0.4409
 5719TIP3    H141352   4.861   1.615   0.585  0.0861 -0.5516  0.5949
 5719TIP3    H241353   4.881   1.479   0.521  0.7595 -0.6772  1.0658
 5720TIP3   OH241354   3.715   0.662   0.479 -0.2980  0.3146 -0.3054
 5720TIP3    H141355   3.667   0.607   0.417 -0.7571 -0.3013  0.5771
 5720TIP3    H241356   3.724   0.746   0.434  0.8358 -0.5953 -1.8712
 5721TIP3   OH241357   2.368   1.824   1.594  0.2275  0.0656 -0.1837
 5721TIP3    H141358   2.347   1.750   1.537  0.3216  0.6250 -0.9562
 5721TIP3    H241359   2.342   1.901   1.544  0.1650  0.5652  0.5977
 5722TIP3   OH241360   4.890   6.324   0.732  0.0773 -0.1248  0.4351
 5722TIP3    H141361   4.921   6.365   0.813  0.8439 -0.3187  0.2523
 5722TIP3    H241362   4.964   6.334   0.672 -0.7334  0.6217 -0.4619
 5723TIP3   OH241363   6.068   1.210   0.737  0.3614 -0.4369 -0.3835
 5723TIP3    H141364   6.026   1.177   0.817  1.1233 -1.8036 -0.5132
 5723TIP3    H241365   6.073   1.134   0.679 -0.4209  0.5869 -1.8761
 5724TIP3   OH241366   0.230   5.061   7.634 -0.0467 -0.0114  0.3519
 5724TIP3    H141367   0.165   5.117   7.674 -0.4290 -0.5888  0.5552
 5724TIP3    H241368   0.230   5.086   7.541 -0.5644 -0.0086  0.3493
 5725TIP3   OH241369   5.894   7.315   1.180 -0.1084  0.5515 -0.1742
 5725TIP3    H141370   5.808   7.355   1.193 -1.0849 -1.9164  1.8153
 5725TIP3    H241371   5.916   7.280   1.266  1.4264 -1.6523 -1.3884
 5726TIP3   OH241372   5.497   6.021   1.633  0.6546 -0.0253 -0.1077
 5726TIP3    H141373   5.445   5.951   1.670  0.9603  0.2901  0.9612
 5726TIP3    H241374   5.513   5.994   1.543 -0.0187 -0.8686  0.0101
 5727TIP3   OH241375   3.774   3.717   8.728  0.4126  0.5837 -0.1528
 5727TIP3    H141376   3.785   3.638   8.781  2.2911 -0.1312 -1.4462
 5727TIP3    H241377   3.724   3.688   8.652 -0.2604  1.0353  0.1106
 5728TIP3   OH241378   1.453   3.205   7.693 -0.0554 -0.5013  0.1222
 5728TIP3    H141379   1.533   3.201   7.746  0.7079 -1.5465 -1.0582
 5728TIP3    H241380   1.383   3.178   7.753  0.6475 -0.7780  0.8427
 5729TIP3   OH241381   5.960   2.758   9.468 -0.6952  0.6234  0.2134
 5729TIP3    H141382   6.005   2.760   9.552 -0.7951  0.5209  0.2683
 5729TIP3    H241383   5.974   2.846   9.432 -2.4727  1.4109  1.2980
 5730TIP3   OH241384   1.175   7.103   9.656 -0.3701  0.3230  0.1840
 5730TIP3    H141385   1.146   7.166   9.722 -2.8229 -0.9944  0.4715
 5730TIP3    H241386   1.111   7.111   9.585 -0.2297 -1.2019 -0.1476
 5731TIP3   OH241387   1.954   1.827   0.775  0.0560 -1.1401  0.5244
 5731TIP3    H141388   1.964   1.756   0.839 -0.5321 -1.9066 -0.2047
 5731TIP3    H241389   2.033   1.821   0.721 -1.3307 -3.2730 -1.4492
 5732TIP3   OH241390   5.910   0.832   9.796  0.3313  0.0399 -0.3452
 5732TIP3    H141391   5.937   0.881   9.874  1.8916 -0.7648 -0.3366
 5732TIP3    H241392   5.990   0.826   9.743  0.0331 -1.9335 -0.6355
 5733TIP3   OH241393   0.735   3.117   0.758  0.0539  0.1563  0.0148
 5733TIP3    H141394   0.803   3.063   0.799  0.3016  1.4653  1.4121
 5733TIP3    H241395   0.777   3.202   0.746 -0.5713  0.2864 -1.4653
 5734TIP3   OH241396   4.306   1.147   0.446 -0.1019  0.8171 -0.0893
 5734TIP3    H141397   4.273   1.087   0.513 -0.0991  2.3795  1.3691
 5734TIP3    H241398   4.275   1.110   0.363  2.8594 -3.1930  0.3170
 5735TIP3   OH241399   3.780   5.092   1.689  0.0832 -0.0002 -0.0015
 5735TIP3    H141400   3.756   5.177   1.727  1.1836 -0.1998  1.2145
 5735TIP3    H241401   3.761   5.028   1.757 -1.4889 -0.8801 -1.1950
 5736TIP3   OH241402   4.720   7.385   8.076  0.7287 -0.3863 -0.4312
 5736TIP3    H141403   4.716   7.353   8.166 -1.9352  0.4782 -0.1375
 5736TIP3    H241404   4.700   7.308   8.022  1.7700 -0.7815 -0.2710
 5737TIP3   OH241405   2.678   5.804   0.419 -0.9941  0.4597 -0.5684
 5737TIP3    H141406   2.652   5.748   0.492 -0.4922  0.8535 -0.0829
 5737TIP3    H241407   2.667   5.893   0.452  1.0605  0.6552 -0.2789
 5738TIP3   OH241408   7.285   4.249   0.700 -0.0382 -0.2267 -0.2636
 5738TIP3    H141409   7.213   4.280   0.755  0.3252 -0.1428  0.1620
 5738TIP3    H241410   7.353   4.315   0.710 -0.4431  0.4797 -1.8313
 5739TIP3   OH241411   1.693   2.450   6.987 -0.0392 -0.6138 -0.0674
 5739TIP3    H141412   1.752   2.522   7.009 -0.6890  0.6052 -2.0928
 5739TIP3    H241413   1.610   2.492   6.968 -0.7558 -2.0302 -0.1509
 5740TIP3   OH241414   5.548   6.290   8.795 -0.1401 -0.2052 -0.1971
 5740TIP3    H141415   5.458   6.321   8.791  0.8580  3.0486 -0.5885
 5740TIP3    H241416   5.556   6.248   8.881 -1.8034  0.2120  0.1891
 5741TIP3   OH241417   2.092   7.460   7.794 -0.1985  0.0791 -0.0158
 5741TIP3    H141418   2.055   7.403   7.861 -1.6061  0.3802 -0.5176
 5741TIP3    H241419   2.025   7.526   7.777  0.5372  0.6166 -0.9976
 5742TIP3   OH241420   1.879   7.259   0.685 -0.0787  0.1754 -0.5447
 5742TIP3    H141421   1.832   7.178   0.703 -1.1588  0.7730 -0.6192
 5742TIP3    H241422   1.955   7.232   0.634  0.3186 -0.9440  0.5961
 5743TIP3   OH241423   2.187   4.567   0.224  0.7727  0.0388  0.2670
 5743TIP3    H141424   2.217   4.501   0.287 -0.5676  0.0537  0.9715
 5743TIP3    H241425   2.093   4.575   0.242  0.5553  0.7636 -1.0955
 5744TIP3   OH241426   0.368   3.080   1.289  0.0539 -0.1957 -0.1978
 5744TIP3    H141427   0.457   3.103   1.263 -0.4178  0.5585 -1.2379
 5744TIP3    H241428   0.354   3.126   1.371  0.9190 -1.0538  0.4534
 5745TIP3   OH241429   4.447   7.212   7.767 -0.0708  0.5705 -0.1011
 5745TIP3    H141430   4.374   7.267   7.794  1.1228  1.6748  1.0185
 5745TIP3    H241431   4.466   7.240   7.677  0.0877  1.5400  0.2215
 5746TIP3   OH241432   4.986   5.688   8.524 -0.0996  0.5165  0.6080
 5746TIP3    H141433   5.025   5.602   8.507 -2.2217 -0.5642  0.8859
 5746TIP3    H241434   4.917   5.670   8.588 -0.2316  2.5339  1.0785
 5747TIP3   OH241435   5.997   4.833   8.058  0.7306 -0.2786  0.2637
 5747TIP3    H141436   5.905   4.855   8.069  0.3863 -0.5704 -1.6853
 5747TIP3    H241437   6.004   4.800   7.969  3.1396  1.8532 -0.4780
 5748TIP3   OH241438   3.265   4.443   2.649 -0.4293  0.3813  0.2376
 5748TIP3    H141439   3.267   4.537   2.663 -1.6455  1.0477 -3.1595
 5748TIP3    H241440   3.195   4.411   2.706 -0.7462  1.6934  0.6073
 5749TIP3   OH241441   4.614   5.239   1.890 -0.1872  0.2484  0.1249
 5749TIP3    H141442   4.548   5.171   1.879  1.5696 -1.6855  0.9071
 5749TIP3    H241443   4.694   5.202   1.852  1.3461  0.9941  2.4076
 5750TIP3   OH241444   1.003   3.145   0.440 -0.0948 -0.5190  0.6124
 5750TIP3    H141445   0.980   3.202   0.513  0.8028 -1.0928  1.3631
 5750TIP3    H241446   1.002   3.202   0.363 -2.1080 -0.1150  0.8668
 5751TIP3   OH241447   5.201   5.642   8.282 -0.9807 -1.0522 -0.1664
 5751TIP3    H141448   5.236   5.682   8.361 -0.3330  0.3191 -1.1113
 5751TIP3    H241449   5.257   5.566   8.266 -0.8480 -1.0858  0.4345
 5752TIP3   OH241450   5.195   0.769   1.422 -0.0432  0.0339  0.6290
 5752TIP3    H141451   5.140   0.754   1.499 -0.2615 -0.8703  0.3107
 5752TIP3    H241452   5.277   0.802   1.457 -0.2821  0.0110  1.2212
 5753TIP3   OH241453   4.730   3.896   7.493 -0.2470  0.4668 -0.2703
 5753TIP3    H141454   4.736   3.989   7.512  0.3426  0.4429 -0.3037
 5753TIP3    H241455   4.810   3.859   7.531 -0.0777  0.1032 -0.9506
 5754TIP3   OH241456   3.343   5.456   8.094  0.2291  0.4448 -0.7586
 5754TIP3    H141457   3.329   5.396   8.020 -2.1092 -0.4545  0.3181
 5754TIP3    H241458   3.328   5.543   8.057 -1.2696 -0.0160 -1.3162
 5755TIP3   OH241459   0.988   6.525   8.201  0.5016 -0.0392 -0.5421
 5755TIP3    H141460   0.917   6.589   8.206 -0.2673 -0.9705  0.9885
 5755TIP3    H241461   1.015   6.528   8.109 -1.1285  0.7457 -1.0449
 5756TIP3   OH241462   2.270   6.633   0.917  0.4068 -0.0631 -0.3565
 5756TIP3    H141463   2.333   6.575   0.960  1.7736  0.9346 -0.9291
 5756TIP3    H241464   2.310   6.653   0.832 -0.6812  0.6046 -0.7294
 5757TIP3   OH241465   3.621   3.539   8.121 -0.2407 -0.4674 -0.6206
 5757TIP3    H141466   3.584   3.544   8.209 -0.2719  0.5837 -0.6768
 5757TIP3    H241467   3.611   3.628   8.086  0.2179 -0.7522 -1.5021
 5758TIP3   OH241468   6.080   6.019   0.303 -0.0912  1.0691 -0.2916
 5758TIP3    H141469   6.169   6.042   0.275  0.5192 -1.2534 -0.4846
 5758TIP3    H241470   6.083   6.028   0.399  0.0670  1.8737 -0.3667
 5759TIP3   OH241471   1.224   2.149   0.539  0.0125  0.1923 -0.7299
 5759TIP3    H141472   1.236   2.185   0.627 -0.6648  0.0413 -0.5776
 5759TIP3    H241473   1.168   2.073   0.551  0.4459 -0.2125 -1.2130
 5760TIP3   OH241474   4.627   6.236   8.276 -0.5337 -1.0251 -0.4158
 5760TIP3    H141475   4.678   6.253   8.197 -1.7819 -0.0137 -1.0414
 5760TIP3    H241476   4.541   6.273   8.258 -0.1606  1.6074  2.3294
 5761TIP3   OH241477   1.719   0.224   8.244  0.1919 -0.1799 -0.0605
 5761TIP3    H141478   1.671   0.301   8.274  0.6671 -0.3672  1.2730
 5761TIP3    H241479   1.805   0.257   8.220  0.0649 -0.1475 -0.4751
 5762TIP3   OH241480   1.026   2.146   1.843 -0.3495 -0.2057 -0.2924
 5762TIP3    H141481   0.941   2.133   1.800 -0.8825 -0.8049  0.8872
 5762TIP3    H241482   1.078   2.195   1.779 -2.2863  2.0685 -0.2818
 5763TIP3   OH241483   4.446   4.003   9.205 -0.0549 -0.0308 -0.2712
 5763TIP3    H141484   4.432   4.096   9.185  1.3771  0.0457 -1.0418
 5763TIP3    H241485   4.441   3.959   9.120  1.9421 -0.2588 -0.3394
 5764TIP3   OH241486   7.440   1.808   2.643  0.1232  0.5304  0.5077
 5764TIP3    H141487   7.368   1.870   2.642 -0.6361 -0.3094 -0.9920
 5764TIP3    H241488   7.500   1.839   2.575  0.5382  0.4898  0.8448
 5765TIP3   OH241489   1.194   0.802   8.795 -0.0661  0.5347 -0.2675
 5765TIP3    H141490   1.256   0.754   8.740 -1.3372 -0.7661 -0.6155
 5765TIP3    H241491   1.198   0.756   8.880 -1.5327 -0.4560 -0.7010
 5766TIP3   OH241492   4.277   0.854   9.987  0.4478 -0.0029  0.1517
 5766TIP3    H141493   4.331   0.842   9.909  0.7631  0.9688  0.2122
 5766TIP3    H241494   4.187   0.853   9.954  0.5564 -0.1079 -0.1480
 5767TIP3   OH241495   2.171   0.098   9.308 -0.0382 -0.5437 -0.0053
 5767TIP3    H141496   2.228   0.032   9.270 -0.2444 -0.8608  0.2282
 5767TIP3    H241497   2.083   0.063   9.297 -0.2890  0.4573 -1.3865
 5768TIP3   OH241498   6.287   0.875   0.818 -0.3932 -0.6857 -0.7437
 5768TIP3    H141499   6.281   0.899   0.725  2.2533  3.9376  0.0087
 5768TIP3    H241500   6.220   0.929   0.861  1.5098  0.8541  0.4242
 5769TIP3   OH241501   4.023   0.110   6.767 -0.5377 -0.3860  0.1495
 5769TIP3    H141502   4.012   0.181   6.703 -0.4176 -1.1793 -0.7685
 5769TIP3    H241503   4.106   0.130   6.810 -0.3804 -0.1056 -0.2781
 5770TIP3   OH241504   1.977   1.826   8.132  0.1714 -0.0477 -0.1996
 5770TIP3    H141505   1.988   1.731   8.123 -0.3795 -0.1978  0.5497
 5770TIP3    H241506   1.984   1.842   8.227 -2.0978  0.3213 -0.0293
 5771TIP3   OH241507   2.716   3.300   6.259  0.5721 -0.1971  0.1847
 5771TIP3    H141508   2.734   3.327   6.349 -1.9272  0.6174  0.5203
 5771TIP3    H241509   2.742   3.208   6.256  0.6002 -0.2625  1.7803
 5772TIP3   OH241510   4.731   1.475   7.832 -0.1929 -0.3187 -0.1836
 5772TIP3    H141511   4.796   1.470   7.762 -0.8884  0.0313 -0.8648
 5772TIP3    H241512   4.655   1.427   7.798 -1.0366  1.0112 -0.2549
 5773TIP3   OH241513   6.677   2.594   9.143  0.4860 -0.2426  0.2777
 5773TIP3    H141514   6.583   2.614   9.150  0.7214  0.7984  0.7460
 5773TIP3    H241515   6.683   2.531   9.071 -0.5064  0.1908 -0.2108
 5774TIP3   OH241516   1.662   1.524   0.777 -0.2540 -0.5599 -0.0497
 5774TIP3    H141517   1.625   1.440   0.748 -0.3773 -1.1999  1.7819
 5774TIP3    H241518   1.691   1.507   0.867 -2.0287  1.8664  1.1009
 5775TIP3   OH241519   4.420   0.086   7.550 -0.6818  0.2788 -0.2679
 5775TIP3    H141520   4.410  -0.002   7.515 -0.5084 -0.0265  0.4340
 5775TIP3    H241521   4.341   0.132   7.522  0.0329  0.4402 -2.1391
 5776TIP3   OH241522   5.252   4.806   1.457  0.3159  0.2354 -0.6348
 5776TIP3    H141523   5.271   4.720   1.496 -1.5147 -0.6712 -1.6347
 5776TIP3    H241524   5.331   4.858   1.475  1.6788 -1.7905 -0.4255
 5777TIP3   OH241525   1.607   1.092   8.801  0.6142 -0.0395  0.6910
 5777TIP3    H141526   1.512   1.083   8.808  0.3996  1.7996  0.5516
 5777TIP3    H241527   1.639   1.083   8.891  0.0321  1.8087  1.1158
 5778TIP3   OH241528   2.477   2.117   2.972 -0.0934 -0.2472  0.1589
 5778TIP3    H141529   2.554   2.066   2.997 -0.5287 -0.0649  2.0263
 5778TIP3    H241530   2.481   2.195   3.028 -1.9669 -0.5608  0.8093
 5779TIP3   OH241531   1.492   0.625   1.560 -0.5921  0.0424 -0.2540
 5779TIP3    H141532   1.508   0.573   1.639  0.8567 -3.6554 -2.6795
 5779TIP3    H241533   1.576   0.667   1.542 -1.1139  1.4402  0.4786
 5780TIP3   OH241534   3.089   5.993   1.742  0.2923 -0.4813  0.5658
 5780TIP3    H141535   3.114   6.040   1.663 -2.3500 -0.9060 -0.6310
 5780TIP3    H241536   3.128   5.906   1.732  1.2259 -0.0730  0.5030
 5781TIP3   OH241537   4.836   1.295   1.490  0.2524  0.0677 -0.5582
 5781TIP3    H141538   4.834   1.388   1.469  1.0684  0.3163  0.4270
 5781TIP3    H241539   4.755   1.260   1.452 -0.5699  1.3667 -0.0453
 5782TIP3   OH241540   2.213   3.649   7.409 -0.0699 -0.4373 -0.2999
 5782TIP3    H141541   2.176   3.736   7.419  1.3410  0.0496  1.0822
 5782TIP3    H241542   2.301   3.664   7.374  0.2618 -1.2946  0.1415
 5783TIP3   OH241543   1.448   0.731   8.015 -0.7154  0.2307 -0.2387
 5783TIP3    H141544   1.433   0.786   7.938  1.6950  2.8445  0.9652
 5783TIP3    H241545   1.398   0.774   8.084 -1.0006 -0.7333  0.1630
 5784TIP3   OH241546   7.473   5.632   8.416 -0.0280 -0.1733  0.5294
 5784TIP3    H141547   7.542   5.615   8.352 -0.5975  1.0001 -0.4516
 5784TIP3    H241548   7.486   5.567   8.485  1.7739 -0.2556  0.1496
 5785TIP3   OH241549   5.623   0.192   7.745  0.1360  0.2494  0.4728
 5785TIP3    H141550   5.597   0.207   7.835  0.8947  1.4976  0.5056
 5785TIP3    H241551   5.592   0.270   7.697  2.1878  0.9645  0.2080
 5786TIP3   OH241552   3.398   5.271   6.883 -0.2990 -0.4574 -0.0974
 5786TIP3    H141553   3.469   5.322   6.921 -0.9584  0.0073  0.5573
 5786TIP3    H241554   3.441   5.208   6.825  0.5192  0.9570 -1.0718
 5787TIP3   OH241555   5.985   0.266   9.216  0.2326  0.4984 -0.1438
 5787TIP3    H141556   5.941   0.220   9.144  0.7327 -0.6655  0.2735
 5787TIP3    H241557   6.047   0.325   9.173 -2.3471  2.9506 -0.8023
 5788TIP3   OH241558   4.848   2.312   0.944  0.1163  0.4299  0.1811
 5788TIP3    H141559   4.862   2.399   0.907 -0.6267  1.6115  2.5322
 5788TIP3    H241560   4.869   2.321   1.037 -1.7104 -1.4318  0.8589
 5789TIP3   OH241561   1.271   3.192   0.669 -0.0734 -0.0756 -0.2907
 5789TIP3    H141562   1.262   3.139   0.590 -1.3393  1.1630 -1.0356
 5789TIP3    H241563   1.182   3.225   0.685  0.2459  0.0108  1.4276
 5790TIP3   OH241564   3.165   5.698   0.256  0.2110  0.3835 -0.1077
 5790TIP3    H141565   3.186   5.775   0.204  0.1115  1.5306  1.4661
 5790TIP3    H241566   3.069   5.696   0.258  0.1700 -0.7993 -1.5265
 5791TIP3   OH241567   5.726   4.367   7.843 -0.2241  0.1355  0.4059
 5791TIP3    H141568   5.719   4.273   7.824 -2.1042  0.7587 -2.7255
 5791TIP3    H241569   5.644   4.389   7.886 -0.9935  0.7673 -1.3238
 5792TIP3   OH241570   0.363   1.313   9.930  0.2677  0.2936  0.0981
 5792TIP3    H141571   0.357   1.368   9.851 -2.5680  1.4141  0.9584
 5792TIP3    H241572   0.305   1.239   9.911  1.1023 -0.4675  0.4320
 5793TIP3   OH241573   4.881   5.601   1.691 -0.1183  0.4421 -0.1528
 5793TIP3    H141574   4.946   5.568   1.753 -2.3783 -0.6208  1.8133
 5793TIP3    H241575   4.866   5.692   1.717  2.6363  1.7475 -2.5541
 5794TIP3   OH241576   7.270   2.394   8.393 -0.1221 -0.2545  0.3031
 5794TIP3    H141577   7.310   2.310   8.414  0.5216  0.1576  0.7739
 5794TIP3    H241578   7.343   2.455   8.389 -0.7726  0.7652  2.4104
 5795TIP3   OH241579   2.004   4.749   1.432  0.3691  0.3059 -0.0884
 5795TIP3    H141580   2.076   4.812   1.439  1.1239  0.5990 -5.7690
 5795TIP3    H241581   2.047   4.666   1.413 -0.7741 -0.5439  0.9062
 5796TIP3   OH241582   0.555   4.272   9.644  0.1291 -0.4416 -0.3038
 5796TIP3    H141583   0.490   4.326   9.689 -0.4050 -2.0282  0.9471
 5796TIP3    H241584   0.638   4.294   9.686  0.1955  0.5843 -0.9469
 5797TIP3   OH241585   6.616   3.394   2.040 -0.6763 -0.0555 -0.2562
 5797TIP3    H141586   6.594   3.340   2.115 -2.0421  1.1233  0.2257
 5797TIP3    H241587   6.532   3.423   2.005 -0.0166  2.5012  0.0814
 5798TIP3   OH241588   2.956   3.535   2.568 -0.3757 -0.3559  0.6063
 5798TIP3    H141589   2.972   3.481   2.645  1.0425  0.2576  0.7703
 5798TIP3    H241590   2.936   3.622   2.602 -0.2661 -0.2071  0.2951
 5799TIP3   OH241591   0.995   3.209   7.575 -0.7903 -0.0392  0.4520
 5799TIP3    H141592   1.026   3.286   7.622 -3.2613  0.7486  0.9100
 5799TIP3    H241593   0.900   3.212   7.583 -1.2120 -1.0774 -2.7269
 5800TIP3   OH241594   6.410   0.413   7.716  0.1145 -0.5056 -0.1026
 5800TIP3    H141595   6.476   0.344   7.720  1.5557  0.6473 -1.9833
 5800TIP3    H241596   6.357   0.391   7.639 -0.0667 -0.0852 -0.0991
 5801TIP3   OH241597   5.870   3.422   9.002 -0.3801 -0.1665  0.1316
 5801TIP3    H141598   5.788   3.419   9.052 -1.6421 -0.6924 -1.8194
 5801TIP3    H241599   5.875   3.337   8.960  1.0483 -0.0376  0.0105
 5802TIP3   OH241600   3.878   3.427   8.195  0.3519  0.3603 -0.3644
 5802TIP3    H141601   3.890   3.472   8.279 -2.4929 -0.9348  0.8819
 5802TIP3    H241602   3.812   3.479   8.149  0.7267  0.1806 -1.1253
 5803TIP3   OH241603   3.887   1.503   9.500  0.4320  0.2312  0.3434
 5803TIP3    H141604   3.964   1.544   9.539  0.9253  0.1459 -0.5091
 5803TIP3    H241605   3.889   1.533   9.408  0.7546 -1.6162 -0.2834
 5804TIP3   OH241606   6.187   3.977   8.405 -0.2041  0.0858 -0.1681
 5804TIP3    H141607   6.194   4.031   8.326  0.2107  0.6098  0.2190
 5804TIP3    H241608   6.191   4.040   8.477  2.6128 -0.6072  0.3851
 5805TIP3   OH241609   1.551   4.586   7.537 -0.1204 -0.0439  0.9158
 5805TIP3    H141610   1.473   4.542   7.503 -0.2322  0.7287  0.1433
 5805TIP3    H241611   1.518   4.672   7.566  0.2802 -0.0607  1.4260
 5806TIP3   OH241612   2.564   2.111   7.747  0.0836  0.0782  0.0666
 5806TIP3    H141613   2.603   2.027   7.723  1.7189  0.9656 -0.6111
 5806TIP3    H241614   2.520   2.142   7.668 -0.3072 -0.0349  0.2399
 5807TIP3   OH241615   4.116   6.506   7.912 -0.5806  0.3908  0.3138
 5807TIP3    H141616   4.025   6.536   7.909 -0.6918  0.0384  0.0172
 5807TIP3    H241617   4.122   6.455   7.993 -0.8085 -0.0650  0.0523
 5808TIP3   OH241618   2.591   3.140   9.782 -0.0660 -0.0512 -0.0352
 5808TIP3    H141619   2.598   3.228   9.818 -0.5868  0.0537 -0.1933
 5808TIP3    H241620   2.634   3.147   9.696  1.4285 -0.3704  0.6536
 5809TIP3   OH241621   5.476   5.446   0.370  0.1840  0.4707  0.2802
 5809TIP3    H141622   5.525   5.395   0.305 -2.4636 -0.9886 -0.7610
 5809TIP3    H241623   5.500   5.407   0.454  0.1625 -0.7841 -0.2750
 5810TIP3   OH241624   3.083   6.163   9.983 -0.4473  0.0282  0.5979
 5810TIP3    H141625   2.998   6.164   9.939 -1.5919 -1.0664  2.6364
 5810TIP3    H241626   3.066   6.119  10.066  2.2433 -0.6479  0.8615
 5811TIP3   OH241627   3.725   6.149   1.135 -0.1640  0.4541 -0.0185
 5811TIP3    H141628   3.787   6.221   1.123 -1.9175  1.6449 -2.8715
 5811TIP3    H241629   3.656   6.185   1.191  0.3105  0.0139  0.8799
 5812TIP3   OH241630   4.908   6.972   7.955 -0.6738  0.3357 -0.1994
 5812TIP3    H141631   4.958   6.994   8.034  0.2365 -2.0982 -0.0142
 5812TIP3    H241632   4.909   7.052   7.903 -0.6526  1.7907  1.8998
 5813TIP3   OH241633   7.039   5.297   9.386  0.1990 -0.8226 -0.2129
 5813TIP3    H141634   6.951   5.308   9.420 -0.2807 -1.2216 -1.2771
 5813TIP3    H241635   7.095   5.348   9.445 -0.9796  0.9974 -0.5983
 5814TIP3   OH241636   0.463   5.630   9.391 -0.0486 -0.0201  0.7614
 5814TIP3    H141637   0.502   5.572   9.456  0.8363 -1.8828 -1.3250
 5814TIP3    H241638   0.507   5.714   9.404  1.8340 -1.0025  1.0331
 5815TIP3   OH241639   1.968   0.588   7.434 -0.1298 -0.3932  0.2095
 5815TIP3    H141640   1.958   0.681   7.416  0.4311 -0.2383  0.6514
 5815TIP3    H241641   1.879   0.555   7.441 -0.3341  0.0623 -0.1860
 5816TIP3   OH241642   6.403   4.023   1.261  0.0352 -0.2755 -0.0345
 5816TIP3    H141643   6.353   4.105   1.266 -0.6604 -0.6450 -0.7728
 5816TIP3    H241644   6.379   3.986   1.176  1.4503 -0.5453 -0.3354
 5817TIP3   OH241645   4.090   1.426   9.187  0.4064  0.1399 -0.1254
 5817TIP3    H141646   4.114   1.379   9.108  0.9335 -1.2497  0.8224
 5817TIP3    H241647   4.168   1.421   9.243 -1.1482 -2.3729  2.0650
 5818TIP3   OH241648   6.823   0.147   0.245 -0.3285  0.3267  0.3065
 5818TIP3    H141649   6.903   0.195   0.268 -0.3215  0.2802  0.3800
 5818TIP3    H241650   6.838   0.117   0.156 -1.0751  2.0327 -0.4399
 5819TIP3   OH241651   3.096   4.682   0.280  0.1547 -0.3343 -0.5441
 5819TIP3    H141652   3.075   4.774   0.298 -0.2895 -0.4412 -0.5214
 5819TIP3    H241653   3.097   4.676   0.185 -0.8447 -0.5428 -0.5437
 5820TIP3   OH241654   6.671   6.437   9.059  0.6647  0.9717 -0.3110
 5820TIP3    H141655   6.593   6.389   9.088  1.9000 -0.5989  0.5255
 5820TIP3    H241656   6.679   6.509   9.122  0.6306  0.3694  0.3919
 5821TIP3   OH241657   3.174   4.722   2.489 -0.4132 -0.0084  0.4158
 5821TIP3    H141658   3.145   4.804   2.529 -1.2051 -0.7708  1.4345
 5821TIP3    H241659   3.269   4.723   2.498 -0.1399  1.9228 -1.7975
 5822TIP3   OH241660   7.247   3.400   1.635 -0.1455  0.2337 -0.8008
 5822TIP3    H141661   7.166   3.435   1.599 -0.1954  0.2002 -0.7212
 5822TIP3    H241662   7.293   3.477   1.669  0.0604  0.3101 -1.2466
 5823TIP3   OH241663   3.749   2.625   0.269 -0.0083  0.0257  0.0439
 5823TIP3    H141664   3.654   2.621   0.261  0.0599 -0.1626 -0.7407
 5823TIP3    H241665   3.782   2.591   0.186  0.7449  0.2008  0.2610
 5824TIP3   OH241666   4.518   3.197   9.795 -0.1178  0.1254 -0.0866
 5824TIP3    H141667   4.510   3.237   9.708 -0.2040 -1.4752 -0.8478
 5824TIP3    H241668   4.482   3.109   9.784  0.1340 -0.2020  1.5118
 5825TIP3   OH241669   5.866   1.379   1.422 -0.4855 -0.2609  0.2152
 5825TIP3    H141670   5.772   1.381   1.401 -0.9305 -1.2997  1.8689
 5825TIP3    H241671   5.871   1.327   1.503  1.4327  0.5257  0.6523
 5826TIP3   OH241672   6.585   7.033   9.809  0.1107 -0.9426  0.6508
 5826TIP3    H141673   6.508   6.979   9.789 -0.1777 -0.0132 -0.9485
 5826TIP3    H241674   6.552   7.100   9.869 -0.6009  0.0069 -0.7429
 5827TIP3   OH241675   2.212   1.775   0.663  0.6702 -0.4207  0.4519
 5827TIP3    H141676   2.296   1.778   0.617  0.8917 -1.9468  0.7115
 5827TIP3    H241677   2.165   1.702   0.623 -0.8210  0.7968 -0.1115
 5828TIP3   OH241678   6.992   4.468   0.707  0.1798  0.4257  0.6155
 5828TIP3    H141679   6.905   4.494   0.738  0.4966  2.6109 -0.1721
 5828TIP3    H241680   6.975   4.418   0.627 -0.3765 -0.1986  1.1129
 5829TIP3   OH241681   4.004   3.103   8.524  0.0303  0.2446  0.2174
 5829TIP3    H141682   4.004   3.008   8.538  1.8993  0.1192 -0.3735
 5829TIP3    H241683   3.928   3.118   8.468  0.9644 -1.2421 -1.5695
 5830TIP3   OH241684   3.715   0.435   9.576 -0.7431  0.8995 -0.2816
 5830TIP3    H141685   3.639   0.443   9.517 -1.0107  0.3738 -0.0066
 5830TIP3    H241686   3.693   0.491   9.650 -1.3438 -0.0805  0.2968
 5831TIP3   OH241687   2.053   2.698   8.469 -0.2910  0.3636  0.4686
 5831TIP3    H141688   2.078   2.760   8.400 -2.6187  1.5622  0.6181
 5831TIP3    H241689   2.104   2.725   8.545  2.0928 -0.7896 -0.6297
 5832TIP3   OH241690   2.860   5.596   8.749  0.0864 -0.4078 -0.0313
 5832TIP3    H141691   2.856   5.501   8.735  0.1571 -0.5343  0.7512
 5832TIP3    H241692   2.774   5.627   8.721 -0.4793 -0.9126  1.0617
 5833TIP3   OH241693   0.463   3.760   9.892  0.5056 -0.5481 -0.1142
 5833TIP3    H141694   0.471   3.824   9.962 -0.4859 -0.9129  0.3501
 5833TIP3    H241695   0.385   3.788   9.843  0.1803 -1.2789 -0.0246
 5834TIP3   OH241696   1.381   5.312   8.669  0.0740 -0.3023  0.3104
 5834TIP3    H141697   1.472   5.323   8.697  0.5462 -1.6300 -0.5962
 5834TIP3    H241698   1.385   5.311   8.574 -1.2670  2.3223  0.1063
 5835TIP3   OH241699   2.402   5.856   8.569 -0.1512 -0.0626 -0.4450
 5835TIP3    H141700   2.438   5.794   8.506 -0.0437  0.2178 -0.6635
 5835TIP3    H241701   2.320   5.818   8.598  0.9621 -1.4204  1.1205
 5836TIP3   OH241702   3.867   6.630   1.089  0.3795  0.2204 -0.1914
 5836TIP3    H141703   3.778   6.599   1.107  0.6325 -0.1319  0.4807
 5836TIP3    H241704   3.864   6.724   1.107  0.1883  0.1803 -0.0131
 5837TIP3   OH241705   5.591   2.931   8.176  0.1685 -0.4369  0.2187
 5837TIP3    H141706   5.520   2.868   8.186  1.0830 -1.4235  0.7853
 5837TIP3    H241707   5.671   2.879   8.187  1.0821  0.2531 -2.4272
 5838TIP3   OH241708   1.278   5.717   9.871  0.1256 -0.1670  0.1295
 5838TIP3    H141709   1.290   5.631   9.911 -1.2287  0.0290  0.9979
 5838TIP3    H241710   1.326   5.777   9.927  0.1605 -0.2043  0.1395
 5839TIP3   OH241711   0.417   0.711   0.633 -0.2897 -0.1325  0.0134
 5839TIP3    H141712   0.355   0.645   0.661 -0.1522 -0.1023  0.3919
 5839TIP3    H241713   0.363   0.782   0.599 -0.4196 -0.7287 -1.0560
 5840TIP3   OH241714   7.547   1.487   7.848 -0.3719  0.0821  0.1750
 5840TIP3    H141715   7.527   1.424   7.918 -2.2580  0.0910 -0.3108
 5840TIP3    H241716   7.463   1.527   7.827  0.5344  1.6554 -0.6191
 5841TIP3   OH241717   0.320   3.013   0.370 -0.1172 -0.1549 -0.5319
 5841TIP3    H141718   0.339   3.053   0.285  0.4984 -3.6630 -2.2271
 5841TIP3    H241719   0.402   3.021   0.419  0.7066 -1.1611 -1.6835
 5842TIP3   OH241720   5.501   3.882   2.871  0.8361  0.1789  0.6737
 5842TIP3    H141721   5.411   3.912   2.872  0.2760 -1.1221 -1.9055
 5842TIP3    H241722   5.553   3.962   2.872 -0.4849  1.1657 -1.5223
 5843TIP3   OH241723   2.024   4.822   8.288  0.0909  0.0107 -0.4721
 5843TIP3    H141724   1.963   4.877   8.238 -0.3176  0.0588  0.0669
 5843TIP3    H241725   2.092   4.798   8.226 -1.2978 -1.3630 -1.5310
 5844TIP3   OH241726   6.754   1.640   9.235 -0.5726 -0.0178  0.3727
 5844TIP3    H141727   6.722   1.629   9.145 -1.7983  2.2835  0.4638
 5844TIP3    H241728   6.849   1.638   9.227 -0.6494 -1.5039 -0.7079
 5845TIP3   OH241729   0.508   2.880   7.555  0.3795 -0.2391 -0.3539
 5845TIP3    H141730   0.504   2.921   7.642  0.9973  0.3524 -0.5952
 5845TIP3    H241731   0.420   2.847   7.540 -0.3119  1.5335 -0.4074
 5846TIP3   OH241732   3.285   3.297   1.918  0.6892  0.2048  0.1553
 5846TIP3    H141733   3.334   3.317   1.838  0.1107  0.7852 -0.0651
 5846TIP3    H241734   3.341   3.329   1.989 -0.0411  2.4261 -0.1657
 5847TIP3   OH241735   5.410   6.966   2.016  0.0383  0.1188  0.2133
 5847TIP3    H141736   5.341   6.954   1.951 -0.6572  2.9172  0.3425
 5847TIP3    H241737   5.478   7.016   1.970  1.6115 -1.7332  0.3850
 5848TIP3   OH241738   3.282   4.572   0.506 -0.4306  0.5207  0.0659
 5848TIP3    H141739   3.367   4.616   0.514 -1.0091  1.6794  0.1167
 5848TIP3    H241740   3.290   4.518   0.428 -0.0939  1.7484 -0.7887
 5849TIP3   OH241741   1.152   0.914   2.925  0.1392  0.5013 -0.1806
 5849TIP3    H141742   1.099   0.994   2.918  0.0454  0.2976 -2.7565
 5849TIP3    H241743   1.229   0.931   2.871 -0.0279 -1.2349 -1.0398
 5850TIP3   OH241744   1.746   4.431   1.360  0.1155  0.6118  0.8670
 5850TIP3    H141745   1.700   4.456   1.440  0.4475  1.1902  0.8812
 5850TIP3    H241746   1.758   4.513   1.313 -1.7366  0.0622 -0.6782
 5851TIP3   OH241747   4.055   5.931   7.855 -0.0688 -0.2702 -0.0625
 5851TIP3    H141748   4.015   6.017   7.866 -1.2679 -0.9265  0.9159
 5851TIP3    H241749   4.145   5.950   7.827 -0.7787  1.2589 -1.4554
 5852TIP3   OH241750   3.893   6.864   9.754 -0.0644  0.6894  0.0385
 5852TIP3    H141751   3.977   6.829   9.727  0.3621  1.7768 -0.0988
 5852TIP3    H241752   3.913   6.926   9.824 -0.8561  0.1734  0.7390
 5853TIP3   OH241753   2.893   6.783   9.550  0.2787 -0.0451  0.2104
 5853TIP3    H141754   2.974   6.786   9.600  0.9461  2.1982 -0.8720
 5853TIP3    H241755   2.917   6.811   9.462 -1.1577 -2.2901 -0.9853
 5854TIP3   OH241756   0.765   7.261   9.329 -0.1376 -0.1406  0.0107
 5854TIP3    H141757   0.827   7.314   9.278  0.3658 -1.5827 -0.9318
 5854TIP3    H241758   0.701   7.324   9.360  0.3619  1.0201 -1.1887
 5855TIP3   OH241759   7.272   3.211   2.099 -0.2744  0.5659 -0.1762
 5855TIP3    H141760   7.318   3.270   2.038 -0.8381  0.8093 -0.3744
 5855TIP3    H241761   7.206   3.266   2.141  0.8186  0.6733  1.4941
 5856TIP3   OH241762   0.840   2.707   0.059  0.2060  0.2578 -0.5153
 5856TIP3    H141763   0.884   2.623   0.076  1.7774  0.9260 -1.1177
 5856TIP3    H241764   0.804   2.732   0.144 -2.3052 -2.0762 -0.7548
 5857TIP3   OH241765   1.855   0.841   8.741  0.4995  0.1293 -0.0514
 5857TIP3    H141766   1.847   0.779   8.669  0.7391 -0.2850  0.2721
 5857TIP3    H241767   1.914   0.798   8.804 -1.4685 -0.5268  1.4372
 5858TIP3   OH241768   2.583   7.522   9.678  1.0508 -0.4026  0.5457
 5858TIP3    H141769   2.614   7.431   9.683  0.7916 -0.5088  0.2446
 5858TIP3    H241770   2.662   7.575   9.687  1.6336 -0.6747 -2.1378
 5859TIP3   OH241771   0.246   4.707   0.620 -0.3710 -0.0369 -0.1226
 5859TIP3    H141772   0.185   4.781   0.620 -0.1342  0.1722 -1.2963
 5859TIP3    H241773   0.189   4.630   0.620 -0.6238  0.1011  1.5827
 5860TIP3   OH241774   5.779   6.615   8.878 -0.4336  0.0231  0.1964
 5860TIP3    H141775   5.753   6.582   8.964 -2.7934  0.6012 -0.2259
 5860TIP3    H241776   5.805   6.537   8.829 -1.4907 -0.6479  0.6736
 5861TIP3   OH241777   0.842   5.380   0.170 -0.2087  0.3327 -0.3732
 5861TIP3    H141778   0.825   5.434   0.248 -1.3660 -0.2371 -0.2041
 5861TIP3    H241779   0.800   5.297   0.189  1.3022 -0.5493 -0.7645
 5862TIP3   OH241780   3.428   1.193   0.369 -0.8742 -0.3789 -0.2888
 5862TIP3    H141781   3.476   1.193   0.286 -0.9290 -2.0371 -0.3546
 5862TIP3    H241782   3.411   1.100   0.387 -0.1462 -0.1197  2.0128
 5863TIP3   OH241783   0.282   1.483   8.837  0.2826 -0.1341  0.6888
 5863TIP3    H141784   0.348   1.521   8.779  1.1341 -1.2409  0.8939
 5863TIP3    H241785   0.316   1.396   8.858 -1.3409 -0.8196  0.6404
 5864TIP3   OH241786   1.045   7.345   1.687  0.4771  0.5269  0.3452
 5864TIP3    H141787   1.069   7.433   1.660  1.3297  0.6480  1.4490
 5864TIP3    H241788   0.954   7.353   1.715 -0.1119  0.6056 -1.4126
 5865TIP3   OH241789   5.795   6.355   1.277  0.2398  0.0482  0.3867
 5865TIP3    H141790   5.824   6.313   1.358  1.5405  0.1301 -0.0101
 5865TIP3    H241791   5.852   6.317   1.209 -1.4677 -0.7623 -0.6566
 5866TIP3   OH241792   2.980   4.180   0.777  0.1428  0.1456 -0.6778
 5866TIP3    H141793   2.969   4.243   0.706  0.6824 -0.3891 -1.2476
 5866TIP3    H241794   3.040   4.223   0.838  0.0974  0.3890 -0.8034
 5867TIP3   OH241795   1.460   2.569   8.938  0.1194  0.0218 -0.1587
 5867TIP3    H141796   1.380   2.520   8.918  0.5213 -0.6163 -0.2539
 5867TIP3    H241797   1.517   2.553   8.862  0.4306  0.2542  0.0245
 5868TIP3   OH241798   3.530   3.560   9.429  0.6461 -0.4577  0.3909
 5868TIP3    H141799   3.520   3.570   9.334 -1.4157 -1.3637  0.4642
 5868TIP3    H241800   3.547   3.648   9.460  0.5032 -0.0075 -0.7400
 5869TIP3   OH241801   7.237   1.002   9.042 -0.1011 -0.1707 -0.0419
 5869TIP3    H141802   7.226   0.920   9.091 -1.9738  0.2052  0.2299
 5869TIP3    H241803   7.205   1.070   9.101 -0.0102  0.5866 -0.8429
 5870TIP3   OH241804   7.021   5.750   7.759  0.3513  0.0626 -0.4060
 5870TIP3    H141805   6.995   5.834   7.722  1.6141  1.1511  1.0559
 5870TIP3    H241806   7.098   5.770   7.812 -0.1320 -1.7811  1.0859
 5871TIP3   OH241807   6.183   6.315   8.411  0.5246 -0.3113 -0.3402
 5871TIP3    H141808   6.216   6.304   8.500  0.9466 -0.1347 -0.4741
 5871TIP3    H241809   6.170   6.226   8.379  1.3861 -0.3943 -0.4779
 5872TIP3   OH241810   6.456   1.078   0.306  0.0933 -0.0408  0.0013
 5872TIP3    H141811   6.484   0.988   0.322  0.9397  0.5301  2.1463
 5872TIP3    H241812   6.447   1.084   0.211  2.1465 -1.7806 -0.3953
 5873TIP3   OH241813   5.116   5.686   0.048 -0.1157  0.0717  0.3810
 5873TIP3    H141814   5.185   5.744   0.080 -0.2059  0.2229  0.2993
 5873TIP3    H241815   5.107   5.708  -0.045 -1.4959  1.2859  0.7756
 5874TIP3   OH241816   6.072   6.725   1.532  0.1364 -0.0008  0.4431
 5874TIP3    H141817   6.022   6.710   1.452 -0.7660 -1.5271  1.2547
 5874TIP3    H241818   6.060   6.818   1.551 -1.2213 -0.0316 -0.1577
 5875TIP3   OH241819   0.292   5.325   0.592  0.7027 -0.1834 -0.4704
 5875TIP3    H141820   0.386   5.332   0.608  0.8104 -1.7964 -0.2637
 5875TIP3    H241821   0.252   5.381   0.658  1.4585 -0.7156  0.4603
 5876TIP3   OH241822   4.167   3.038   7.957  0.0551  1.2093  0.1085
 5876TIP3    H141823   4.177   3.107   8.022 -0.2754  3.4186 -2.0552
 5876TIP3    H241824   4.256   3.010   7.937  0.2617  1.7732  0.2411
 5877TIP3   OH241825   5.043   3.906   9.408 -0.2966  0.2172  0.3608
 5877TIP3    H141826   5.035   3.959   9.487 -1.3077 -0.6372  0.8379
 5877TIP3    H241827   5.074   3.968   9.341  2.5271  0.5497  1.8449
 5878TIP3   OH241828   7.058   0.724   8.138  0.3433 -0.0884  0.2511
 5878TIP3    H141829   7.005   0.709   8.060 -0.3938  0.0830  0.7141
 5878TIP3    H241830   7.082   0.817   8.133 -0.7391  0.2462  0.8439
 5879TIP3   OH241831   3.249   4.530   2.096  1.0439 -0.3318 -0.1807
 5879TIP3    H141832   3.180   4.463   2.098  0.7595 -0.0777 -1.0942
 5879TIP3    H241833   3.296   4.519   2.179  0.9861 -1.6505 -0.3048
 5880TIP3   OH241834   6.127   7.109   9.834  0.0490 -0.7598 -0.1497
 5880TIP3    H141835   6.118   7.128   9.740 -1.5074  1.3711  0.3560
 5880TIP3    H241836   6.041   7.080   9.862  0.0681  0.0969  0.8888
 5881TIP3   OH241837   1.628   0.503   8.409  0.0222  0.1258  0.6720
 5881TIP3    H141838   1.660   0.550   8.332 -3.1918 -0.1694 -1.0486
 5881TIP3    H241839   1.552   0.554   8.438 -1.5272 -2.1233  0.8245
 5882TIP3   OH241840   3.776   3.835   9.830 -0.1553 -0.0096  0.2588
 5882TIP3    H141841   3.775   3.930   9.824 -0.0796 -0.0498 -0.4586
 5882TIP3    H241842   3.784   3.817   9.924 -0.5720  0.6841  0.4345
 5883TIP3   OH241843   2.039   2.293   7.771 -0.0081 -0.2173 -0.7778
 5883TIP3    H141844   2.015   2.308   7.862 -0.6920  0.0678 -0.9987
 5883TIP3    H241845   2.042   2.197   7.763  0.3654 -0.2412 -0.3820
 5884TIP3   OH241846   4.350   5.686   7.507 -0.3899 -0.1070 -0.2637
 5884TIP3    H141847   4.292   5.618   7.472 -0.5134  0.0380 -0.3497
 5884TIP3    H241848   4.418   5.639   7.554  0.2440 -0.3597 -1.3849
 5885TIP3   OH241849   2.607   4.629   0.814  0.8884 -0.0351  0.3498
 5885TIP3    H141850   2.532   4.682   0.841  1.1113  0.7052 -0.4417
 5885TIP3    H241851   2.569   4.544   0.791  0.1223  0.6508 -1.0395
 5886TIP3   OH241852   6.758   6.193   8.701  0.0397  0.5131  0.4777
 5886TIP3    H141853   6.669   6.160   8.716  0.0087  0.4966  0.2553
 5886TIP3    H241854   6.814   6.128   8.743  0.1416 -1.3740 -2.3617
 5887TIP3   OH241855   2.557   7.526   7.197 -0.1543  0.0193  0.1931
 5887TIP3    H141856   2.505   7.469   7.254 -1.6019 -0.5343 -1.5928
 5887TIP3    H241857   2.536   7.497   7.108  1.7577  1.0731 -0.6707
 5888TIP3   OH241858   0.474   1.847   1.464  0.0324 -0.1516  0.7074
 5888TIP3    H141859   0.443   1.905   1.394 -2.2008  0.1064  1.8363
 5888TIP3    H241860   0.562   1.879   1.483 -0.8560  2.4958  0.8168
 5889TIP3   OH241861   3.495   7.211   1.086  0.1174  0.1512 -0.1033
 5889TIP3    H141862   3.462   7.281   1.030  1.3875  0.6716 -0.2391
 5889TIP3    H241863   3.588   7.232   1.099  0.4388 -1.2947  0.1650
 5890TIP3   OH241864   4.887   7.365   1.247  0.4673 -0.3839 -0.4310
 5890TIP3    H141865   4.814   7.420   1.219  0.1789 -0.8718 -0.6423
 5890TIP3    H241866   4.888   7.292   1.185 -0.2940 -1.5944  0.9296
 5891TIP3   OH241867   2.241   7.277   2.055 -0.6836  0.0849 -0.8410
 5891TIP3    H141868   2.217   7.257   1.964  1.9534 -0.6162 -1.4538
 5891TIP3    H241869   2.211   7.202   2.105 -1.6436  0.2152 -1.1874
 5892TIP3   OH241870   1.905   4.576   9.461 -0.2329  0.4020  0.1825
 5892TIP3    H141871   1.834   4.552   9.521 -0.9459  2.4441  0.2475
 5892TIP3    H241872   1.909   4.671   9.467  2.2679  0.3747 -0.1395
 5893TIP3   OH241873   1.224   2.375   9.827 -0.1417 -0.0946 -0.7752
 5893TIP3    H141874   1.320   2.380   9.825 -0.1969  2.1443 -0.4280
 5893TIP3    H241875   1.195   2.461   9.796 -2.0775 -1.1431 -2.0064
 5894TIP3   OH241876   3.287   0.235   7.930  0.0020  0.7463 -0.2143
 5894TIP3    H141877   3.378   0.260   7.919 -0.2076  1.1776 -1.1202
 5894TIP3    H241878   3.290   0.153   7.980  0.9971 -0.2185 -1.7465
 5895TIP3   OH241879   3.496   7.314   2.944 -0.2432  0.0949 -0.2374
 5895TIP3    H141880   3.564   7.318   2.876 -0.3631  0.0789 -0.3581
 5895TIP3    H241881   3.448   7.396   2.934  0.0036  0.2856  0.1056
 5896TIP3   OH241882   0.890   5.186   8.503 -0.4095  0.5604  0.3943
 5896TIP3    H141883   0.924   5.183   8.592 -0.3761 -0.7030  0.3457
 5896TIP3    H241884   0.956   5.236   8.454  0.2914  0.0302  0.7736
 5897TIP3   OH241885   2.938   3.271   7.337 -0.5163  0.2596  0.1748
 5897TIP3    H141886   3.028   3.256   7.308 -0.9268 -2.1783  0.0171
 5897TIP3    H241887   2.936   3.364   7.361  1.2009  1.1784 -2.7199
 5898TIP3   OH241888   4.137   2.714   1.614 -0.1389 -0.0954 -0.2652
 5898TIP3    H141889   4.087   2.634   1.595  0.2338 -0.6577  1.0349
 5898TIP3    H241890   4.215   2.683   1.660  0.5986  0.9235 -0.8033
 5899TIP3   OH241891   5.817   4.680   9.789 -0.0145  0.6982 -0.2266
 5899TIP3    H141892   5.832   4.603   9.844 -0.0473  0.6770 -0.2472
 5899TIP3    H241893   5.880   4.744   9.821 -1.8654  1.6834  1.7368
 5900TIP3   OH241894   1.800   5.157   9.520  0.0623  0.0492  0.5296
 5900TIP3    H141895   1.875   5.105   9.495 -0.2053  0.0040 -0.2034
 5900TIP3    H241896   1.825   5.247   9.499  0.2035  0.1278  1.0138
 5901TIP3   OH241897   6.274   3.960   8.803 -0.2343 -0.5070  0.7022
 5901TIP3    H141898   6.317   3.914   8.875 -0.9625  0.1528  1.5796
 5901TIP3    H241899   6.333   3.949   8.729  1.1214 -0.1699  1.7073
 5902TIP3   OH241900   6.482   4.524   1.107 -0.4110 -0.0845 -0.1933
 5902TIP3    H141901   6.505   4.604   1.059  0.5791 -0.8164 -0.9822
 5902TIP3    H241902   6.393   4.540   1.138  0.0208  1.6126  0.2829
 5903TIP3   OH241903   3.103   0.791   2.103 -0.4360 -0.1114  0.4029
 5903TIP3    H141904   3.121   0.786   2.197  0.2168 -0.8484  0.2512
 5903TIP3    H241905   3.180   0.834   2.066 -0.1457 -0.8812  0.0741
 5904TIP3   OH241906   5.048   3.569   7.658  0.3131 -0.2311 -0.4359
 5904TIP3    H141907   4.968   3.585   7.608  1.4800 -1.8882 -3.0898
 5904TIP3    H241908   5.088   3.655   7.668 -0.6374  0.3246 -1.2097
 5905TIP3   OH241909   1.283   0.659   7.586  0.5299 -0.1052  1.1721
 5905TIP3    H141910   1.202   0.691   7.625  0.7571  1.4817  0.4128
 5905TIP3    H241911   1.350   0.721   7.614  1.4272 -1.1385  1.4171
 5906TIP3   OH241912   0.985   3.550   1.613 -0.1172 -0.2352  0.1764
 5906TIP3    H141913   0.963   3.552   1.519 -0.0741 -0.0817  0.1689
 5906TIP3    H241914   0.937   3.475   1.647  0.1398 -0.5051 -0.0370
 5907TIP3   OH241915   0.543   0.688   1.085  0.2470  0.8098 -0.1426
 5907TIP3    H141916   0.575   0.709   0.997 -0.2982 -1.1010 -0.8493
 5907TIP3    H241917   0.480   0.617   1.072  2.0647 -1.3833  2.0078
 5908TIP3   OH241918   4.508   4.703   7.124  0.0201  0.7128  0.5242
 5908TIP3    H141919   4.583   4.747   7.084 -0.7857  1.2258 -0.4936
 5908TIP3    H241920   4.517   4.719   7.218  1.8291 -0.2878  0.5567
 5909TIP3   OH241921   5.967   5.511   0.800 -0.2893  0.7145 -0.0951
 5909TIP3    H141922   6.009   5.457   0.867 -1.9182  0.8244  1.0580
 5909TIP3    H241923   5.928   5.447   0.740  2.2232  0.5796 -1.7588
 5910TIP3   OH241924   4.888   3.670   2.292 -0.4906 -0.5416 -0.0797
 5910TIP3    H141925   4.890   3.695   2.199 -1.3845  1.0997  0.3116
 5910TIP3    H241926   4.815   3.720   2.329 -0.3197 -1.3796  1.4630
 5911TIP3   OH241927   7.349   6.012   0.357  0.4698 -0.5363  0.1874
 5911TIP3    H141928   7.263   6.048   0.334  1.2337 -0.1444 -2.4410
 5911TIP3    H241929   7.335   5.917   0.359 -0.2017 -0.4312  0.6461
 5912TIP3   OH241930   4.444   4.712   7.943  0.1675  0.3676 -0.0063
 5912TIP3    H141931   4.539   4.722   7.944  0.2771 -0.2906 -1.4289
 5912TIP3    H241932   4.428   4.642   7.880 -1.3503  1.7475 -1.2377
 5913TIP3   OH241933   2.243   3.038   0.296 -0.4240  0.2960  0.2546
 5913TIP3    H141934   2.285   3.010   0.215 -1.4558 -0.0166 -0.1871
 5913TIP3    H241935   2.279   3.124   0.314  0.0540  0.2293 -0.3596
 5914TIP3   OH241936   5.513   2.663   0.940  0.3885  0.5876  0.3251
 5914TIP3    H141937   5.482   2.671   1.030 -0.9575 -0.5714  0.0042
 5914TIP3    H241938   5.584   2.727   0.933 -0.5340  1.8216  1.7386
 5915TIP3   OH241939   6.686   6.324   1.839  0.1233 -0.0001  0.1146
 5915TIP3    H141940   6.732   6.283   1.912 -0.5561  0.3765  0.7639
 5915TIP3    H241941   6.674   6.253   1.776  1.0298 -0.2477  0.2040
 5916TIP3   OH241942   6.125   0.246   0.743  0.2907 -0.0279  0.5235
 5916TIP3    H141943   6.135   0.151   0.748  0.0549 -0.2213 -1.6895
 5916TIP3    H241944   6.068   0.268   0.817 -0.0930 -1.6802  0.7570
 5917TIP3   OH241945   0.789   6.623   8.770 -0.3098 -0.4542 -0.7877
 5917TIP3    H141946   0.839   6.705   8.777 -2.3451  0.6931  2.4951
 5917TIP3    H241947   0.850   6.555   8.798  0.7314  0.2250 -1.3227
 5918TIP3   OH241948   2.368   1.114   1.357  0.1948 -0.4784 -0.1071
 5918TIP3    H141949   2.410   1.172   1.420  1.0088 -0.2727 -0.8299
 5918TIP3    H241950   2.307   1.170   1.310  1.2001 -0.1129 -1.0136
 5919TIP3   OH241951   1.089   4.556   7.538 -0.1055 -0.0497 -0.2486
 5919TIP3    H141952   1.163   4.614   7.555 -1.1837  1.5380 -0.7920
 5919TIP3    H241953   1.121   4.495   7.471  0.6724  0.7043 -0.5764
 5920TIP3   OH241954   6.331   2.854   0.500  0.5550  0.0857 -0.1506
 5920TIP3    H141955   6.272   2.781   0.516  2.1392 -1.2713 -0.2167
 5920TIP3    H241956   6.279   2.932   0.521 -1.0851 -1.0467  0.2219
 5921TIP3   OH241957   1.797   5.837   7.185  0.1012 -0.0120 -0.4999
 5921TIP3    H141958   1.772   5.929   7.200 -0.2083 -0.3671  1.3533
 5921TIP3    H241959   1.721   5.799   7.139  0.2121  0.6247 -1.2416
 5922TIP3   OH241960   1.389   4.313   8.309 -0.0482 -0.7657 -0.2755
 5922TIP3    H141961   1.484   4.315   8.299  0.4282  3.4124  2.3569
 5922TIP3    H241962   1.356   4.369   8.238 -0.2510 -0.3368  0.1478
 5923TIP3   OH241963   1.970   0.576   3.010 -0.3477 -0.0326  0.3516
 5923TIP3    H141964   2.025   0.551   3.084  1.0099  1.2024 -0.1717
 5923TIP3    H241965   1.899   0.627   3.049 -0.4419 -0.5835  0.9214
 5924TIP3   OH241966   0.432   4.187   7.768  0.2469  0.1452  0.6587
 5924TIP3    H141967   0.372   4.251   7.805 -0.0890  0.4434 -0.3596
 5924TIP3    H241968   0.377   4.127   7.718  0.7479  0.2341 -0.0278
 5925TIP3   OH241969   1.531   6.586   7.107  0.0368  0.5302  0.2017
 5925TIP3    H141970   1.446   6.602   7.066 -0.3296  1.0574  1.1307
 5925TIP3    H241971   1.572   6.520   7.052 -0.3760  1.3067 -1.0839
 5926TIP3   OH241972   6.305   6.704   7.981  0.1180  0.4058 -0.3770
 5926TIP3    H141973   6.278   6.705   7.889  0.4560 -0.4909 -0.4984
 5926TIP3    H241974   6.238   6.756   8.026 -0.7285 -0.1488 -0.9589
 5927TIP3   OH241975   2.848   4.373   8.669 -0.3111  0.2792  0.1607
 5927TIP3    H141976   2.777   4.429   8.701 -0.6609 -1.3721  2.5568
 5927TIP3    H241977   2.927   4.409   8.708 -0.6716 -1.4007  2.7098
 5928TIP3   OH241978   2.571   7.141   9.885  0.3457  0.0011 -0.4594
 5928TIP3    H141979   2.509   7.068   9.880 -0.7166  0.9324 -1.5000
 5928TIP3    H241980   2.580   7.158   9.979  0.8222 -1.6114 -0.1833
 5929TIP3   OH241981   7.660   0.668   0.971  0.3909  0.2027  0.0183
 5929TIP3    H141982   7.694   0.717   1.046  0.8604 -0.2987  0.1379
 5929TIP3    H241983   7.671   0.576   0.996 -0.7612  0.0250 -0.0738
 5930TIP3   OH241984   3.820   3.483   8.858  0.1959 -0.2726  0.8282
 5930TIP3    H141985   3.761   3.448   8.792  0.2378  2.9791 -1.1174
 5930TIP3    H241986   3.773   3.471   8.941 -2.0848 -0.0999 -0.3644
 5931TIP3   OH241987   3.614   1.801   0.476  0.1446  0.4576  0.5764
 5931TIP3    H141988   3.670   1.731   0.444 -0.3028 -0.0317  0.8526
 5931TIP3    H241989   3.666   1.844   0.544  0.8601  1.1173 -0.3675
 5932TIP3   OH241990   4.409   6.342   6.844 -0.0962  0.2135 -0.0496
 5932TIP3    H141991   4.406   6.272   6.909 -0.0996 -0.9173 -1.2159
 5932TIP3    H241992   4.474   6.404   6.878  0.9711 -1.0759  0.3536
 5933TIP3   OH241993   6.495   6.013   2.409  0.1770 -0.5514 -0.2228
 5933TIP3    H141994   6.498   5.928   2.364  0.4137 -0.1429 -0.9922
 5933TIP3    H241995   6.409   6.015   2.451 -0.0581 -0.9287 -0.6734
 5934TIP3   OH241996   1.657   1.146   0.214 -0.3837  0.4444 -0.0866
 5934TIP3    H141997   1.672   1.212   0.147 -0.8609 -1.6935 -2.4738
 5934TIP3    H241998   1.607   1.077   0.169 -0.2900 -1.3435  2.3378
 5935TIP3   OH241999   1.324   3.223   2.679  0.1692 -0.2067 -0.0293
 5935TIP3    H142000   1.276   3.152   2.722 -1.3239  0.3203 -0.7644
 5935TIP3    H242001   1.261   3.295   2.675  0.4760 -0.0177 -2.5019
 5936TIP3   OH242002   4.535   2.028   0.206  0.2277  0.0752  0.1130
 5936TIP3    H142003   4.498   2.092   0.145 -1.3970  0.5005  1.4863
 5936TIP3    H242004   4.461   1.975   0.233  1.5659 -2.6362 -1.1678
 5937TIP3   OH242005   2.146   7.283   7.024 -0.1533  0.0055 -0.4526
 5937TIP3    H142006   2.161   7.332   7.105 -0.7951 -0.3513 -0.0986
 5937TIP3    H242007   2.145   7.191   7.052 -0.3253 -0.1243 -0.8732
 5938TIP3   OH242008   0.245   0.123   0.422  0.3415  0.0345  0.1808
 5938TIP3    H142009   0.198   0.147   0.502  4.4128  0.3104  2.7943
 5938TIP3    H242010   0.195   0.050   0.386 -1.3124 -0.6348  3.4074
 5939TIP3   OH242011   0.929   0.911   7.933 -0.6319 -0.6510  0.2318
 5939TIP3    H142012   0.980   0.973   7.984  1.5241 -1.4813 -0.7920
 5939TIP3    H242013   0.907   0.841   7.996 -1.1118  0.0330  0.8385
 5940TIP3   OH242014   3.043   0.076   7.272  0.1457  0.3422 -0.0892
 5940TIP3    H142015   3.032   0.089   7.366  0.5362  1.1842 -0.1502
 5940TIP3    H242016   2.962   0.035   7.244 -0.2997  0.8040  0.4852
 5941TIP3   OH242017   2.882   2.218   0.300 -1.2027 -0.3211 -0.4472
 5941TIP3    H142018   2.908   2.208   0.392  1.8364 -0.4361 -1.2351
 5941TIP3    H242019   2.902   2.309   0.279 -0.0252 -0.8106 -1.5060
 5942TIP3   OH242020   2.412   2.125   7.975 -0.0013  0.4823  0.3084
 5942TIP3    H142021   2.371   2.039   7.965 -0.4923  0.6310  0.9608
 5942TIP3    H242022   2.492   2.120   7.923 -1.2507  0.4732 -1.7171
 5943TIP3   OH242023   1.646   5.071   1.562 -0.2452  0.1693 -0.1517
 5943TIP3    H142024   1.726   5.079   1.510  0.0192  1.4861  0.4142
 5943TIP3    H242025   1.575   5.091   1.500  0.1404  2.9756  0.1814
 5944TIP3   OH242026   1.298   1.103   2.779  0.1312 -0.1109  0.1528
 5944TIP3    H142027   1.343   1.179   2.741 -0.3843  0.6138  0.9469
 5944TIP3    H242028   1.216   1.139   2.815 -0.4235 -1.1599 -0.0310
 5945TIP3   OH242029   5.867   3.086   9.040 -0.5232 -0.0704 -0.0123
 5945TIP3    H142030   5.908   3.012   9.084 -1.6415 -0.5758  0.2025
 5945TIP3    H242031   5.929   3.111   8.971  0.9660  0.3281  1.4110
 5946TIP3   OH242032   2.223   3.270   9.006  0.1891 -0.2607 -1.0093
 5946TIP3    H142033   2.284   3.281   9.079  1.4788 -1.0673 -1.9069
 5946TIP3    H242034   2.150   3.221   9.043 -0.4748  1.6030  0.3466
 5947TIP3   OH242035   2.518   6.762   1.600 -0.0598 -0.5162  0.3588
 5947TIP3    H142036   2.535   6.668   1.597  1.3143 -0.3369  1.6255
 5947TIP3    H242037   2.426   6.769   1.626 -0.3007 -1.4957 -0.1775
 5948TIP3   OH242038   4.514   6.436   0.831  0.0083 -0.3450 -0.1377
 5948TIP3    H142039   4.552   6.405   0.749 -1.2478 -2.4591 -0.0099
 5948TIP3    H242040   4.431   6.476   0.806  0.2041  0.1636  0.0049
 5949TIP3   OH242041   3.150   7.173   2.873  0.0611 -0.6766  0.4431
 5949TIP3    H142042   3.140   7.238   2.943  0.9232 -0.6352  0.5435
 5949TIP3    H242043   3.234   7.131   2.892  1.5353  0.9833 -1.8916
 5950TIP3   OH242044   7.664   3.746   9.985  0.4928 -0.2680  0.5176
 5950TIP3    H142045   7.654   3.695  10.065 -0.1985 -1.3405 -0.2113
 5950TIP3    H242046   7.740   3.802  10.001 -0.1107  0.1216  2.2002
 5951TIP3   OH242047   0.710   5.904   0.920 -0.6620 -0.6275 -0.7549
 5951TIP3    H142048   0.722   5.971   0.851 -3.0047 -0.5375 -1.1569
 5951TIP3    H242049   0.669   5.951   0.992  0.1812 -1.1001  0.0543
 5952TIP3   OH242050   0.282   6.705   1.372  0.0472 -0.0112  0.6944
 5952TIP3    H142051   0.194   6.670   1.357  0.6115 -1.2636  0.1445
 5952TIP3    H242052   0.286   6.721   1.466 -0.4003 -1.0135  0.8910
 5953TIP3   OH242053   3.727   2.589   1.429 -0.2213 -0.1208 -0.4704
 5953TIP3    H142054   3.679   2.519   1.474  1.9370  0.1215  2.5637
 5953TIP3    H242055   3.794   2.543   1.379 -0.9392 -0.2991 -1.2926
 5954TIP3   OH242056   7.329   4.473   8.936 -0.3100 -0.2647 -0.4466
 5954TIP3    H142057   7.255   4.520   8.898  0.1743  0.2109 -0.8121
 5954TIP3    H242058   7.301   4.382   8.938 -1.5715  0.1151  0.9959
 5955TIP3   OH242059   5.736   6.404   0.577  0.1780  0.2022 -0.4980
 5955TIP3    H142060   5.680   6.338   0.535  0.6956  0.4938 -1.6765
 5955TIP3    H242061   5.740   6.376   0.669  0.2676 -1.3326 -0.9352
 5956TIP3   OH242062   2.907   7.110   1.187 -0.2640  0.0205 -0.5613
 5956TIP3    H142063   2.823   7.156   1.187 -1.2711 -1.6793  0.2437
 5956TIP3    H242064   2.951   7.141   1.266 -0.8305 -0.1839 -0.1542
 5957TIP3   OH242065   2.208   0.028   8.829 -0.5524 -0.2049 -0.4484
 5957TIP3    H142066   2.129  -0.027   8.836 -1.7644  1.2813 -1.5706
 5957TIP3    H242067   2.264  -0.019   8.767 -0.9922 -0.7969 -0.4125
 5958TIP3   OH242068   0.824   3.368   9.074 -0.4753  0.3471  0.8863
 5958TIP3    H142069   0.800   3.456   9.047  2.0038  0.9708  0.4609
 5958TIP3    H242070   0.818   3.316   8.993  0.2407  0.6552  0.6269
 5959TIP3   OH242071   0.522   1.619   2.201 -0.1803  0.3984 -0.1145
 5959TIP3    H142072   0.438   1.598   2.241 -0.4024 -0.4209 -0.9691
 5959TIP3    H242073   0.514   1.589   2.111  1.0949  0.1455 -0.1638
 5960TIP3   OH242074   3.674   0.869   8.686  0.2948 -0.5477  0.5483
 5960TIP3    H142075   3.656   0.883   8.779  0.3017 -0.5799  0.5547
 5960TIP3    H242076   3.590   0.842   8.649 -0.2616  1.6841  0.0892
 5961TIP3   OH242077   1.156   5.340   9.621  0.0300  0.3829 -0.2136
 5961TIP3    H142078   1.202   5.302   9.695 -0.1449 -1.8480 -1.1878
 5961TIP3    H242079   1.206   5.312   9.544  0.6649  3.2669 -0.9822
 5962TIP3   OH242080   4.499   2.272   0.697  0.1264  0.0529 -0.3578
 5962TIP3    H142081   4.579   2.225   0.672 -0.0517  0.0760 -1.0001
 5962TIP3    H242082   4.468   2.226   0.775  1.3971  0.7725  0.6217
 5963TIP3   OH242083   5.561   5.047   2.673 -0.2109  0.2457  0.1521
 5963TIP3    H142084   5.638   4.990   2.673  0.5631  1.1284  3.0737
 5963TIP3    H242085   5.595   5.134   2.652 -0.4294  0.5561  1.0093
 5964TIP3   OH242086   0.193   2.792   1.879  0.4925 -0.1395 -0.1384
 5964TIP3    H142087   0.167   2.757   1.965  0.0054  0.3149 -0.0984
 5964TIP3    H242088   0.149   2.877   1.874  1.3880  0.3202 -0.3791
 5965TIP3   OH242089   2.227   6.572   9.806 -0.2576  0.1518 -0.3623
 5965TIP3    H142090   2.229   6.630   9.882  0.6633 -1.1809  0.6910
 5965TIP3    H242091   2.317   6.541   9.797 -0.8568 -1.7596 -0.3220
 5966TIP3   OH242092   1.166   4.879   0.472  0.1018 -0.1859  0.5164
 5966TIP3    H142093   1.165   4.842   0.560 -0.1651 -0.4274  0.4115
 5966TIP3    H242094   1.076   4.908   0.457 -0.3595 -1.9777 -0.4548
 5967TIP3   OH242095   1.894   1.100   7.893  0.1855  0.1204 -0.2050
 5967TIP3    H142096   1.807   1.105   7.933  1.1559  0.5993  1.9984
 5967TIP3    H242097   1.886   1.149   7.812 -1.2336  1.4958  0.7081
 5968TIP3   OH242098   7.191   7.342   9.134  0.1316  0.1860  0.2572
 5968TIP3    H142099   7.270   7.389   9.160  0.1969  0.3007 -0.1454
 5968TIP3    H242100   7.122   7.377   9.190  0.2931  0.3478  0.3544
 5969TIP3   OH242101   5.468   0.735   1.078  0.1186  0.0177  0.6297
 5969TIP3    H142102   5.397   0.786   1.117  0.9384  0.9105  1.0083
 5969TIP3    H242103   5.426   0.684   1.009 -0.5474  2.2295 -0.7206
 5970TIP3   OH242104   4.841   5.362   0.341  0.5297 -0.5206  0.3823
 5970TIP3    H142105   4.873   5.385   0.429  0.1707  1.8448 -0.0336
 5970TIP3    H242106   4.913   5.386   0.283  0.3416 -1.0089 -0.0515
 5971TIP3   OH242107   6.190   2.546   9.885  0.2587 -0.0883 -0.5664
 5971TIP3    H142108   6.171   2.479   9.950  0.5417 -0.1497 -0.5425
 5971TIP3    H242109   6.106   2.586   9.865 -0.0458 -1.0267 -1.2105
 5972TIP3   OH242110   1.568   5.015   7.871  0.3076  0.4722 -0.6080
 5972TIP3    H142111   1.630   5.029   7.799  1.0391 -1.4469 -0.4227
 5972TIP3    H242112   1.621   5.024   7.950  0.1034 -0.0450 -0.4090
 5973TIP3   OH242113   2.555   6.482   1.341  0.5534 -0.0270  0.8788
 5973TIP3    H142114   2.560   6.401   1.289 -0.2308  0.7361 -0.4398
 5973TIP3    H242115   2.465   6.511   1.331  1.2766  2.0427 -0.3373
 5974TIP3   OH242116   1.421   0.234   1.711  0.1980 -0.5821  0.5950
 5974TIP3    H142117   1.426   0.244   1.806 -0.5187  0.5660  0.5305
 5974TIP3    H242118   1.501   0.276   1.679  0.3456 -0.7993  0.6750
 5975TIP3   OH242119   6.166   0.900   1.359 -0.3632 -0.0683 -0.3616
 5975TIP3    H142120   6.219   0.823   1.336 -0.4723 -0.4866  0.7373
 5975TIP3    H242121   6.222   0.954   1.413 -0.6550  0.0870 -0.2101
 5976TIP3   OH242122   3.383   4.621   1.232  0.4031 -0.2170  0.2681
 5976TIP3    H142123   3.421   4.663   1.154 -1.3050 -0.8717 -0.9790
 5976TIP3    H242124   3.313   4.681   1.259 -0.7630 -1.2435 -0.3506
 5977TIP3   OH242125   1.949   0.310   2.247  0.1886  0.3959 -0.1473
 5977TIP3    H142126   1.933   0.362   2.169  0.4474  1.0154  0.2038
 5977TIP3    H242127   2.021   0.252   2.223  1.2131  1.5582  0.0655
 5978TIP3   OH242128   1.038   6.131   1.233  0.0673 -0.9047  0.0964
 5978TIP3    H142129   1.101   6.183   1.283 -0.3427 -0.2933 -0.0174
 5978TIP3    H242130   1.090   6.058   1.198  1.0391  0.3458 -1.1765
 5979TIP3   OH242131   6.919   6.549   1.718  0.2694 -0.0007 -0.0046
 5979TIP3    H142132   6.910   6.544   1.813 -0.6463  2.5779  0.1308
 5979TIP3    H242133   6.874   6.471   1.685 -1.2112  0.1064  1.6484
 5980TIP3   OH242134   4.728   7.218   2.183 -0.5666 -0.2827 -0.1799
 5980TIP3    H142135   4.803   7.181   2.137 -0.0657  0.3927  0.0671
 5980TIP3    H242136   4.728   7.175   2.268  0.1038  0.3697  0.1630
 5981TIP3   OH242137   0.822   3.355   1.695 -0.4581 -0.5043  0.4523
 5981TIP3    H142138   0.785   3.359   1.783  0.4995 -0.3728  0.8587
 5981TIP3    H242139   0.746   3.363   1.637 -1.0419  0.0077  1.2631
 5982TIP3   OH242140   1.429   4.471   8.098 -0.1575  0.1659 -0.0099
 5982TIP3    H142141   1.493   4.542   8.106 -1.9383  1.7024  1.7628
 5982TIP3    H242142   1.345   4.517   8.085 -0.9826 -1.7468 -2.0403
 5983TIP3   OH242143   6.620   1.702   1.195 -0.2448  0.4071 -0.4187
 5983TIP3    H142144   6.592   1.684   1.105  1.8444 -1.4719 -0.7889
 5983TIP3    H242145   6.548   1.668   1.249 -1.5334  1.5718 -1.3248
 5984TIP3   OH242146   4.801   5.874   1.444 -0.6949 -0.5775  0.1200
 5984TIP3    H142147   4.846   5.948   1.486 -1.8866 -0.2170  0.8224
 5984TIP3    H242148   4.757   5.830   1.517  0.0917 -2.0626 -0.2789
 5985TIP3   OH242149   1.615   2.142   9.272  0.0380  0.6977  0.3553
 5985TIP3    H142150   1.577   2.187   9.347  1.1569  0.0497  1.3468
 5985TIP3    H242151   1.709   2.137   9.292  0.5400  1.4442 -1.5756
 5986TIP3   OH242152   1.342   2.541   1.584  0.0767  0.0825 -0.0356
 5986TIP3    H142153   1.380   2.563   1.669 -0.0965 -1.3841  0.4366
 5986TIP3    H242154   1.287   2.617   1.562  2.3465  1.7937 -0.2376
 5987TIP3   OH242155   0.984   5.880   8.201  0.0833 -0.0284 -0.7590
 5987TIP3    H142156   0.921   5.951   8.187 -0.0297 -0.1650 -0.9508
 5987TIP3    H242157   0.967   5.850   8.290 -0.8714 -0.7926 -1.1762
 5988TIP3   OH242158   3.390   5.389   6.506 -0.2335  0.3867  0.2392
 5988TIP3    H142159   3.466   5.367   6.559  0.6130 -0.3021 -1.1938
 5988TIP3    H242160   3.363   5.306   6.467  0.0762  1.0806 -1.5390
 5989TIP3   OH242161   4.629   7.071   0.760  0.1082 -0.5018 -0.3872
 5989TIP3    H142162   4.678   7.149   0.788 -0.5987 -0.3372  0.3934
 5989TIP3    H242163   4.690   7.025   0.702 -0.0393  1.5090 -2.2871
 5990TIP3   OH242164   3.614   7.116   9.020  0.3526  0.5729 -0.0187
 5990TIP3    H142165   3.683   7.056   9.050  0.3452  0.5435 -0.0601
 5990TIP3    H242166   3.582   7.157   9.100  0.0633  0.2061  0.0567
 5991TIP3   OH242167   0.947   0.590   0.995 -0.3034 -0.7309  0.5111
 5991TIP3    H142168   0.889   0.555   0.928 -2.4224  0.6030  1.5058
 5991TIP3    H242169   0.974   0.514   1.046 -1.1054 -1.4164 -0.0596
 5992TIP3   OH242170   5.201   5.540   0.341 -0.7379 -0.3236 -0.2621
 5992TIP3    H142171   5.286   5.499   0.357 -0.7016  0.0564  0.5794
 5992TIP3    H242172   5.180   5.518   0.250 -0.0459 -0.9654 -0.2722
 5993TIP3   OH242173   3.254   5.692   7.996 -0.4599  0.0085  0.0453
 5993TIP3    H142174   3.214   5.685   7.909 -0.2626  0.7445 -0.1178
 5993TIP3    H242175   3.194   5.747   8.046  0.0345  0.6308 -0.0211
 5994TIP3   OH242176   3.710   6.520   0.654 -0.2576  0.6745 -0.9784
 5994TIP3    H142177   3.793   6.564   0.671 -0.7774  1.2891  0.0965
 5994TIP3    H242178   3.715   6.494   0.562  0.6533  1.7287 -1.2518
 5995TIP3   OH242179   1.769   4.816   2.437 -0.0886 -0.6309  0.3737
 5995TIP3    H142180   1.787   4.860   2.520 -1.3145 -0.6707  0.6859
 5995TIP3    H242181   1.837   4.848   2.377  0.6052 -0.3428  1.2928
 5996TIP3   OH242182   1.779   6.985   0.304  0.6602 -0.6998  0.2479
 5996TIP3    H142183   1.819   6.993   0.217 -0.7528 -0.2962 -0.3935
 5996TIP3    H242184   1.762   7.076   0.331 -1.1783 -0.8730 -0.1789
 5997TIP3   OH242185   1.210   0.003   8.682  0.3825 -0.1518  0.2810
 5997TIP3    H142186   1.273   0.062   8.723 -0.1410 -0.6046  1.8113
 5997TIP3    H242187   1.149  -0.020   8.752  0.5337 -2.4770 -0.2680
 5998TIP3   OH242188   7.560   5.363   8.500 -0.0826  0.4750  1.0035
 5998TIP3    H142189   7.515   5.335   8.579 -0.5637  0.3805  0.6981
 5998TIP3    H242190   7.650   5.333   8.511 -0.0711  0.7390  1.6535
 5999TIP3   OH242191   5.808   3.683   8.643 -0.2880 -0.5581  0.0046
 5999TIP3    H142192   5.882   3.711   8.590  0.2336 -0.5378  0.7246
 5999TIP3    H242193   5.841   3.685   8.733 -1.2093 -0.3914  0.3511
 6000TIP3   OH242194   1.996   3.209   2.081 -0.3104  0.2132  0.3778
 6000TIP3    H142195   1.976   3.287   2.133  1.6357  0.1816  1.2746
 6000TIP3    H242196   2.085   3.185   2.108  0.0069 -0.9803 -1.5538
 6001TIP3   OH242197   0.059   2.660   1.664 -0.2046 -0.9402 -0.0131
 6001TIP3    H142198   0.056   2.581   1.718  1.4909 -0.9919  0.0515
 6001TIP3    H242199   0.096   2.727   1.721 -3.0628  0.3888  0.4352
 6002TIP3   OH242200   3.458   1.827   9.110  0.2510  0.3214 -0.1447
 6002TIP3    H142201   3.423   1.827   9.199  0.4547  1.8258 -0.0312
 6002TIP3    H242202   3.488   1.738   9.095 -0.4034 -0.1140  1.0497
 6003TIP3   OH242203   5.062   3.066   1.553 -0.1847 -0.5787 -0.0138
 6003TIP3    H142204   5.027   3.085   1.640  2.2920 -0.2048  0.9701
 6003TIP3    H242205   5.077   3.152   1.513 -0.3260 -0.7334 -0.4104
 6004TIP3   OH242206   2.650   6.964   0.413  0.0539  0.1197  0.8762
 6004TIP3    H142207   2.735   6.939   0.377 -0.2693 -0.3129  0.4040
 6004TIP3    H242208   2.590   6.897   0.381 -0.8076  1.4139 -0.3211
 6005TIP3   OH242209   5.297   6.158   8.434 -0.0514  0.4095  0.1690
 6005TIP3    H142210   5.208   6.155   8.400 -0.2690 -1.6647  0.7323
 6005TIP3    H242211   5.290   6.201   8.519 -0.2549  1.5584 -0.4219
 6006TIP3   OH242212   7.307   5.502   0.089 -0.3240  0.2871  0.0049
 6006TIP3    H142213   7.216   5.486   0.116  0.2150 -0.3505  1.6000
 6006TIP3    H242214   7.319   5.597   0.100 -0.3341  0.1412  1.4189
 6007TIP3   OH242215   5.016   6.497   7.450 -0.0125 -0.0202  0.6095
 6007TIP3    H142216   5.084   6.516   7.386  0.6519  0.6374  1.4848
 6007TIP3    H242217   5.010   6.401   7.451  1.0784 -0.0974  0.6934
 6008TIP3   OH242218   4.489   4.536   7.551 -0.5533 -0.3560 -0.1632
 6008TIP3    H142219   4.444   4.544   7.635 -0.7708 -3.8754  0.2096
 6008TIP3    H242220   4.462   4.450   7.518  2.1015 -0.5076 -2.2603
 6009TIP3   OH242221   6.154   4.890   1.123  0.3505 -0.3674 -0.0673
 6009TIP3    H142222   6.103   4.931   1.192 -1.0300 -1.3004 -0.4911
 6009TIP3    H242223   6.089   4.856   1.062  1.5119 -0.5281 -1.2689
 6010TIP3   OH242224   1.210   6.681   9.363 -0.2566  0.0824 -0.3977
 6010TIP3    H142225   1.203   6.607   9.303 -0.4566 -0.5125  0.3379
 6010TIP3    H242226   1.220   6.641   9.450 -1.3092  0.8955  0.1294
 6011TIP3   OH242227   5.577   4.886   9.789 -0.1534  0.1479  0.8342
 6011TIP3    H142228   5.646   4.869   9.725  0.3184  0.2826  1.2977
 6011TIP3    H242229   5.604   4.967   9.833 -0.2250 -0.1976  1.5291
 6012TIP3   OH242230   0.731   4.896   9.212  0.3984 -0.4537 -0.5939
 6012TIP3    H142231   0.786   4.840   9.157  2.6226  1.3441 -0.3558
 6012TIP3    H242232   0.773   4.894   9.298  0.0704  0.8858 -0.3707
 6013TIP3   OH242233   0.662   5.415   8.132  0.2794  0.5756  0.2754
 6013TIP3    H142234   0.680   5.495   8.083  3.1562  0.8974  1.6427
 6013TIP3    H242235   0.598   5.442   8.198 -0.3278  1.1983 -0.5381
 6014TIP3   OH242236   1.660   6.080   7.215 -0.7227 -0.5712 -0.3473
 6014TIP3    H142237   1.659   6.122   7.129  1.9025  0.8518  0.2124
 6014TIP3    H242238   1.680   6.151   7.276  1.0394 -2.0997  0.9774
 6015TIP3   OH242239   0.653   2.380   1.570  0.1848 -0.0042 -0.0583
 6015TIP3    H142240   0.588   2.425   1.516 -0.4231 -0.9931 -0.1667
 6015TIP3    H242241   0.635   2.410   1.659  0.4598  0.7618 -0.2562
 6016TIP3   OH242242   0.719   2.392   1.017 -0.1008 -0.7711 -0.0559
 6016TIP3    H142243   0.780   2.324   0.989  0.5387 -0.3343  0.2382
 6016TIP3    H242244   0.769   2.443   1.081 -0.2491  0.5108 -0.9149
 6017TIP3   OH242245   2.597   1.916   0.242  0.4882 -0.4125  0.8603
 6017TIP3    H142246   2.505   1.905   0.269  0.2609  1.4261  0.9591
 6017TIP3    H242247   2.634   1.828   0.247 -1.6672 -1.5110 -0.6778
 6018TIP3   OH242248   4.596   4.114   7.206 -0.2169 -0.1121 -0.1832
 6018TIP3    H142249   4.653   4.143   7.278 -0.5079 -0.9291  0.3910
 6018TIP3    H242250   4.555   4.033   7.239 -1.2207  0.1177 -0.8354
 6019TIP3   OH242251   0.679   0.652   9.199 -0.3177 -0.2319  0.5063
 6019TIP3    H142252   0.602   0.596   9.202 -0.8681  0.2464 -2.1498
 6019TIP3    H242253   0.648   0.739   9.223 -0.4662 -0.1794  0.1294
 6020TIP3   OH242254   2.669   4.760   7.165  0.0716  0.1057 -0.3095
 6020TIP3    H142255   2.710   4.776   7.250  0.0785 -0.0331 -0.2858
 6020TIP3    H242256   2.729   4.797   7.101  0.8580 -1.1783 -0.3621
 6021TIP3   OH242257   1.787   3.086   0.043 -0.2880 -0.2140 -0.0994
 6021TIP3    H142258   1.739   3.090   0.125  1.1121  1.4236  0.6987
 6021TIP3    H242259   1.829   3.172   0.035 -0.2030 -0.4070 -2.4220
 6022TIP3   OH242260   7.597   2.732   0.490  0.0385  0.4196 -0.1583
 6022TIP3    H142261   7.531   2.737   0.559 -2.3849  0.4841 -2.3410
 6022TIP3    H242262   7.573   2.801   0.428  1.7835  0.0216 -1.3588
 6023TIP3   OH242263   4.843   7.308   1.648  0.5319 -0.3518 -0.2991
 6023TIP3    H142264   4.781   7.335   1.580  1.9513 -1.2399 -2.0596
 6023TIP3    H242265   4.918   7.366   1.636  0.7333 -0.3996  0.6522
 6024TIP3   OH242266   4.936   0.673   9.875  0.1446  0.4930 -0.1659
 6024TIP3    H142267   4.896   0.722   9.947  1.0526 -0.5028  1.0787
 6024TIP3    H242268   5.014   0.723   9.851  0.3759  0.3304  0.2337
 6025TIP3   OH242269   3.700   2.808   8.950 -0.0011 -0.3199 -0.1362
 6025TIP3    H142270   3.736   2.866   8.883 -0.3564 -1.1568 -1.0707
 6025TIP3    H242271   3.769   2.745   8.968  0.0760 -0.1252  0.2502
 6026TIP3   OH242272   5.228   0.271   6.985  0.3906 -0.5648  0.0949
 6026TIP3    H142273   5.168   0.339   6.954  1.3305  0.1651 -0.1472
 6026TIP3    H242274   5.170   0.200   7.015 -0.5913  0.1757 -0.0078
 6027TIP3   OH242275   6.661   2.175   9.693 -0.5238 -1.0833  0.2784
 6027TIP3    H142276   6.576   2.218   9.683 -0.0338 -0.0647  0.2800
 6027TIP3    H242277   6.702   2.184   9.606 -0.1454 -0.9232  0.4702
 6028TIP3   OH242278   1.537   3.350   8.718  0.6710  0.8581 -0.0008
 6028TIP3    H142279   1.476   3.348   8.792 -0.1391  1.2333 -0.6550
 6028TIP3    H242280   1.578   3.436   8.723  0.6060  0.8888 -0.0039
 6029TIP3   OH242281   0.922   1.986   0.322  0.4293 -0.3054  0.3673
 6029TIP3    H142282   0.906   1.892   0.329 -0.7167 -0.0571  1.2409
 6029TIP3    H242283   0.862   2.026   0.385  2.0811  0.9181  1.2500
 6030TIP3   OH242284   2.137   7.563   0.590 -0.6702 -0.5018  0.7746
 6030TIP3    H142285   2.193   7.540   0.516 -1.4190  0.4755 -0.1420
 6030TIP3    H242286   2.083   7.635   0.557 -1.1407 -0.1511  2.2335
 6031TIP3   OH242287   4.900   1.384   0.153 -0.3205 -0.2035  0.3326
 6031TIP3    H142288   4.907   1.386   0.058 -0.2193 -1.3810  0.3073
 6031TIP3    H242289   4.828   1.443   0.173  2.9233  4.4583 -0.0829
 6032TIP3   OH242290   6.967   2.523   9.062  0.0099 -0.6411 -0.2364
 6032TIP3    H142291   6.913   2.505   9.139  0.1672 -0.1039  0.0085
 6032TIP3    H242292   7.056   2.526   9.096 -0.0292  0.7990 -0.2103
 6033TIP3   OH242293   4.703   3.806   9.498 -0.4425  0.2734  0.1183
 6033TIP3    H142294   4.797   3.792   9.504 -0.6345 -0.3889  2.2405
 6033TIP3    H242295   4.675   3.755   9.422  0.8130  0.0524 -0.2061
 6034TIP3   OH242296   1.189   6.018   0.026  0.4577  0.2323  0.4482
 6034TIP3    H142297   1.134   5.989   0.099 -2.0257  0.1445 -1.3178
 6034TIP3    H242298   1.278   6.019   0.062 -0.6956  0.9486  3.6786
 6035TIP3   OH242299   2.297   1.523   1.037  0.1136 -0.1498 -0.3560
 6035TIP3    H142300   2.320   1.610   1.005 -0.9715  0.1222 -0.4244
 6035TIP3    H242301   2.381   1.477   1.043  0.9465  1.4181  1.2780
 6036TIP3   OH242302   4.792   7.313   9.693 -0.2258  0.2718  0.1386
 6036TIP3    H142303   4.856   7.383   9.701  0.0023  0.1250 -0.3422
 6036TIP3    H242304   4.729   7.345   9.628  0.3059 -0.2745 -0.6637
 6037TIP3   OH242305   7.073   3.482   1.435  0.7707  0.6747 -0.2534
 6037TIP3    H142306   6.993   3.520   1.472  1.1221  1.3732 -0.2061
 6037TIP3    H242307   7.081   3.522   1.348 -0.1148 -1.0381 -1.1929
 6038TIP3   OH242308   2.764   3.157   1.484 -0.1417  0.1132 -0.1279
 6038TIP3    H142309   2.785   3.250   1.493 -0.1418  0.1096 -0.0866
 6038TIP3    H242310   2.726   3.133   1.569 -3.2431  0.8468 -1.2117
 6039TIP3   OH242311   0.705   7.163   6.975 -0.6199 -0.3219  0.0909
 6039TIP3    H142312   0.761   7.172   6.898  0.6888 -0.9472  0.9425
 6039TIP3    H242313   0.680   7.071   6.976 -1.8320 -0.0248 -0.3605
 6040TIP3   OH242314   4.387   6.305   9.717 -0.4502  0.1321 -0.3507
 6040TIP3    H142315   4.343   6.228   9.753 -4.0747  1.4050 -1.6281
 6040TIP3    H242316   4.430   6.273   9.638 -3.7223 -0.4126 -2.1046
 6041TIP3   OH242317   6.321   6.690   1.340  0.9621  0.6828  1.0793
 6041TIP3    H142318   6.257   6.686   1.411  1.2571  1.8608  1.4476
 6041TIP3    H242319   6.279   6.745   1.274  0.7707 -0.2457  0.4203
 6042TIP3   OH242320   1.550   6.346   8.000 -0.0485  0.8301 -0.0683
 6042TIP3    H142321   1.530   6.439   7.988  0.5115  0.9958  0.2161
 6042TIP3    H242322   1.542   6.332   8.095 -0.0635  0.6100 -0.1019
 6043TIP3   OH242323   3.929   1.991   0.956 -0.4008 -0.1071  0.2878
 6043TIP3    H142324   4.008   2.008   1.007  0.1827 -0.0414 -0.6063
 6043TIP3    H242325   3.951   2.021   0.868 -1.2676 -0.5117 -0.0775
 6044TIP3   OH242326   5.138   4.475   9.030  1.0457 -0.1433  0.1683
 6044TIP3    H142327   5.166   4.554   9.077  0.3310  1.9205 -2.6032
 6044TIP3    H242328   5.043   4.472   9.043  1.2735 -1.9186  2.0424
 6045TIP3   OH242329   4.328   6.074   8.063 -0.5241  0.2057 -0.2248
 6045TIP3    H142330   4.258   6.099   8.003  1.3776  2.3023 -1.7511
 6045TIP3    H242331   4.384   6.152   8.068  0.7588 -0.7545  2.3449
 6046TIP3   OH242332   2.594   3.195   8.586 -0.1615 -0.3818  0.3090
 6046TIP3    H142333   2.600   3.197   8.682  0.2740 -1.3243  0.3105
 6046TIP3    H242334   2.657   3.128   8.559 -1.4360 -1.2862 -0.5272
 6047TIP3   OH242335   5.376   3.712   9.188  0.4289 -0.1180  0.9047
 6047TIP3    H142336   5.300   3.758   9.152  0.3330  0.1069  1.3883
 6047TIP3    H242337   5.412   3.771   9.253  2.0278  0.4979 -0.4641
 6048TIP3   OH242338   7.616   2.606   0.009 -0.3359 -0.3371 -0.3852
 6048TIP3    H142339   7.530   2.567   0.028  0.0841 -0.1651  2.1221
 6048TIP3    H242340   7.595   2.688  -0.036 -1.3919 -1.0948 -1.3536
 6049TIP3   OH242341   1.663   4.088   1.048 -0.3580 -0.5184  0.1076
 6049TIP3    H142342   1.687   4.026   0.979 -1.1708 -0.8226  0.0791
 6049TIP3    H242343   1.691   4.046   1.129  4.5482  1.6252 -0.1024
 6050TIP3   OH242344   2.876   4.723   7.370  0.1085  0.3130 -0.3761
 6050TIP3    H142345   2.911   4.649   7.320 -0.5004  0.0059 -0.3660
 6050TIP3    H242346   2.937   4.795   7.353  2.2928 -0.8695  1.7956
 6051TIP3   OH242347   2.855   2.803   3.035  0.0854 -0.3387  0.5229
 6051TIP3    H142348   2.903   2.760   3.107  0.8868 -0.3306  0.0043
 6051TIP3    H242349   2.790   2.738   3.008 -1.2236  0.2069  2.2107
 6052TIP3   OH242350   5.270   7.179   0.675  0.3063  0.0457 -0.1044
 6052TIP3    H142351   5.196   7.225   0.635  0.9759  0.9675 -0.3159
 6052TIP3    H242352   5.263   7.199   0.768 -0.6466 -1.2386  0.1307
 6053TIP3   OH242353   6.682   5.390   9.404 -0.5163 -0.1014 -0.4244
 6053TIP3    H142354   6.662   5.483   9.389 -2.3477 -0.6585 -1.8986
 6053TIP3    H242355   6.598   5.346   9.395  0.4450 -2.0062 -0.6191
 6054TIP3   OH242356   4.031   1.865   9.080 -0.2238 -0.5192 -0.4450
 6054TIP3    H142357   4.119   1.903   9.073  0.5404 -1.8241  1.3870
 6054TIP3    H242358   3.988   1.917   9.147 -0.7245 -0.1630 -1.0282
 6055TIP3   OH242359   3.837   0.138   6.976  0.1519 -0.9524 -0.0383
 6055TIP3    H142360   3.877   0.153   7.062 -0.1977  1.1418 -0.1846
 6055TIP3    H242361   3.909   0.111   6.920  0.8030 -0.2378  0.4268
 6056TIP3   OH242362   2.272   5.069   0.533 -0.8327 -0.4094  0.1090
 6056TIP3    H142363   2.247   5.154   0.571 -0.6274 -0.0079 -0.6291
 6056TIP3    H242364   2.191   5.020   0.528 -1.0341 -0.0844  0.1214
 6057TIP3   OH242365   3.455   5.281   9.308 -0.2845 -0.6786 -0.8071
 6057TIP3    H142366   3.511   5.319   9.377  0.4313  0.3393 -1.9022
 6057TIP3    H242367   3.509   5.284   9.229 -1.2411 -1.4222 -1.5114
 6058TIP3   OH242368   2.731   6.523   0.239 -0.0173  0.1716 -0.2232
 6058TIP3    H142369   2.661   6.497   0.299  0.4111 -0.6452 -0.0639
 6058TIP3    H242370   2.798   6.559   0.296  0.2885 -0.3786 -0.2321
 6059TIP3   OH242371   3.233   2.527   1.152 -0.3073  0.0685  0.3544
 6059TIP3    H142372   3.243   2.455   1.214 -2.4115 -2.4960 -2.0084
 6059TIP3    H242373   3.139   2.546   1.152  0.0683  2.1876  0.1716
 6060TIP3   OH242374   0.316   3.125   7.444 -0.1224 -0.2398 -0.2421
 6060TIP3    H142375   0.338   3.190   7.377 -0.7035  0.4291  0.2000
 6060TIP3    H242376   0.383   3.135   7.511 -1.3799  1.4057  0.8364
 6061TIP3   OH242377   6.332   7.515   8.873 -0.0907  0.3334 -0.3686
 6061TIP3    H142378   6.382   7.581   8.825  0.3968  1.0996  1.1583
 6061TIP3    H242379   6.324   7.550   8.961  2.9268 -2.9257  1.4774
 6062TIP3   OH242380   2.406   1.288   7.582  0.1740  0.3170 -0.0201
 6062TIP3    H142381   2.485   1.327   7.620 -0.3223  1.1484  0.2021
 6062TIP3    H242382   2.438   1.214   7.530  0.9257 -0.5006  1.5334
 6063TIP3   OH242383   2.185   5.676   9.961  0.0735 -0.1573  0.3222
 6063TIP3    H142384   2.222   5.743   9.902 -2.8318  1.2772 -0.0380
 6063TIP3    H242385   2.133   5.620   9.904  1.1965 -1.8198  0.8743
 6064TIP3   OH242386   2.217   3.586   1.995 -0.1148 -0.4946 -0.2913
 6064TIP3    H142387   2.286   3.646   2.022  1.3022 -2.2501  0.1894
 6064TIP3    H242388   2.190   3.543   2.076 -2.3640  0.6830 -0.3457
 6065TIP3   OH242389   7.434   1.864   0.509  0.9166  0.2298 -0.0643
 6065TIP3    H142390   7.364   1.826   0.562  0.2168  1.9345  0.2850
 6065TIP3    H242391   7.490   1.909   0.572  1.9724 -0.5518 -0.4193
 6066TIP3   OH242392   6.366   1.540   0.469 -0.1239  0.0617 -0.1029
 6066TIP3    H142393   6.431   1.544   0.539 -0.5428  0.3561  0.2698
 6066TIP3    H242394   6.356   1.446   0.451  1.2792  0.0534 -0.9838
 6067TIP3   OH242395   4.215   4.819   8.393  0.7770  0.7220 -0.2947
 6067TIP3    H142396   4.269   4.851   8.466  1.8277 -2.1183  0.2821
 6067TIP3    H242397   4.232   4.725   8.389 -3.0481 -0.1230 -1.0501
 6068TIP3   OH242398   4.728   3.650   0.289 -0.9635 -0.2564  0.0101
 6068TIP3    H142399   4.715   3.734   0.244 -1.5404  0.8678  2.1463
 6068TIP3    H242400   4.642   3.607   0.284 -0.3670 -1.4007 -2.1833
 6069TIP3   OH242401   2.799   1.624   6.954 -0.2357 -0.3125  0.0844
 6069TIP3    H142402   2.785   1.603   6.862 -1.5174  0.9793 -0.0622
 6069TIP3    H242403   2.798   1.540   6.999 -0.3032 -0.9083 -1.0095
 6070TIP3   OH242404   2.529   4.604   8.111  0.0201 -0.1042 -0.2315
 6070TIP3    H142405   2.548   4.521   8.153 -1.9609  0.0622  1.1450
 6070TIP3    H242406   2.590   4.666   8.150  0.1024 -0.5169  0.2988
 6071TIP3   OH242407   7.585   0.898   1.457  0.4128  0.2251  0.3240
 6071TIP3    H142408   7.497   0.860   1.457  1.4897 -2.5543  1.3009
 6071TIP3    H242409   7.575   0.983   1.501 -2.1133  1.0973 -1.7486
 6072TIP3   OH242410   1.115   7.314   6.710  0.0557 -0.1703  0.6700
 6072TIP3    H142411   1.124   7.387   6.771  1.5742 -0.0755  0.3907
 6072TIP3    H242412   1.203   7.302   6.674 -0.3804 -1.4835 -0.0517
 6073TIP3   OH242413   4.923   4.631   9.114 -0.8126  0.0183 -0.2150
 6073TIP3    H142414   4.893   4.608   9.202 -0.5754 -2.0732 -0.6457
 6073TIP3    H242415   4.844   4.664   9.070 -0.6582  2.4121  1.1374
 6074TIP3   OH242416   2.273   4.668   0.519 -1.0337 -0.0371 -0.0210
 6074TIP3    H142417   2.280   4.574   0.499  0.2381  0.2689 -1.2507
 6074TIP3    H242418   2.347   4.707   0.472  0.1496  1.2611  2.7048
 6075TIP3   OH242419   6.831   5.097   0.487  0.5565  0.2618  0.3950
 6075TIP3    H142420   6.920   5.110   0.519  0.5834  0.1704  0.3590
 6075TIP3    H242421   6.841   5.035   0.414  0.5214  0.6245  0.0782
 6076TIP3   OH242422   0.078   2.188   7.615  0.0556 -0.1035  0.5718
 6076TIP3    H142423   0.093   2.164   7.707  1.2139 -0.1244  0.3957
 6076TIP3    H242424   0.113   2.277   7.607  1.0858 -0.5384 -0.1011
 6077TIP3   OH242425   1.937   7.662   9.618  0.0033 -0.2774 -0.1976
 6077TIP3    H142426   1.855   7.613   9.617 -0.5717  0.5481  1.6794
 6077TIP3    H242427   1.912   7.751   9.643  1.5164 -0.2170  1.3723
 6078TIP3   OH242428   6.820   0.038   9.980  0.5425 -0.4389  0.5031
 6078TIP3    H142429   6.886  -0.013   9.933  0.6763  0.8468 -0.7909
 6078TIP3    H242430   6.741  -0.016   9.978  0.4095 -0.2735 -1.6823
 6079TIP3   OH242431   1.853   0.030   7.951 -0.2740  0.1287  0.0764
 6079TIP3    H142432   1.761   0.005   7.952 -0.7243  1.4049 -2.2388
 6079TIP3    H242433   1.887  -0.007   7.870  2.1355 -2.8122  2.1587
 6080TIP3   OH242434   0.323   3.140   9.900  0.0810  0.8578 -0.1260
 6080TIP3    H142435   0.327   3.131   9.995  1.1237  0.9441 -0.1489
 6080TIP3    H242436   0.257   3.209   9.885  0.1964  1.1173  0.5512
 6081TIP3   OH242437   0.486   0.151   8.881  0.1552 -0.4657  0.2624
 6081TIP3    H142438   0.466   0.213   8.951 -1.3357 -0.2797 -0.2871
 6081TIP3    H242439   0.520   0.205   8.810 -2.8759  0.0961 -0.9169
 6082TIP3   OH242440   2.075   0.420   0.424  0.1071 -0.3227 -0.4706
 6082TIP3    H142441   1.993   0.458   0.394  0.6887  1.7248  0.3528
 6082TIP3    H242442   2.053   0.378   0.508  0.1442  1.6125  0.5621
 6083TIP3   OH242443   5.259   2.545   0.572  0.5441  1.2041 -0.2594
 6083TIP3    H142444   5.215   2.463   0.595 -1.7884  2.0763 -1.2977
 6083TIP3    H242445   5.287   2.582   0.655  0.8277 -0.2051  0.2922
 6084TIP3   OH242446   5.456   0.147   8.674 -0.1947 -0.1859 -0.7002
 6084TIP3    H142447   5.496   0.184   8.752 -0.1530  1.0131 -1.2716
 6084TIP3    H242448   5.529   0.110   8.624 -0.2257 -0.9801 -0.1779
 6085TIP3   OH242449   4.058   0.117   0.958 -0.0533  0.1965 -0.4944
 6085TIP3    H142450   4.055   0.092   1.050  2.5408  0.3591 -0.2997
 6085TIP3    H242451   4.048   0.035   0.910 -0.2854 -0.0322 -0.0627
 6086TIP3   OH242452   0.288   1.043   1.862 -0.0569  0.2237  0.7264
 6086TIP3    H142453   0.285   1.018   1.769  1.2770  0.1321  0.6837
 6086TIP3    H242454   0.269   1.137   1.862  0.1863  0.2769  0.3299
 6087TIP3   OH242455   1.265   7.460   1.034  0.3656 -0.2364 -0.0230
 6087TIP3    H142456   1.244   7.386   0.976  1.6132 -0.3253 -0.3998
 6087TIP3    H242457   1.321   7.516   0.981 -0.2818  0.8226  0.3809
 6088TIP3   OH242458   1.692   3.207   1.617 -0.0107 -0.2565  0.4236
 6088TIP3    H142459   1.715   3.234   1.706 -0.9166  0.7271  0.3755
 6088TIP3    H242460   1.772   3.167   1.584  0.3673 -0.5767  1.6535
 6089TIP3   OH242461   4.164   0.348   9.635  0.7723  0.5349 -0.6462
 6089TIP3    H142462   4.192   0.283   9.570  1.0126 -0.4966  0.4757
 6089TIP3    H242463   4.173   0.432   9.589 -2.2785 -0.2960 -3.1332
 6090TIP3   OH242464   3.541   5.556   8.264 -0.3411  0.2812 -0.1858
 6090TIP3    H142465   3.533   5.648   8.240 -0.8416  0.4934  0.7960
 6090TIP3    H242466   3.472   5.512   8.214 -1.4800  0.7450  0.9378
 6091TIP3   OH242467   4.450   5.854   7.828  0.5994 -0.3944  0.1417
 6091TIP3    H142468   4.505   5.862   7.906 -0.3026  0.0735  0.7365
 6091TIP3    H242469   4.383   5.790   7.852  0.9028 -1.0081 -0.6020
 6092TIP3   OH242470   4.483   7.659   1.705 -0.0482  0.1863  0.6206
 6092TIP3    H142471   4.542   7.732   1.686  0.1437  0.8609  3.3893
 6092TIP3    H242472   4.434   7.687   1.782 -2.6981 -1.1362 -0.4521
 6093TIP3   OH242473   5.536   2.758   1.683 -0.0388 -0.0932  0.1113
 6093TIP3    H142474   5.466   2.766   1.618 -0.2003  0.3912  0.3398
 6093TIP3    H242475   5.607   2.715   1.637 -0.7175 -1.2158  0.0518
 6094TIP3   OH242476   6.895   1.309   0.728  0.1389 -0.5187 -0.3161
 6094TIP3    H142477   6.825   1.325   0.665 -0.1565 -0.8074 -0.0614
 6094TIP3    H242478   6.974   1.302   0.674 -0.3115 -2.2611 -0.8251
 6095TIP3   OH242479   1.784   2.411   8.126  0.5306 -0.2907 -0.0248
 6095TIP3    H142480   1.854   2.472   8.147  1.2044  0.0219 -2.7559
 6095TIP3    H242481   1.823   2.325   8.134  0.4318 -0.2516  0.9881
 6096TIP3   OH242482   6.506   1.171   1.452  0.1335 -0.1575  0.0289
 6096TIP3    H142483   6.595   1.179   1.488  0.2201 -0.0117 -0.2153
 6096TIP3    H242484   6.513   1.207   1.364  0.1514 -1.3887 -0.5002
 6097TIP3   OH242485   5.860   6.025   1.924  0.7125 -0.3078  0.3107
 6097TIP3    H142486   5.815   6.094   1.874  1.1714 -0.0888  0.1909
 6097TIP3    H242487   5.824   5.943   1.889 -1.1570 -0.1348  1.6846
 6098TIP3   OH242488   2.739   2.179   1.711  0.1101  0.6185 -0.0585
 6098TIP3    H142489   2.820   2.214   1.748 -0.5867  2.7087 -0.3910
 6098TIP3    H242490   2.718   2.238   1.639 -1.8334  0.2731  0.1656
 6099TIP3   OH242491   4.477   4.142   6.966  0.5159  0.2489  0.0728
 6099TIP3    H142492   4.501   4.228   6.931  0.7945 -0.3880 -1.3669
 6099TIP3    H242493   4.541   4.124   7.035  0.8846  0.8775 -0.1055
 6100TIP3   OH242494   0.977   0.197   1.905  0.1222 -0.1956 -0.2202
 6100TIP3    H142495   1.052   0.251   1.879  0.2053  0.8805  2.0240
 6100TIP3    H242496   0.902   0.255   1.900 -0.2726 -0.7268 -0.6021
 6101TIP3   OH242497   0.797   7.149   2.535  0.5335  0.3034 -0.3874
 6101TIP3    H142498   0.760   7.173   2.620 -1.3657 -0.1571 -1.0305
 6101TIP3    H242499   0.745   7.198   2.471  2.2618  1.0497 -1.2990
 6102TIP3   OH242500   5.037   2.738   0.532 -0.0504  0.4433  0.4649
 6102TIP3    H142501   5.113   2.692   0.567 -0.4899  0.5478  1.5803
 6102TIP3    H242502   4.980   2.669   0.497 -0.0172  0.2625  0.7684
 6103TIP3   OH242503   6.971   1.853   2.023 -0.3963 -0.6251 -0.4066
 6103TIP3    H142504   7.017   1.911   2.084  0.6329  0.3279 -2.0051
 6103TIP3    H242505   6.908   1.910   1.979 -1.4768 -1.4113  0.0691
 6104TIP3   OH242506   2.401   3.884   1.257 -0.7391 -0.5455  0.1110
 6104TIP3    H142507   2.327   3.927   1.214  0.4179  2.2160  0.6315
 6104TIP3    H242508   2.463   3.866   1.186 -1.1516 -1.2120 -0.0864
 6105TIP3   OH242509   2.593   7.620   2.232  0.1838  0.2271  0.0027
 6105TIP3    H142510   2.538   7.544   2.251  0.5482 -0.3013 -0.9969
 6105TIP3    H242511   2.623   7.606   2.142  0.5919  1.3485 -0.0474
 6106TIP3   OH242512   2.133   1.836   9.064 -0.4865  0.3116  0.8644
 6106TIP3    H142513   2.184   1.778   9.007  0.0571 -1.1675  2.7542
 6106TIP3    H242514   2.088   1.895   9.004  1.8189  0.3294 -0.9931
 6107TIP3   OH242515   3.093   6.796   0.702  0.1181 -0.0016 -0.3744
 6107TIP3    H142516   3.141   6.822   0.623  0.4282 -0.9204 -0.5016
 6107TIP3    H242517   3.006   6.774   0.670 -0.2672  1.2090 -0.2110
 6108TIP3   OH242518   0.459   5.323   9.159 -0.2346  0.0740  0.6299
 6108TIP3    H142519   0.468   5.291   9.070 -0.6663  0.6898  0.3569
 6108TIP3    H242520   0.484   5.415   9.154  2.6020 -0.5299  1.7033
 6109TIP3   OH242521   4.700   0.255   8.271  0.2713  0.3492  0.2946
 6109TIP3    H142522   4.794   0.271   8.270  0.4386 -0.5642 -0.4646
 6109TIP3    H242523   4.691   0.172   8.320 -0.3073  1.2761  1.8373
 6110TIP3   OH242524   3.454   7.324   0.178  0.1828  0.1580 -0.2355
 6110TIP3    H142525   3.368   7.366   0.180  0.3328  0.4484  1.7062
 6110TIP3    H242526   3.435   7.232   0.163 -0.2686  0.5585 -2.5026
 6111TIP3   OH242527   6.478   2.943   8.595 -0.7399 -1.1112  0.0024
 6111TIP3    H142528   6.502   2.893   8.673  0.4283 -0.4581  0.0803
 6111TIP3    H242529   6.427   2.881   8.542 -1.4628 -1.5972  1.2178
 6112TIP3   OH242530   5.769   7.334   1.698 -0.2330  0.4117  0.1631
 6112TIP3    H142531   5.832   7.320   1.769 -0.2996  1.4981  0.4658
 6112TIP3    H242532   5.690   7.288   1.727  0.0387  0.0497  0.3422
 6113TIP3   OH242533   0.545   6.222   7.349 -0.6181  0.0064  0.5887
 6113TIP3    H142534   0.595   6.294   7.388 -0.8126  0.2938  0.3221
 6113TIP3    H242535   0.564   6.229   7.255 -1.4210  0.3334  0.4454
 6114TIP3   OH242536   0.701   6.655   2.119  0.2371 -0.5206  0.1936
 6114TIP3    H142537   0.729   6.668   2.210 -0.0411 -1.0082  0.3580
 6114TIP3    H242538   0.613   6.693   2.116  0.4882  0.0500 -0.0386
 6115TIP3   OH242539   4.159   4.096   8.896  0.5936  0.0488  0.2746
 6115TIP3    H142540   4.180   4.055   8.812 -1.1150 -1.8028  0.6770
 6115TIP3    H242541   4.146   4.188   8.875  4.2578  0.4949 -0.7292
 6116TIP3   OH242542   2.915   7.454   2.057 -0.7846 -0.3298  0.5216
 6116TIP3    H142543   2.964   7.483   1.981 -1.0934 -1.4909 -0.1566
 6116TIP3    H242544   2.909   7.531   2.113  1.6933 -0.1257  0.5882
 6117TIP3   OH242545   1.977   4.402   7.471 -0.2070 -0.4522 -0.0664
 6117TIP3    H142546   2.030   4.351   7.533  0.6206 -2.2459 -2.0842
 6117TIP3    H242547   1.945   4.337   7.408 -1.3553  1.2012 -1.2910
 6118TIP3   OH242548   2.429   7.477   2.519  0.0056  0.2991  0.4485
 6118TIP3    H142549   2.447   7.557   2.569 -1.8628  0.5301  0.8427
 6118TIP3    H242550   2.363   7.431   2.571  1.1092 -1.5651  0.2576
 6119TIP3   OH242551   3.576   6.050   7.214 -0.5692  0.2903  0.0409
 6119TIP3    H142552   3.577   5.991   7.290 -1.1564 -0.0996 -0.2443
 6119TIP3    H242553   3.623   6.001   7.146 -2.4199 -0.5649 -0.6938
 6120TIP3   OH242554   2.248   1.876   7.925  0.4827  0.0217  0.0515
 6120TIP3    H142555   2.238   1.886   8.020 -1.5427  0.3628 -0.1506
 6120TIP3    H242556   2.232   1.783   7.909 -3.0049  0.5363 -0.2518
 6121TIP3   OH242557   5.927   2.367   1.117  0.4003  0.2915  0.0981
 6121TIP3    H142558   5.890   2.449   1.084  2.1489  1.1777  0.2000
 6121TIP3    H242559   5.852   2.309   1.127 -0.7795  1.5750 -0.8521
 6122TIP3   OH242560   3.150   3.489   9.631 -0.3547  0.3582  0.5129
 6122TIP3    H142561   3.157   3.583   9.643  0.1312  0.4766 -0.5762
 6122TIP3    H242562   3.130   3.478   9.538  1.4949 -0.6716  0.1980
 6123TIP3   OH242563   7.362   5.385   1.228 -0.1510 -0.3916 -0.6473
 6123TIP3    H142564   7.391   5.432   1.305 -0.5909 -0.3784 -0.4871
 6123TIP3    H242565   7.435   5.327   1.206  0.2026  0.0186 -0.5649
 6124TIP3   OH242566   1.701   7.438   8.915  0.1450  0.1077  0.6094
 6124TIP3    H142567   1.769   7.380   8.950 -0.5786  0.3123  2.5029
 6124TIP3    H242568   1.665   7.391   8.841  2.1087 -0.1532 -0.2539
 6125TIP3   OH242569   1.661   3.543   2.920  0.2501 -0.0455 -0.1476
 6125TIP3    H142570   1.708   3.476   2.971 -1.1694 -0.7979  0.2134
 6125TIP3    H242571   1.679   3.624   2.967  1.3344 -0.2675 -0.1307
 6126TIP3   OH242572   0.027   5.000   0.070  0.5221  0.9462  0.2972
 6126TIP3    H142573   0.097   5.064   0.084  0.4329  1.2532 -0.5563
 6126TIP3    H242574  -0.010   5.025  -0.015  1.5498 -1.2008 -0.8429
 6127TIP3   OH242575   4.084   1.377   7.588  1.0111 -0.1273 -0.0034
 6127TIP3    H142576   3.999   1.369   7.633  1.3174 -1.1436  0.4386
 6127TIP3    H242577   4.094   1.470   7.571 -0.3134 -0.0143 -0.2848
 6128TIP3   OH242578   4.941   2.829   0.242 -0.3405  0.4040  0.1042
 6128TIP3    H142579   5.003   2.886   0.196  0.2740 -0.9910 -0.8456
 6128TIP3    H242580   4.964   2.840   0.335  0.4477  0.8953 -0.1379
 6129TIP3   OH242581   0.803   6.708   8.140  0.3300  0.4307  0.6196
 6129TIP3    H142582   0.725   6.695   8.086  1.0895  0.1826 -0.4455
 6129TIP3    H242583   0.836   6.794   8.113 -0.5317  1.3369  2.3220
 6130TIP3   OH242584   1.566   4.747   8.917  0.4765 -0.8102 -0.4860
 6130TIP3    H142585   1.653   4.772   8.884  0.8957 -0.8237  0.5855
 6130TIP3    H242586   1.580   4.662   8.959  0.5482  0.3669  2.0529
 6131TIP3   OH242587   3.158   6.140   2.195  0.1330  0.4906 -0.0944
 6131TIP3    H142588   3.080   6.178   2.156  0.8258  1.3783 -0.6411
 6131TIP3    H242589   3.207   6.104   2.122 -1.4552 -3.4508  0.5333
 6132TIP3   OH242590   7.334   1.711   7.953 -0.3861 -0.0946  0.1217
 6132TIP3    H142591   7.252   1.707   7.903 -0.9326  2.7825  0.6244
 6132TIP3    H242592   7.352   1.805   7.964  1.9224 -0.6224  1.7724
 6133TIP3   OH242593   6.234   0.703   7.679 -0.4526 -0.1851 -0.2409
 6133TIP3    H142594   6.313   0.651   7.662  0.5897 -0.1050  3.5047
 6133TIP3    H242595   6.188   0.705   7.595  0.4248 -5.4609 -1.1847
 6134TIP3   OH242596   5.214   3.842   2.365 -0.0864 -0.2369 -0.0804
 6134TIP3    H142597   5.149   3.821   2.432 -0.4417  0.0791 -0.3234
 6134TIP3    H242598   5.216   3.766   2.308 -0.0066 -0.3800  0.1118
 6135TIP3   OH242599   4.571   7.457   9.046  0.1320  0.4441  0.3229
 6135TIP3    H142600   4.556   7.498   9.131 -2.3250 -2.9198  1.7604
 6135TIP3    H242601   4.486   7.460   9.003  0.5751 -0.5813 -0.6769
 6136TIP3   OH242602   0.305   0.142   9.347  0.1777  0.0735  0.2856
 6136TIP3    H142603   0.345   0.137   9.433 -1.4457 -2.1562  1.0070
 6136TIP3    H242604   0.220   0.182   9.362 -0.5448 -1.2647 -0.0444
 6137TIP3   OH242605   5.017   5.958   9.804 -0.1075  0.0153  0.4285
 6137TIP3    H142606   4.992   6.030   9.746 -1.3389 -0.8089 -0.0849
 6137TIP3    H242607   4.987   5.985   9.890 -1.0337 -0.0978  0.1484
 6138TIP3   OH242608   3.982   4.954   2.065  0.2418 -0.0189  0.8190
 6138TIP3    H142609   3.932   5.026   2.025  0.2990 -0.7768 -0.7277
 6138TIP3    H242610   3.929   4.927   2.140 -1.0950  0.0044 -0.0617
 6139TIP3   OH242611   0.531   6.673   0.986 -0.2118 -0.1959 -0.3716
 6139TIP3    H142612   0.451   6.645   1.031  0.4488  0.5585  1.3531
 6139TIP3    H242613   0.512   6.660   0.893 -2.1724 -0.4328  0.0195
 6140TIP3   OH242614   4.164   1.994   1.119  0.4337  0.4254 -0.0970
 6140TIP3    H142615   4.123   2.028   1.199  1.2814 -1.2716  1.1156
 6140TIP3    H242616   4.254   1.973   1.144  0.2054 -1.9031 -0.9410
 6141TIP3   OH242617   5.975   2.879   9.180  0.4486 -0.0418  0.7195
 6141TIP3    H142618   5.909   2.885   9.249  0.5519  0.7449  0.7683
 6141TIP3    H242619   5.963   2.793   9.141 -1.1577  0.3783  0.2018
 6142TIP3   OH242620   5.085   7.081   0.058  0.0047 -0.3807 -0.2550
 6142TIP3    H142621   5.016   7.147   0.066 -0.4571 -1.0399  2.2013
 6142TIP3    H242622   5.154   7.124   0.009 -1.2682  1.0474 -0.8832
 6143TIP3   OH242623   5.115   5.774   9.139  0.3814  0.4030 -0.1956
 6143TIP3    H142624   5.209   5.757   9.139  0.9212  2.9567  0.2876
 6143TIP3    H242625   5.081   5.722   9.067  2.0329 -1.1122  0.0439
 6144TIP3   OH242626   5.773   4.906   8.334 -0.4903  0.3670  0.1802
 6144TIP3    H142627   5.742   4.992   8.308  1.0588  0.7123 -0.6336
 6144TIP3    H242628   5.736   4.846   8.269 -0.4590  0.6186 -0.0723
 6145TIP3   OH242629   0.637   7.369   8.431  0.6643  0.1615  0.5127
 6145TIP3    H142630   0.641   7.285   8.476  0.5933 -0.7412 -1.0966
 6145TIP3    H242631   0.716   7.371   8.377 -1.3636 -0.9276 -2.8292
 6146TIP3   OH242632   2.188   5.431   9.312 -0.1522 -0.2363 -0.1338
 6146TIP3    H142633   2.256   5.393   9.369  0.2106 -0.3182 -0.6100
 6146TIP3    H242634   2.144   5.355   9.274  0.6963 -0.2154 -1.2332
 6147TIP3   OH242635   5.220   7.409   0.154 -0.3950  0.1395 -0.7640
 6147TIP3    H142636   5.245   7.501   0.166 -0.0392 -0.2135  1.7663
 6147TIP3    H242637   5.149   7.411   0.090  1.7174  1.8100 -3.2788
 6148TIP3   OH242638   4.005   4.696   9.177  0.5388 -0.3698 -0.0723
 6148TIP3    H142639   3.960   4.781   9.171  0.8754 -0.1554  0.3751
 6148TIP3    H242640   3.971   4.657   9.257  2.6822  0.7236  1.4723
 6149TIP3   OH242641   2.885   5.377   0.336 -0.2264  0.0930  0.0282
 6149TIP3    H142642   2.811   5.424   0.374 -0.0943 -0.8773  1.5857
 6149TIP3    H242643   2.962   5.411   0.382  0.0074 -0.7007  0.2421
 6150TIP3   OH242644   5.359   5.075   2.847  0.3332 -0.3895 -0.0211
 6150TIP3    H142645   5.404   5.004   2.894  0.3694 -1.1390 -1.1447
 6150TIP3    H242646   5.417   5.095   2.774 -0.2878 -0.0704 -0.4330
 6151TIP3   OH242647   6.560   4.984   0.938  0.9520 -0.0448  0.4447
 6151TIP3    H142648   6.496   5.015   0.874  1.2412 -0.7497 -0.1957
 6151TIP3    H242649   6.570   5.057   0.999  1.0405  0.8255 -0.5960
 6152TIP3   OH242650   6.093   3.789   9.537  0.0124 -0.0960  0.1148
 6152TIP3    H142651   6.090   3.798   9.442  1.2693  0.7127  0.1231
 6152TIP3    H242652   6.049   3.706   9.555 -0.7852  0.0366 -1.1110
 6153TIP3   OH242653   6.771   4.929   0.732  0.6737  0.1520 -0.5086
 6153TIP3    H142654   6.718   4.995   0.776  0.4593 -1.2998  1.5067
 6153TIP3    H242655   6.773   4.957   0.640 -3.0028  0.6390 -0.5595
 6154TIP3   OH242656   3.143   0.760   9.628  0.7312  0.1420 -0.1667
 6154TIP3    H142657   3.167   0.847   9.598 -0.7800  1.3066  1.7767
 6154TIP3    H242658   3.051   0.751   9.603  0.5770 -0.4561  0.5919
 6155TIP3   OH242659   3.862   5.651   1.053  0.5427  0.2794  0.1987
 6155TIP3    H142660   3.830   5.737   1.082  0.5543  0.0379  0.9692
 6155TIP3    H242661   3.782   5.600   1.039  0.5438  0.2590  0.2628
 6156TIP3   OH242662   5.625   4.427   9.889  0.1715  0.5888  0.2065
 6156TIP3    H142663   5.638   4.381   9.807  0.6328 -1.2167  1.2430
 6156TIP3    H242664   5.714   4.452   9.917  0.2209 -0.3500  0.9696
 6157TIP3   OH242665   5.681   6.497   9.101 -0.1671 -0.3871  0.2079
 6157TIP3    H142666   5.586   6.491   9.106 -0.1699  0.2972  1.7003
 6157TIP3    H242667   5.711   6.454   9.182  0.7281  0.4773  0.3476
 6158TIP3   OH242668   0.090   2.085   9.011 -0.2491 -0.2504  0.2285
 6158TIP3    H142669   0.049   2.136   8.941 -0.8100 -0.1814  0.6028
 6158TIP3    H242670   0.184   2.093   8.994 -0.1949  2.4961  1.3494
 6159TIP3   OH242671   4.522   1.498   0.616 -0.3301 -0.7065 -0.0012
 6159TIP3    H142672   4.491   1.408   0.624 -0.2023 -0.7372  0.1449
 6159TIP3    H242673   4.592   1.494   0.551  0.7264 -0.9790  1.1082
 6160TIP3   OH242674   0.079   4.697   9.084 -0.3476  0.4356  0.4940
 6160TIP3    H142675   0.004   4.655   9.125 -0.6708  0.2210 -0.2851
 6160TIP3    H242676   0.070   4.675   8.991  0.1568  1.2021  0.2558
 6161TIP3   OH242677   6.177   6.582   0.822 -0.1438  0.6350 -0.2519
 6161TIP3    H142678   6.164   6.666   0.778  0.0521  1.0680  0.5041
 6161TIP3    H242679   6.266   6.587   0.857 -0.5432  0.6040  0.8167
 6162TIP3   OH242680   6.221   5.464   1.737  0.0564 -0.3366 -0.3541
 6162TIP3    H142681   6.152   5.407   1.772 -2.3390  2.1127 -0.7269
 6162TIP3    H242682   6.283   5.473   1.809 -0.8916 -1.3117  0.6269
 6163TIP3   OH242683   1.220   3.893   8.146 -0.4506  0.2921  0.3462
 6163TIP3    H142684   1.190   3.899   8.236 -1.5407  0.8730 -0.0369
 6163TIP3    H242685   1.310   3.925   8.148  0.5232 -2.3005  1.6660
 6164TIP3   OH242686   4.911   2.866   9.133  0.0940  0.0078 -0.0319
 6164TIP3    H142687   4.940   2.807   9.202  0.0700 -0.9729 -0.8441
 6164TIP3    H242688   4.957   2.836   9.055  0.1599  1.1341 -0.4462
 6165TIP3   OH242689   3.706   0.630   8.324  0.2190  0.1882  0.3863
 6165TIP3    H142690   3.727   0.718   8.291 -1.2429  0.1391 -0.7980
 6165TIP3    H242691   3.657   0.646   8.404 -0.9009  0.5206 -0.3380
 6166TIP3   OH242692   6.503   3.619   8.084  0.1721  0.0408  0.4901
 6166TIP3    H142693   6.555   3.570   8.148  1.3941  0.3150 -0.2442
 6166TIP3    H242694   6.467   3.692   8.133  1.3768  0.4457  0.8160
 6167TIP3   OH242695   3.526   5.937   1.310  0.3174 -0.0659  0.4113
 6167TIP3    H142696   3.464   5.914   1.241  1.2961 -1.2049 -0.1231
 6167TIP3    H242697   3.471   5.965   1.384 -0.7453  1.3653 -0.8618
 6168TIP3   OH242698   0.409   2.466   9.874 -0.1403 -0.8515 -0.5579
 6168TIP3    H142699   0.382   2.550   9.836  0.3242 -1.3424 -2.0512
 6168TIP3    H242700   0.503   2.477   9.890 -0.7257  0.2847  3.1064
 6169TIP3   OH242701   5.011   3.488   1.814  0.2079  0.3034  0.0341
 6169TIP3    H142702   4.962   3.407   1.826  2.0254 -0.6968  1.2889
 6169TIP3    H242703   4.959   3.539   1.753 -1.4682 -1.4123 -0.0672
 6170TIP3   OH242704   4.804   0.944   0.977  0.2526  0.4485  0.5489
 6170TIP3    H142705   4.776   1.033   0.957 -0.6088  0.0401 -0.1275
 6170TIP3    H242706   4.893   0.938   0.944  0.0334  0.8268 -0.1196
 6171TIP3   OH242707   2.335   2.575   7.019 -0.1819 -0.0989 -0.5179
 6171TIP3    H142708   2.252   2.612   6.988 -1.2069  0.7354  2.8246
 6171TIP3    H242709   2.314   2.484   7.038 -0.0686 -0.1187 -0.4924
 6172TIP3   OH242710   0.601   5.094   9.618 -0.0089 -0.1361 -0.2954
 6172TIP3    H142711   0.587   5.108   9.525 -0.0350 -0.9411 -0.4184
 6172TIP3    H242712   0.537   5.027   9.642  1.0064 -1.0311 -0.0313
 6173TIP3   OH242713   0.520   2.247   2.490 -0.3102  0.1924 -0.7207
 6173TIP3    H142714   0.610   2.275   2.477 -1.1156  4.5063  0.9895
 6173TIP3    H242715   0.478   2.259   2.405  0.1178  1.2519 -0.7934
 6174TIP3   OH242716   3.641   6.503   9.711 -0.0317  0.0230  0.5939
 6174TIP3    H142717   3.565   6.482   9.657 -1.0890  1.0576  1.6139
 6174TIP3    H242718   3.670   6.419   9.746  0.6682 -0.6749 -1.4923
 6175TIP3   OH242719   6.142   3.460   8.875 -0.0096  0.0607 -0.5124
 6175TIP3    H142720   6.047   3.469   8.879 -0.2478 -2.0931 -0.1326
 6175TIP3    H242721   6.170   3.523   8.808 -2.0086 -1.2400 -2.7079
 6176TIP3   OH242722   1.816   0.878   1.166 -0.5129  0.2990  0.1209
 6176TIP3    H142723   1.730   0.844   1.141 -0.8205  0.4754  0.9014
 6176TIP3    H242724   1.876   0.841   1.101 -1.1784  0.2135 -0.4666
 6177TIP3   OH242725   1.596   5.619   9.247  0.4869  0.0566 -0.0999
 6177TIP3    H142726   1.530   5.599   9.180  0.1390  1.3140 -0.1596
 6177TIP3    H242727   1.631   5.533   9.272 -0.8692 -0.6086 -0.3697
 6178TIP3   OH242728   5.475   6.035   0.189  0.0647 -0.3956  0.1510
 6178TIP3    H142729   5.552   6.042   0.246 -0.8914  1.2109  1.3089
 6178TIP3    H242730   5.455   6.125   0.165 -0.3287 -0.9456 -1.7410
 6179TIP3   OH242731   4.795   7.498   0.244 -0.9551  0.3596 -0.1320
 6179TIP3    H142732   4.837   7.564   0.189 -1.7353  0.5952 -0.4636
 6179TIP3    H242733   4.754   7.438   0.182 -1.9177  0.6757  0.1775
 6180TIP3   OH242734   2.792   4.596   7.730  0.0080 -0.1374 -0.1048
 6180TIP3    H142735   2.718   4.636   7.684 -1.9008 -0.8446  2.1839
 6180TIP3    H242736   2.823   4.664   7.790  0.5115 -0.2130 -0.2735
 6181TIP3   OH242737   1.190   5.127   8.526 -0.7578 -0.2981  0.2258
 6181TIP3    H142738   1.143   5.182   8.589 -0.7073 -0.6989  0.6157
 6181TIP3    H242739   1.226   5.189   8.462  0.3029  0.2479  1.3085
 6182TIP3   OH242740   4.434   6.334   0.354  0.3153 -0.0577  0.5124
 6182TIP3    H142741   4.458   6.284   0.276  0.1867  0.6677 -0.0008
 6182TIP3    H242742   4.379   6.405   0.321 -0.0823  0.0192  1.3155
 6183TIP3   OH242743   0.835   0.340   1.278 -0.0158 -0.0626  0.1372
 6183TIP3    H142744   0.794   0.416   1.236 -0.1268  0.0834  0.5032
 6183TIP3    H242745   0.903   0.377   1.334 -1.9920  0.0717  2.6599
 6184TIP3   OH242746   7.114   4.238   9.496 -0.0179 -0.3722 -0.1156
 6184TIP3    H142747   7.124   4.194   9.580  1.6038  1.3077  0.6404
 6184TIP3    H242748   7.180   4.198   9.439  0.1137 -0.2718 -0.0331
 6185TIP3   OH242749   7.342   5.317   8.710  0.5672 -0.7966 -0.4399
 6185TIP3    H142750   7.357   5.367   8.790  2.2654 -1.9336  0.0050
 6185TIP3    H242751   7.331   5.227   8.740  0.9784 -1.1977 -1.4499
 6186TIP3   OH242752   4.470   3.427   2.088  0.1456 -0.5755  0.9235
 6186TIP3    H142753   4.485   3.379   2.006 -0.0163  1.2412 -0.2376
 6186TIP3    H242754   4.553   3.470   2.106 -0.3953  0.6281  0.5959
 6187TIP3   OH242755   5.393   7.099   1.037  0.2511  0.0966 -0.0743
 6187TIP3    H142756   5.401   7.032   0.969 -0.6612 -0.3029  0.1923
 6187TIP3    H242757   5.301   7.096   1.063  0.3133  1.0979  0.3138
 6188TIP3   OH242758   3.242   7.168   0.946 -0.1971  0.4008 -0.1307
 6188TIP3    H142759   3.162   7.116   0.935 -0.4678  0.9888 -1.1458
 6188TIP3    H242760   3.313   7.111   0.919 -0.3881  0.2150 -0.2399
 6189TIP3   OH242761   7.046   3.000   0.221 -0.0932  0.0586 -0.1077
 6189TIP3    H142762   6.985   2.945   0.271  0.8629 -0.6850  0.2677
 6189TIP3    H242763   7.048   3.083   0.270  0.0732 -0.3152  0.5320
 6190TIP3   OH242764   5.752   0.713   8.337  0.8745 -0.1616  0.3068
 6190TIP3    H142765   5.713   0.637   8.294  2.2812 -0.5227 -0.4061
 6190TIP3    H242766   5.834   0.728   8.289  2.5297 -0.5733  2.8028
 6191TIP3   OH242767   5.602   4.878   0.733 -0.3280  0.0052  0.3787
 6191TIP3    H142768   5.651   4.931   0.796  0.2927  0.7482 -0.6887
 6191TIP3    H242769   5.612   4.788   0.763  0.0389  0.3313  1.2708
 6192TIP3   OH242770   4.266   3.188   1.222  0.0602 -0.1914  0.0007
 6192TIP3    H142771   4.226   3.103   1.241 -0.1179 -0.0397  0.3234
 6192TIP3    H242772   4.328   3.202   1.294 -0.7580  0.4748  0.6092
 6193TIP3   OH242773   0.440   2.568   7.473 -0.1976 -0.7091  0.3210
 6193TIP3    H142774   0.479   2.540   7.391 -1.8035 -1.6381 -0.1673
 6193TIP3    H242775   0.347   2.580   7.453 -1.2984 -3.8678  2.5988
 6194TIP3   OH242776   6.309   1.994   8.887  0.2148 -0.1814 -1.0083
 6194TIP3    H142777   6.272   2.076   8.855  0.3795  1.2007  1.9765
 6194TIP3    H242778   6.263   1.977   8.969  2.2076 -1.4933 -0.0750
 6195TIP3   OH242779   3.081   5.288   0.978 -0.5227  0.1031  0.0172
 6195TIP3    H142780   3.011   5.316   0.920 -1.5759  0.0994  1.2538
 6195TIP3    H242781   3.037   5.244   1.050  0.8197 -0.7611  0.3484
 6196TIP3   OH242782   1.881   0.425   7.687  0.7394  0.4347  0.0571
 6196TIP3    H142783   1.818   0.451   7.619  0.7271 -1.4749 -0.7048
 6196TIP3    H242784   1.960   0.476   7.666  0.4312  0.5680 -0.8393
 6197TIP3   OH242785   1.473   0.563   3.115  0.2934  0.3787 -0.2014
 6197TIP3    H142786   1.431   0.619   3.181  1.8003  2.6054 -1.0256
 6197TIP3    H242787   1.550   0.528   3.159  0.5118  0.6806 -0.3465
 6198TIP3   OH242788   1.255   3.864   0.652  0.4311  0.4954 -0.8713
 6198TIP3    H142789   1.342   3.898   0.630 -0.1406  2.4108 -0.3902
 6198TIP3    H242790   1.195   3.921   0.604 -0.5878 -0.0914 -0.3107
 6199TIP3   OH242791   1.452   3.116   7.118  0.3375 -0.3043  0.0903
 6199TIP3    H142792   1.480   3.085   7.032 -0.0864  0.3749 -0.2999
 6199TIP3    H242793   1.401   3.044   7.155  0.8219 -0.7347 -0.0768
 6200TIP3   OH242794   1.435   6.298   1.813 -0.3890 -0.3547  0.0790
 6200TIP3    H142795   1.388   6.322   1.893 -0.2558  0.1699  0.0072
 6200TIP3    H242796   1.366   6.272   1.752 -0.4889 -0.7933  0.3717
 6201TIP3   OH242797   3.850   2.281   9.118  0.6084 -0.3740  0.1870
 6201TIP3    H142798   3.900   2.360   9.096  0.9430 -0.6611 -0.0972
 6201TIP3    H242799   3.790   2.309   9.187  0.6235  0.1635 -0.0132
 6202TIP3   OH242800   2.624   6.569   0.561 -0.3137  0.1775  0.0122
 6202TIP3    H142801   2.612   6.489   0.511 -0.9059  0.5058 -0.3810
 6202TIP3    H242802   2.535   6.596   0.584 -0.1630  1.0688 -0.4189
 6203TIP3   OH242803   1.357   3.459   1.408  0.2030 -0.5334 -0.5487
 6203TIP3    H142804   1.319   3.373   1.393  0.6179 -0.6262 -1.0628
 6203TIP3    H242805   1.299   3.520   1.362  1.7071 -0.8520 -3.0329
 6204TIP3   OH242806   1.324   1.106   8.738  0.5260 -0.1611  0.1097
 6204TIP3    H142807   1.336   1.200   8.723 -0.2100 -0.1554 -0.4864
 6204TIP3    H242808   1.262   1.101   8.810 -1.1475 -0.1546 -1.2593
 6205TIP3   OH242809   1.446   2.459   0.825  0.0631  0.1227 -0.2766
 6205TIP3    H142810   1.508   2.502   0.766  0.4647 -0.3191 -0.1851
 6205TIP3    H242811   1.420   2.527   0.887 -1.4275  0.9873 -1.7771
 6206TIP3   OH242812   5.393   3.760   1.430 -0.0399 -0.4707 -0.2219
 6206TIP3    H142813   5.349   3.827   1.481  1.0363  0.1137 -0.0319
 6206TIP3    H242814   5.353   3.764   1.343  1.0622  1.5196 -0.6949
 6207TIP3   OH242815   0.057   1.277   7.762 -0.1024  0.1241 -0.3784
 6207TIP3    H142816   0.001   1.339   7.809  1.0641  1.0401 -0.1365
 6207TIP3    H242817   0.001   1.243   7.692 -1.2928  0.1448  0.5382
 6208TIP3   OH242818   7.413   5.764   0.087 -0.1319 -0.2350 -0.3837
 6208TIP3    H142819   7.362   5.839   0.056 -3.2259 -2.2097 -0.4975
 6208TIP3    H242820   7.430   5.712   0.009 -0.5753 -1.0526  0.0470
 6209TIP3   OH242821   5.037   4.312   7.949 -0.1605  0.4079 -0.6055
 6209TIP3    H142822   5.107   4.360   7.993  0.2312  1.7334 -2.5934
 6209TIP3    H242823   5.081   4.254   7.888 -0.7549  1.1008 -1.7287
 6210TIP3   OH242824   3.074   2.458   7.177 -0.4148  0.5745 -0.2529
 6210TIP3    H142825   2.980   2.474   7.186 -0.6545 -1.4408  1.3412
 6210TIP3    H242826   3.080   2.375   7.129  0.5756  0.8213 -0.5864
 6211TIP3   OH242827   6.849   3.578   9.254  0.0996  0.3606 -0.2145
 6211TIP3    H142828   6.911   3.524   9.303 -0.5143  1.1083  1.4400
 6211TIP3    H242829   6.766   3.567   9.300 -0.6525  0.6293 -1.4536
 6212TIP3   OH242830   0.097   1.263   8.072 -0.0032 -0.4378 -0.2136
 6212TIP3    H142831   0.127   1.347   8.106  1.6828 -1.9078  2.3182
 6212TIP3    H242832   0.002   1.270   8.069  0.0900  1.4353  0.2196
 6213TIP3   OH242833   6.039   4.033   8.907 -0.0117  0.0869 -0.3916
 6213TIP3    H142834   6.116   4.052   8.854 -0.9448  1.6598 -1.2440
 6213TIP3    H242835   6.043   3.939   8.922  1.8767  0.0841 -0.7042
 6214TIP3   OH242836   2.900   7.363   8.707 -0.2014 -0.0787  0.2739
 6214TIP3    H142837   2.867   7.278   8.680  0.9163 -0.2523 -0.6694
 6214TIP3    H242838   2.980   7.375   8.655 -0.5123  1.6891  0.1240
 6215TIP3   OH242839   4.574   4.400   8.025  0.1255  0.5864 -0.2285
 6215TIP3    H142840   4.553   4.311   8.056 -0.0800  0.8814  0.5032
 6215TIP3    H242841   4.554   4.456   8.100 -0.8027  1.3774 -1.0343
 6216TIP3   OH242842   4.862   2.490   9.125  0.0575 -0.3140  0.5427
 6216TIP3    H142843   4.910   2.415   9.159  0.5886  0.9002  2.6758
 6216TIP3    H242844   4.846   2.545   9.202 -0.1923  1.8275 -0.9473
 6217TIP3   OH242845   2.829   1.028   0.354 -0.4406  0.0940 -0.3707
 6217TIP3    H142846   2.837   1.065   0.266 -1.2348  1.4710  0.0972
 6217TIP3    H242847   2.896   1.074   0.405  0.2633 -0.9613 -0.3258
 6218TIP3   OH242848   7.553   7.607   7.976 -0.4559 -0.8471 -0.0915
 6218TIP3    H142849   7.533   7.606   7.882 -2.0253 -2.7882  0.1924
 6218TIP3    H242850   7.630   7.552   7.985 -0.5135 -0.9442 -0.1963
 6219TIP3   OH242851   0.948   1.376   7.972  0.0573  0.5515  0.1704
 6219TIP3    H142852   0.870   1.323   7.991 -0.3018  0.7022 -0.8176
 6219TIP3    H242853   0.949   1.442   8.041 -2.4563  2.4445 -1.3859
 6220TIP3   OH242854   6.737   7.434   0.916  0.3340  0.2710 -0.1632
 6220TIP3    H142855   6.784   7.495   0.860  1.0167 -1.5714 -1.6888
 6220TIP3    H242856   6.649   7.472   0.925  1.0769  2.0571 -0.0291
 6221TIP3   OH242857   1.966   4.103   9.099  0.2900  0.6160 -0.0831
 6221TIP3    H142858   1.965   4.007   9.091 -2.0639  0.6099 -0.2953
 6221TIP3    H242859   2.057   4.127   9.080  1.3618 -1.6736  1.5698
 6222TIP3   OH242860   3.554   4.096   9.741  0.6889  0.0881  0.1609
 6222TIP3    H142861   3.625   4.088   9.677 -0.6718  0.3095 -1.4519
 6222TIP3    H242862   3.586   4.159   9.805  1.1202  1.9533 -1.7712
 6223TIP3   OH242863   4.014   0.418   2.274 -0.1214  0.0997  0.4312
 6223TIP3    H142864   3.943   0.414   2.209 -0.0719  1.1628  0.2900
 6223TIP3    H242865   4.024   0.511   2.291  0.0028 -0.1601  1.8336
 6224TIP3   OH242866   5.176   1.565   0.006  0.0444 -0.1714 -0.0607
 6224TIP3    H142867   5.146   1.618   0.079  0.0633 -0.2567  0.0088
 6224TIP3    H242868   5.097   1.541  -0.042 -0.2241 -2.1655  1.2938
 6225TIP3   OH242869   5.409   6.293   9.882 -0.0073  0.1779 -0.1841
 6225TIP3    H142870   5.373   6.309   9.795 -2.5308  1.9538  1.0224
 6225TIP3    H242871   5.341   6.242   9.927  1.7314 -1.6876  0.4554
 6226TIP3   OH242872   1.288   1.288   3.054  0.1835 -0.0628 -0.1244
 6226TIP3    H142873   1.255   1.243   2.976 -0.1853 -0.7830  0.4325
 6226TIP3    H242874   1.344   1.223   3.097  0.9984  0.5864 -0.1798
 6227TIP3   OH242875   4.131   6.243   9.281 -0.3317  0.2645  0.0374
 6227TIP3    H142876   4.197   6.247   9.212 -0.2416  2.6234  0.1748
 6227TIP3    H242877   4.053   6.208   9.238  0.1095  0.4115 -0.9060
 6228TIP3   OH242878   2.065   0.778   1.440  0.2348 -0.0738 -0.6322
 6228TIP3    H142879   2.081   0.839   1.368  0.6335  1.0359  0.3696
 6228TIP3    H242880   2.146   0.777   1.490 -0.3149 -0.1412  0.2919
 6229TIP3   OH242881   4.162   1.289   1.942 -0.3805 -0.3154  0.0012
 6229TIP3    H142882   4.243   1.269   1.989  0.5645  2.1819 -0.4329
 6229TIP3    H242883   4.188   1.294   1.850 -0.9680  0.7389 -0.1213
 6230TIP3   OH242884   2.841   1.912   8.070  0.6826 -0.3725  0.2829
 6230TIP3    H142885   2.748   1.900   8.088  1.3054 -0.9249  3.9252
 6230TIP3    H242886   2.873   1.824   8.050  0.4973 -0.1927 -0.8997
 6231TIP3   OH242887   3.990   7.119   9.849 -0.1393  0.0483 -0.4723
 6231TIP3    H142888   4.000   7.194   9.791  0.1008  0.8347  0.5475
 6231TIP3    H242889   4.078   7.082   9.855 -0.2612 -0.3377 -0.9887
 6232TIP3   OH242890   2.693   3.922   7.913  0.0357 -0.6256 -0.7792
 6232TIP3    H142891   2.662   3.974   7.987 -0.2543  0.4111 -1.6036
 6232TIP3    H242892   2.642   3.953   7.838  1.8763 -0.0432 -1.8583
 6233TIP3   OH242893   2.517   2.545   0.692  0.3765 -0.0839 -0.4586
 6233TIP3    H142894   2.573   2.530   0.616  2.5770  1.1862  0.8110
 6233TIP3    H242895   2.524   2.639   0.708 -1.0420 -0.1357  0.6048
 6234TIP3   OH242896   3.135   5.279   6.690 -0.0309  0.2117  0.0650
 6234TIP3    H142897   3.217   5.276   6.640 -0.8038 -1.3787 -1.2427
 6234TIP3    H242898   3.068   5.256   6.625 -1.3661  0.4075  1.3455
 6235TIP3   OH242899   0.521   0.225   2.414  0.6460  0.5198  0.7650
 6235TIP3    H142900   0.430   0.213   2.442  0.3928  1.0742  0.2044
 6235TIP3    H242901   0.552   0.136   2.396 -0.7622  0.4585 -1.9813
 6236TIP3   OH242902   7.672   4.158   7.455 -0.0633 -0.2435 -0.5591
 6236TIP3    H142903   7.738   4.217   7.417 -0.6489  0.7369 -0.0912
 6236TIP3    H242904   7.695   4.154   7.548 -1.5529  1.4037 -0.0510
 6237TIP3   OH242905   5.142   4.111   9.257  0.0737 -0.1889 -0.5430
 6237TIP3    H142906   5.215   4.152   9.210 -1.5926  1.2910 -2.0029
 6237TIP3    H242907   5.089   4.185   9.288 -0.4276 -1.2025  1.1645
 6238TIP3   OH242908   2.943   6.014   7.923  0.0940  0.0818 -0.1873
 6238TIP3    H142909   2.972   5.973   7.842  0.1243  1.7309 -1.0469
 6238TIP3    H242910   2.905   6.098   7.896 -2.1248 -0.3575  1.2601
 6239TIP3   OH242911   1.187   0.934   0.654  0.0331 -0.4736 -0.0950
 6239TIP3    H142912   1.179   0.886   0.736  0.4035 -1.6350 -0.7154
 6239TIP3    H242913   1.098   0.932   0.617 -0.4961  1.4063  0.9821
 6240TIP3   OH242914   4.297   5.415   0.484 -0.3755 -0.2859 -0.0396
 6240TIP3    H142915   4.378   5.446   0.523 -0.1724 -0.1924 -0.5359
 6240TIP3    H242916   4.242   5.493   0.478 -0.5043 -0.3486  0.2932
 6241TIP3   OH242917   7.566   3.412   9.041  0.0101 -0.0746 -0.3120
 6241TIP3    H142918   7.589   3.357   9.116 -0.3345 -0.9823 -0.8568
 6241TIP3    H242919   7.546   3.498   9.079 -0.6064 -0.6462  0.6914
 6242TIP3   OH242920   0.720   1.769   0.280 -0.5454 -0.3463 -0.0654
 6242TIP3    H142921   0.654   1.764   0.350 -0.5706  0.0422 -0.0624
 6242TIP3    H242922   0.723   1.680   0.245 -1.5903 -0.2150 -0.5294
 6243TIP3   OH242923   2.051   1.599   1.483 -0.0030 -0.0889  0.2004
 6243TIP3    H142924   2.088   1.670   1.431  2.1560 -0.1117  1.5698
 6243TIP3    H242925   2.081   1.519   1.441  0.2486 -0.1299  0.4516
 6244TIP3   OH242926   3.432   1.541   1.005  0.4346 -0.7825  0.6372
 6244TIP3    H142927   3.518   1.547   1.047  1.0668 -1.7275 -0.4696
 6244TIP3    H242928   3.412   1.631   0.979  0.3190 -0.2773  2.3405
 6245TIP3   OH242929   5.067   5.141   0.103  0.6762 -0.1804  0.2651
 6245TIP3    H142930   5.159   5.117   0.117  1.0846  2.0184  1.7066
 6245TIP3    H242931   5.020   5.097   0.174  0.6383 -0.9237 -0.2010
 6246TIP3   OH242932   3.960   3.904   8.704 -0.3856  0.2857 -0.3113
 6246TIP3    H142933   3.888   3.842   8.703 -0.8486  0.8118 -0.1918
 6246TIP3    H242934   3.998   3.895   8.791 -0.1345 -0.1841 -0.4679
 6247TIP3   OH242935   1.421   1.064   3.172  0.5140 -0.6032  0.3555
 6247TIP3    H142936   1.501   1.099   3.211  1.2098 -1.5445 -0.1874
 6247TIP3    H242937   1.362   1.049   3.246  1.0399 -0.4014  0.8151
 6248TIP3   OH242938   3.890   7.159   7.857 -0.2068 -0.3929  0.0119
 6248TIP3    H142939   3.920   7.242   7.893  0.9882 -0.6824 -0.2624
 6248TIP3    H242940   3.795   7.166   7.857 -0.1243  1.2592 -0.6603
 6249TIP3   OH242941   4.637   3.601   9.654  0.4798 -0.1327  0.6732
 6249TIP3    H142942   4.658   3.692   9.634  3.6580 -0.8334  0.2898
 6249TIP3    H242943   4.681   3.550   9.586 -0.7134 -2.0059  1.2135
 6250TIP3   OH242944   0.338   1.791   0.241  0.2589  0.5868 -0.2627
 6250TIP3    H142945   0.243   1.787   0.250  0.5004 -0.3192  3.8297
 6250TIP3    H242946   0.366   1.700   0.235  0.9443  0.7667  0.0251
 6251TIP3   OH242947   7.474   2.985   1.928  0.4931 -0.6762 -0.3001
 6251TIP3    H142948   7.493   2.949   2.015  3.0082  2.8161  0.8336
 6251TIP3    H242949   7.561   3.000   1.889 -0.3921  1.9557 -1.4991
 6252TIP3   OH242950   2.044   7.500   1.123  0.5132  0.0453 -0.6876
 6252TIP3    H142951   2.111   7.456   1.070  1.3063 -0.0992  0.4022
 6252TIP3    H242952   1.979   7.431   1.141  1.9913 -0.8944  1.4135
 6253TIP3   OH242953   0.605   2.894   0.118 -0.0966  0.0730 -0.6380
 6253TIP3    H142954   0.666   2.843   0.171  1.0631 -0.3045 -2.2584
 6253TIP3    H242955   0.519   2.868   0.149  0.4972 -1.7491 -0.3753
 6254TIP3   OH242956   6.133   6.478   7.640 -0.4044 -0.0220  0.2776
 6254TIP3    H142957   6.060   6.529   7.675 -1.0418 -1.4614  1.1327
 6254TIP3    H242958   6.160   6.526   7.562 -0.0695  2.3377  1.7764
 6255TIP3   OH242959   5.228   7.202   9.110  0.0442 -0.0402 -0.2101
 6255TIP3    H142960   5.202   7.193   9.201  0.3995 -1.3249 -0.2175
 6255TIP3    H242961   5.323   7.215   9.113 -0.1900  1.9399 -0.3144
 6256TIP3   OH242962   3.916   3.394   1.580 -0.1136 -0.2261 -0.2271
 6256TIP3    H142963   3.902   3.307   1.543 -0.5494  0.0373 -0.6912
 6256TIP3    H242964   4.001   3.420   1.544 -0.7952  0.2658 -1.5457
 6257TIP3   OH242965   3.302   3.662   0.533  0.4102  0.6178 -0.1783
 6257TIP3    H142966   3.295   3.658   0.437  1.5928  1.1242 -0.2992
 6257TIP3    H242967   3.391   3.634   0.552 -0.2730 -0.9535  0.9048
 6258TIP3   OH242968   5.061   2.327   9.704  0.2022  0.3952  0.1128
 6258TIP3    H142969   5.124   2.343   9.634  1.8161 -2.0791  0.8832
 6258TIP3    H242970   4.993   2.273   9.664  0.1615  0.5178  0.0168
 6259TIP3   OH242971   6.793   2.953   9.348  0.0783 -0.5180 -0.6781
 6259TIP3    H142972   6.790   2.890   9.276 -0.5118 -0.5959 -0.5865
 6259TIP3    H242973   6.705   2.990   9.351  0.3415  0.1108 -0.5533
 6260TIP3   OH242974   0.816   2.108   9.398 -0.0074  0.5130  0.7678
 6260TIP3    H142975   0.735   2.057   9.393  0.6724 -0.4925 -0.8872
 6260TIP3    H242976   0.883   2.049   9.364  1.0566  2.0671  0.0593
 6261TIP3   OH242977   4.577   6.519   6.974 -0.1920  0.2606 -0.2100
 6261TIP3    H142978   4.548   6.610   6.975  1.3345  0.7955 -0.8155
 6261TIP3    H242979   4.550   6.484   7.059 -0.9640  1.2217 -0.0441
 6262TIP3   OH242980   4.522   0.365   8.047 -0.0581 -0.2842  0.1598
 6262TIP3    H142981   4.517   0.460   8.054 -0.0659 -0.3640  1.4135
 6262TIP3    H242982   4.555   0.336   8.132  0.4681 -1.3685 -0.3968
 6263TIP3   OH242983   2.575   6.498   1.622 -0.4849  0.0747 -0.7328
 6263TIP3    H142984   2.612   6.418   1.659 -2.7504  0.0820  1.9280
 6263TIP3    H242985   2.574   6.483   1.528  1.0661 -2.1333 -0.4706
 6264TIP3   OH242986   0.656   1.084   9.525 -0.6421  0.4969  0.4398
 6264TIP3    H142987   0.623   1.174   9.530  0.4855  0.9006  0.8901
 6264TIP3    H242988   0.750   1.094   9.513 -0.5406 -0.6308  0.2498
 6265TIP3   OH242989   5.992   1.723   8.870 -0.2035 -0.4271  0.1297
 6265TIP3    H142990   5.948   1.777   8.936 -0.0283  0.3036 -0.3495
 6265TIP3    H242991   6.014   1.642   8.917  1.0565  0.5603  1.3551
 6266TIP3   OH242992   4.570   5.759   0.671  0.2185 -0.3739 -0.2033
 6266TIP3    H142993   4.612   5.786   0.753  0.2153 -4.4676  1.3797
 6266TIP3    H242994   4.641   5.753   0.608  0.7658 -0.2311  0.3923
 6267TIP3   OH242995   1.029   4.937   2.222  0.1146 -0.1067  0.0236
 6267TIP3    H142996   0.937   4.962   2.211  0.0246  0.5002  1.8301
 6267TIP3    H242997   1.026   4.857   2.274  0.6123  0.3176  0.7170
 6268TIP3   OH242998   1.905   4.592   8.035 -0.7023  0.3297  0.1747
 6268TIP3    H142999   1.923   4.592   7.941  2.1602 -1.2388  0.5875
 6268TIP3    H243000   1.957   4.665   8.069 -0.7981  0.1745  0.6551
 6269TIP3   OH243001   4.948   2.843   1.862 -0.0112 -0.5340 -0.0518
 6269TIP3    H143002   5.021   2.805   1.813  0.2708  0.6593 -0.5922
 6269TIP3    H243003   4.951   2.800   1.947  0.4313 -1.5398 -0.5672
 6270TIP3   OH243004   2.219   4.435   8.360  0.0277 -0.3455  0.0902
 6270TIP3    H143005   2.314   4.445   8.371 -0.2515  3.3907  0.7108
 6270TIP3    H243006   2.191   4.383   8.435  1.3342  1.0736  1.6469
 6271TIP3   OH243007   4.061   6.768   8.873 -0.0575  0.2029  0.0349
 6271TIP3    H143008   4.081   6.777   8.779 -0.6176  2.8278  0.0857
 6271TIP3    H243009   4.147   6.764   8.915  0.2181  0.4954 -0.4853
 6272TIP3   OH243010   2.144   3.526   7.941  0.4487  0.4074  0.2887
 6272TIP3    H143011   2.179   3.455   7.994 -0.1565 -1.6160 -1.8725
 6272TIP3    H243012   2.180   3.511   7.854  2.8331  4.6144  0.2692
 6273TIP3   OH243013   1.610   6.603   0.195 -0.2260  0.0836  0.0524
 6273TIP3    H143014   1.653   6.610   0.280 -0.0181  0.7045 -0.0949
 6273TIP3    H243015   1.569   6.688   0.182 -0.6091 -0.1485 -0.2818
 6274TIP3   OH243016   6.488   5.618   8.419 -0.4813 -0.1943  0.0767
 6274TIP3    H143017   6.523   5.571   8.343 -0.0884  0.6750 -0.2828
 6274TIP3    H243018   6.451   5.698   8.384 -2.0793 -0.6708  0.5606
 6275TIP3   OH243019   6.970   5.155   9.031  0.1603  0.0752  0.2455
 6275TIP3    H143020   6.919   5.141   9.111  1.1466 -0.8835  0.7318
 6275TIP3    H243021   7.036   5.219   9.056  0.8980 -0.7313  0.4176
 6276TIP3   OH243022   4.628   2.894   9.278  0.4940 -0.5173  0.3641
 6276TIP3    H143023   4.599   2.946   9.353  1.0036 -0.0307  0.2345
 6276TIP3    H243024   4.718   2.923   9.262  0.4365 -0.7122 -0.3496
 6277TIP3   OH243025   5.483   3.903   9.856  0.5489 -0.4769 -0.0816
 6277TIP3    H143026   5.488   3.908   9.952  0.5774  0.3267 -0.1155
 6277TIP3    H243027   5.543   3.971   9.826  0.9320 -1.0766 -0.6822
 6278TIP3   OH243028   7.120   2.496   0.163  0.1186  0.0597 -0.1189
 6278TIP3    H143029   7.088   2.475   0.251  0.4591  0.2987  0.0659
 6278TIP3    H243030   7.139   2.411   0.124  0.6145 -0.0189  0.2886
 6279TIP3   OH243031   1.237   5.546   1.585  0.2460 -0.2823  0.0439
 6279TIP3    H143032   1.327   5.560   1.613  0.0412 -2.4737  2.1546
 6279TIP3    H243033   1.238   5.463   1.538 -0.5232  0.2330 -0.9282
 6280TIP3   OH243034   3.842   3.510   8.452  0.7191 -0.1434 -0.3538
 6280TIP3    H143035   3.752   3.499   8.483 -0.0671  0.5895 -2.2248
 6280TIP3    H243036   3.895   3.461   8.515 -1.2353 -3.1358 -0.8201
 6281TIP3   OH243037   7.042   0.150   8.225 -0.4782 -0.1505 -0.1281
 6281TIP3    H143038   7.059   0.137   8.132  1.0134  1.4269 -0.1337
 6281TIP3    H243039   7.034   0.245   8.235 -2.1820 -0.3781  1.1373
 6282TIP3   OH243040   0.627   1.986   8.259 -0.1481  0.2877 -0.7798
 6282TIP3    H143041   0.532   1.995   8.262 -0.3440 -1.5744 -0.1694
 6282TIP3    H243042   0.660   2.074   8.278 -1.7361  1.0160 -1.2328
 6283TIP3   OH243043   4.639   0.916   8.410 -0.4539  0.1106  0.1393
 6283TIP3    H143044   4.607   0.968   8.336  0.7890  0.1694 -0.3771
 6283TIP3    H243045   4.733   0.934   8.413 -0.7654  2.0423  3.2514
 6284TIP3   OH243046   3.336   6.391   1.660 -0.1221 -0.7197  0.6224
 6284TIP3    H143047   3.365   6.477   1.691 -0.6609 -0.7089  1.1211
 6284TIP3    H243048   3.261   6.410   1.603 -0.1998 -0.8583  0.6780
 6285TIP3   OH243049   2.502   2.837   7.363  0.2288  0.5945 -0.2171
 6285TIP3    H143050   2.568   2.865   7.426  0.5748  1.0309 -0.7657
 6285TIP3    H243051   2.477   2.917   7.316  0.7778  0.1226 -1.3722
 6286TIP3   OH243052   7.284   5.129   9.597  0.1768 -0.7504 -0.5487
 6286TIP3    H143053   7.359   5.076   9.622  1.3209  0.4400 -1.3360
 6286TIP3    H243054   7.318   5.190   9.531 -1.1267  0.7880  0.1316
 6287TIP3   OH243055   3.388   0.166   0.684  0.0883 -0.1070 -0.1367
 6287TIP3    H143056   3.459   0.147   0.745 -1.0258  1.1236  1.6389
 6287TIP3    H243057   3.308   0.159   0.736 -0.8935  1.2613 -1.3598
 6288TIP3   OH243058   0.635   2.586   9.941 -0.4059  0.2134  0.2960
 6288TIP3    H143059   0.705   2.561   9.881  0.4497  0.0002  1.3450
 6288TIP3    H243060   0.680   2.631  10.013 -1.6871  3.1163 -0.5685
 6289TIP3   OH243061   6.113   6.280   2.131  0.8464  0.2556 -0.1373
 6289TIP3    H143062   6.097   6.312   2.042  1.4159  0.9706  0.0029
 6289TIP3    H243063   6.059   6.202   2.139 -1.0200  1.4633 -0.3322
 6290TIP3   OH243064   2.766   6.059   7.609 -0.5526  0.4300 -0.2631
 6290TIP3    H143065   2.789   6.129   7.671 -0.7726  0.7083 -0.4901
 6290TIP3    H243066   2.744   5.984   7.665  0.9706  0.1134 -0.0411
 6291TIP3   OH243067   6.847   7.643   1.933 -0.3292  0.3062 -0.1277
 6291TIP3    H143068   6.900   7.607   2.004 -1.9055  0.8017  1.3617
 6291TIP3    H243069   6.894   7.722   1.906  0.6716 -0.2892 -0.1605
 6292TIP3   OH243070   4.961   1.897   8.835 -0.1980 -0.4007 -0.8804
 6292TIP3    H143071   4.935   1.988   8.848  0.9138  0.1962 -2.5571
 6292TIP3    H243072   4.970   1.887   8.740  0.9358 -1.8933 -0.6568
 6293TIP3   OH243073   6.682   6.482   8.086  0.1403  0.3208  0.3830
 6293TIP3    H143074   6.762   6.512   8.042  0.2539 -1.1353 -0.4990
 6293TIP3    H243075   6.694   6.506   8.177  1.2555  0.7823  0.1333
 6294TIP3   OH243076   5.248   2.446   2.248 -0.4328  0.6494 -0.1774
 6294TIP3    H143077   5.162   2.487   2.260 -1.3881 -1.0793 -0.7791
 6294TIP3    H243078   5.301   2.481   2.320 -1.6956  1.5751  0.3484
 6295TIP3   OH243079   4.816   0.491   0.759  0.2798  0.0090 -0.3493
 6295TIP3    H143080   4.908   0.513   0.749  0.5012  0.1692  1.6532
 6295TIP3    H243081   4.803   0.414   0.703  1.8201 -0.4923 -0.0535
 6296TIP3   OH243082   6.924   0.486   0.314 -0.0433 -0.1542 -0.3873
 6296TIP3    H143083   6.953   0.423   0.381 -0.2021 -0.5790 -0.7106
 6296TIP3    H243084   6.889   0.560   0.364 -0.5739 -0.6565  0.0116
 6297TIP3   OH243085   1.298   5.010   7.780 -0.1317  0.0262  0.5349
 6297TIP3    H143086   1.388   4.979   7.796  0.2805  0.6318 -0.4681
 6297TIP3    H243087   1.303   5.050   7.693 -1.4524 -0.1831  0.3536
 6298TIP3   OH243088   5.459   2.233   0.420  0.2210 -0.3548 -0.2131
 6298TIP3    H143089   5.431   2.309   0.369  1.1577 -0.0923 -0.3484
 6298TIP3    H243090   5.516   2.270   0.488 -1.1762 -0.6694  1.1874
 6299TIP3   OH243091   7.611   0.373   0.278 -0.3304  0.2396 -0.0256
 6299TIP3    H143092   7.687   0.332   0.236  0.7621  1.4633  0.6863
 6299TIP3    H243093   7.592   0.317   0.353  1.1607  1.0026  0.9544
 6300TIP3   OH243094   3.555   5.939   2.125 -0.1371  0.1582  0.2247
 6300TIP3    H143095   3.584   5.936   2.034 -0.4574  0.4807  0.1086
 6300TIP3    H243096   3.460   5.930   2.121 -0.0346 -1.4470  0.6434
 6301TIP3   OH243097   2.973   2.843   8.055  0.0962  0.1815  0.0839
 6301TIP3    H143098   3.028   2.778   8.098 -0.5946  0.2862  1.1558
 6301TIP3    H243099   3.027   2.876   7.983  0.6283 -1.2307 -0.1964
 6302TIP3   OH243100   3.265   5.067   8.451 -0.3272  0.1080 -0.2339
 6302TIP3    H143101   3.261   5.137   8.516  0.8864 -0.1354  0.1324
 6302TIP3    H243102   3.177   5.064   8.413 -0.7730  0.9196  0.6926
 6303TIP3   OH243103   6.276   5.808   0.127  0.3204  0.2288  0.8945
 6303TIP3    H143104   6.281   5.714   0.140  0.6270  0.3565  1.7928
 6303TIP3    H243105   6.183   5.827   0.119  0.1939 -0.0455  1.6185
 6304TIP3   OH243106   1.843   4.575   2.068  0.7690  0.0287 -0.1071
 6304TIP3    H143107   1.772   4.568   2.132  1.0906  0.2954  0.2875
 6304TIP3    H243108   1.815   4.644   2.008 -0.6251 -1.8003 -1.7007
 6305TIP3   OH243109   7.219   4.887   0.117 -0.3103  0.4736  0.1210
 6305TIP3    H143110   7.129   4.914   0.100 -0.8849 -1.2362  0.2313
 6305TIP3    H243111   7.252   4.859   0.031 -1.0946 -2.1573  0.5762
 6306TIP3   OH243112   1.833   2.371   9.596  0.1462  0.3382  0.0916
 6306TIP3    H143113   1.852   2.334   9.682  1.7043 -0.1298 -0.4225
 6306TIP3    H243114   1.905   2.341   9.540  0.2831  2.2931 -0.8872
 6307TIP3   OH243115   6.444   1.835   0.572 -0.0420  0.3333 -0.1378
 6307TIP3    H143116   6.381   1.855   0.642 -0.0010  2.2189 -0.6029
 6307TIP3    H243117   6.529   1.861   0.607 -0.0210  1.3093 -0.8826
 6308TIP3   OH243118   7.626   6.211   8.841 -0.4425  0.0078 -0.1274
 6308TIP3    H143119   7.569   6.139   8.813 -0.7388 -0.0185  0.5154
 6308TIP3    H243120   7.682   6.171   8.907  1.0607 -0.2309 -1.4984
 6309TIP3   OH243121   1.193   7.583   0.553 -0.0744 -0.1949  0.2965
 6309TIP3    H143122   1.282   7.619   0.548  0.4713 -1.2290  1.8031
 6309TIP3    H243123   1.136   7.660   0.544  1.0356  1.0385  2.7591
 6310TIP3   OH243124   1.789   3.858   0.464 -0.3157 -0.3205  0.3655
 6310TIP3    H143125   1.821   3.947   0.481 -1.1638  0.2926 -1.0120
 6310TIP3    H243126   1.868   3.806   0.449  0.1837  0.9728 -2.1422
 6311TIP3   OH243127   5.914   1.758   9.151  0.1730  0.4565 -0.2166
 6311TIP3    H143128   5.865   1.678   9.133  0.8856 -1.1038  3.7094
 6311TIP3    H243129   5.853   1.829   9.132 -1.6708 -1.1820 -0.6439
 6312TIP3   OH243130   5.465   3.161   8.073 -0.9954 -0.3347  0.0131
 6312TIP3    H143131   5.500   3.083   8.117 -1.7127 -0.0923  1.0395
 6312TIP3    H243132   5.451   3.224   8.143 -1.2626  0.4155 -0.6960
 6313TIP3   OH243133   7.321   1.933   7.636 -0.2852  0.1521 -0.4114
 6313TIP3    H143134   7.234   1.939   7.675  0.3889 -0.7742  1.3656
 6313TIP3    H243135   7.315   1.983   7.555 -2.4492  0.1366 -0.3141
 6314TIP3   OH243136   3.660   4.143   0.002  0.2875 -0.0861 -0.0111
 6314TIP3    H143137   3.692   4.229   0.030 -0.2958 -0.6010  2.5289
 6314TIP3    H243138   3.735   4.085   0.010  0.2318 -0.1477  0.0763
 6315TIP3   OH243139   7.375   0.314   0.674  0.0322 -0.2748 -0.1694
 6315TIP3    H143140   7.423   0.276   0.600 -0.4075 -1.6634  0.2278
 6315TIP3    H243141   7.328   0.388   0.636  4.1877  2.7189 -0.1489
 6316TIP3   OH243142   4.547   7.088   9.052  0.2229 -0.4691  0.2399
 6316TIP3    H143143   4.482   7.157   9.042  0.7932 -0.2170 -2.5158
 6316TIP3    H243144   4.507   7.025   9.112 -1.0733  1.3121  1.3521
 6317TIP3   OH243145   3.222   0.199   6.808  0.0178 -0.1285 -0.0275
 6317TIP3    H143146   3.272   0.226   6.730 -0.4438 -0.6319 -0.5105
 6317TIP3    H243147   3.258   0.113   6.830 -0.7285 -0.5743 -0.4834
 6318TIP3   OH243148   3.624   6.689   9.323 -0.3324 -0.3921 -0.3464
 6318TIP3    H143149   3.663   6.711   9.407  1.2386  0.3092 -1.2122
 6318TIP3    H243150   3.698   6.687   9.262 -1.2775 -1.9680 -1.5137
 6319TIP3   OH243151   4.912   3.493   9.884  0.1983  0.0110  0.2251
 6319TIP3    H143152   4.861   3.413   9.900  1.0542 -0.4231  0.8149
 6319TIP3    H243153   5.001   3.471   9.912  0.7610  0.7113 -0.9502
 6320TIP3   OH243154   6.596   0.255   7.953  0.2053 -0.1798  0.2451
 6320TIP3    H143155   6.655   0.181   7.938  1.5796  0.7030  1.0551
 6320TIP3    H243156   6.628   0.323   7.894  0.9071  0.7758  1.6855
 6321TIP3   OH243157   3.451   1.589   9.411  0.1878 -0.3144  0.3415
 6321TIP3    H143158   3.407   1.655   9.358 -0.5034 -1.7673 -0.9798
 6321TIP3    H243159   3.532   1.631   9.439 -0.9334  1.6143  0.8821
 6322TIP3   OH243160   5.821   6.402   8.414 -0.3819  0.2388 -0.2748
 6322TIP3    H143161   5.816   6.307   8.405  0.4214  0.1130  0.4476
 6322TIP3    H243162   5.872   6.431   8.338 -0.9787  0.1472 -0.7188
 6323TIP3   OH243163   7.435   4.768   9.396  0.5802  0.1140 -0.2927
 6323TIP3    H143164   7.520   4.811   9.404  0.0473  1.2936 -0.7689
 6323TIP3    H243165   7.446   4.707   9.323  0.9224  0.5153 -0.5803
 6324TIP3   OH243166   2.723   1.639   9.972  0.5312  0.0245  0.1540
 6324TIP3    H143167   2.692   1.722   9.936 -0.4489 -0.7225 -0.7855
 6324TIP3    H243168   2.720   1.651  10.067  1.7983  1.5418  0.0454
 6325TIP3   OH243169   3.761   0.517   7.091 -0.0687 -0.0410  0.2413
 6325TIP3    H143170   3.674   0.516   7.050 -0.9436 -1.0398  2.0054
 6325TIP3    H243171   3.770   0.606   7.125  0.1091  0.4077 -0.9534
 6326TIP3   OH243172   3.695   1.123   9.341  0.3828 -0.0724 -0.0726
 6326TIP3    H143173   3.784   1.145   9.311 -0.3891  1.0201 -1.7436
 6326TIP3    H243174   3.640   1.191   9.302 -1.4966 -2.0551 -1.0500
 6327TIP3   OH243175   3.369   7.665   8.060 -0.4814  0.1994 -0.1580
 6327TIP3    H143176   3.336   7.579   8.086 -0.7662 -0.3662 -2.2080
 6327TIP3    H243177   3.429   7.689   8.130  0.4274 -2.1696 -0.0049
 6328TIP3   OH243178   3.289   5.146   6.448 -0.1961  0.3964 -0.3108
 6328TIP3    H143179   3.321   5.084   6.514  0.4306  1.0668  0.0260
 6328TIP3    H243180   3.209   5.106   6.414  0.7244 -1.0853 -0.8186
 6329TIP3   OH243181   7.130   4.034   0.887 -0.5559 -0.3152 -0.7753
 6329TIP3    H143182   7.035   4.027   0.890 -0.7149  1.2826  2.5529
 6329TIP3    H243183   7.148   4.127   0.904  1.5766 -0.9116  0.6719
 6330TIP3   OH243184   5.025   5.552   2.188 -0.5627 -0.3401  0.1930
 6330TIP3    H143185   5.026   5.519   2.278 -1.9046  0.1710  0.4253
 6330TIP3    H243186   5.013   5.646   2.196  0.1292 -0.1794 -0.5166
 6331TIP3   OH243187   2.161   3.033   8.190  0.2655 -0.1086  0.0530
 6331TIP3    H143188   2.218   3.052   8.265  0.0776  0.9725 -0.0654
 6331TIP3    H243189   2.171   3.108   8.132 -0.7061 -0.2494 -0.3228
 6332TIP3   OH243190   5.390   5.576   7.585  0.3268 -0.3007  0.2649
 6332TIP3    H143191   5.376   5.591   7.491  0.4003 -0.6072  0.2024
 6332TIP3    H243192   5.302   5.561   7.620  0.2547  0.2453  0.3253
 6333TIP3   OH243193   6.128   3.871   0.471  0.0051 -0.2641 -0.4690
 6333TIP3    H143194   6.130   3.947   0.413  1.4747 -0.5708 -0.8710
 6333TIP3    H243195   6.101   3.799   0.414 -0.6479 -0.1852 -0.2639
 6334TIP3   OH243196   1.976   4.836   2.881 -0.0780 -0.0794  0.3388
 6334TIP3    H143197   2.031   4.837   2.803 -0.3653 -0.4040  0.1317
 6334TIP3    H243198   2.017   4.771   2.939 -0.4883 -0.6400  0.0054
 6335TIP3   OH243199   6.833   0.331   9.483  0.1309 -0.2936 -0.1025
 6335TIP3    H143200   6.843   0.345   9.577  2.0850  2.1880 -0.5497
 6335TIP3    H243201   6.765   0.393   9.457  1.3155  0.8694 -0.5936
 6336TIP3   OH243202   1.164   2.120   8.938 -0.5136 -0.6821 -0.5174
 6336TIP3    H143203   1.216   2.106   9.018 -1.1242 -1.9205 -0.3211
 6336TIP3    H243204   1.225   2.103   8.867 -0.3712 -1.0910 -0.3001
 6337TIP3   OH243205   0.139   5.604   2.177 -0.4959 -0.2579 -0.2145
 6337TIP3    H143206   0.088   5.608   2.258  0.2922  0.1809  0.2752
 6337TIP3    H243207   0.109   5.679   2.126  0.6693  0.8706  0.7043
 6338TIP3   OH243208   2.844   7.609   8.108 -0.1018 -0.3586 -0.3068
 6338TIP3    H143209   2.785   7.647   8.043  0.4139 -0.5193 -0.8785
 6338TIP3    H243210   2.921   7.582   8.058  0.7644  0.4752  0.5337
 6339TIP3   OH243211   3.268   2.484   7.778  0.2075  0.5554 -0.5923
 6339TIP3    H143212   3.311   2.454   7.697  2.0436  1.2940  0.0647
 6339TIP3    H243213   3.314   2.438   7.848 -2.3910 -1.3022  0.0664
 6340TIP3   OH243214   2.434   2.968   1.237 -0.0196  0.3238  0.0561
 6340TIP3    H143215   2.431   3.053   1.193 -0.4906  0.8170  1.0292
 6340TIP3    H243216   2.367   2.916   1.193  0.3175  0.4181 -0.5900
 6341TIP3   OH243217   3.275   0.777   9.916  0.0616  0.2438 -0.2415
 6341TIP3    H143218   3.347   0.832   9.946  0.9373 -0.7603 -0.4906
 6341TIP3    H243219   3.282   0.778   9.821  1.7970 -2.4805 -0.2347
 6342TIP3   OH243220   1.126   2.654   0.198  0.2413 -0.3885  0.2583
 6342TIP3    H143221   1.067   2.646   0.123 -2.2566 -1.3929  2.1948
 6342TIP3    H243222   1.200   2.597   0.177 -0.6168 -0.9964 -1.2492
 6343TIP3   OH243223   7.480   3.950   8.582 -0.3920 -0.6305 -0.1105
 6343TIP3    H143224   7.486   3.896   8.503  2.3468 -0.4070 -0.1516
 6343TIP3    H243225   7.506   3.892   8.653  0.9185  0.1560  0.0735
 6344TIP3   OH243226   0.755   6.674   9.337  0.1966  0.4443  0.7767
 6344TIP3    H143227   0.786   6.586   9.358  2.4174  1.0454  0.3357
 6344TIP3    H243228   0.727   6.669   9.246 -0.6651 -0.0321  1.0630
 6345TIP3   OH243229   2.489   1.663   2.313 -0.3825 -0.3114 -0.0300
 6345TIP3    H143230   2.424   1.624   2.254 -0.4369 -1.7926  0.9337
 6345TIP3    H243231   2.513   1.746   2.272 -1.5996 -0.5434 -1.2889
 6346TIP3   OH243232   4.533   3.545   8.918  0.3069  0.3785  0.1859
 6346TIP3    H143233   4.480   3.499   8.853  1.1840 -0.1537 -0.1685
 6346TIP3    H243234   4.604   3.484   8.940  0.6663  0.9947  0.7951
 6347TIP3   OH243235   6.604   6.398   0.910  0.2410  0.2528  0.0075
 6347TIP3    H143236   6.523   6.351   0.930  1.4289 -1.8541  0.1150
 6347TIP3    H243237   6.617   6.455   0.986  0.1729 -1.2833  1.2318
 6348TIP3   OH243238   2.787   0.504   0.174  0.0601  0.3619 -0.0334
 6348TIP3    H143239   2.748   0.539   0.254 -2.1987 -0.4934 -0.6999
 6348TIP3    H243240   2.717   0.507   0.110  0.5262 -2.8649 -0.8466
 6349TIP3   OH243241   6.108   1.350   0.266 -0.0609  0.4402 -0.5426
 6349TIP3    H143242   6.125   1.265   0.305 -1.1632  0.2691 -0.4075
 6349TIP3    H243243   6.188   1.400   0.281  0.5489 -0.5259 -0.5257
 6350TIP3   OH243244   2.569   5.814   1.697  0.2929 -0.0444  0.2863
 6350TIP3    H143245   2.638   5.769   1.747  1.1935  1.4793  0.4728
 6350TIP3    H243246   2.524   5.869   1.761  0.6555  0.9920 -0.3155
 6351TIP3   OH243247   6.340   2.773   1.404  0.5279 -0.1023  0.0818
 6351TIP3    H143248   6.284   2.749   1.478 -0.5947  0.2690 -0.6143
 6351TIP3    H243249   6.317   2.711   1.335 -0.7084  1.3929 -0.9488
 6352TIP3   OH243250   7.036   1.785   0.887 -0.9514  0.5196 -0.7068
 6352TIP3    H143251   7.110   1.822   0.935 -0.3965 -0.3826 -0.8425
 6352TIP3    H243252   6.976   1.858   0.875 -0.3267  1.1395 -0.1172
 6353TIP3   OH243253   6.300   4.703   7.673  0.3779 -0.1778 -0.2543
 6353TIP3    H143254   6.291   4.623   7.622 -0.5880  1.0309 -2.0913
 6353TIP3    H243255   6.381   4.692   7.723  0.0062 -2.4702 -0.0737
 6354TIP3   OH243256   1.113   4.984   1.394 -0.0118  0.2386  0.4211
 6354TIP3    H143257   1.053   4.957   1.326  0.2612 -0.0609  0.2998
 6354TIP3    H243258   1.062   5.045   1.448 -0.6884 -0.6468  0.8116
 6355TIP3   OH243259   6.925   1.635   9.571  0.3568  0.3214 -0.0995
 6355TIP3    H143260   6.986   1.562   9.577  0.4106  0.4852  2.2453
 6355TIP3    H243261   6.979   1.713   9.579 -0.0868  0.4696  1.9387
 6356TIP3   OH243262   5.973   4.452   8.917 -0.3288  0.0783 -0.0525
 6356TIP3    H143263   5.932   4.366   8.923  0.2399 -0.2503 -0.7855
 6356TIP3    H243264   5.949   4.484   8.830  0.2768  0.2351 -0.1675
 6357TIP3   OH243265   3.117   2.827   1.568 -0.2218 -0.0514 -0.2084
 6357TIP3    H143266   3.070   2.769   1.508 -0.2716 -0.7923  0.5253
 6357TIP3    H243267   3.130   2.908   1.518 -0.7020 -0.4685 -1.0352
 6358TIP3   OH243268   4.619   6.120   9.912 -0.6098 -0.6346 -0.1346
 6358TIP3    H143269   4.605   6.034   9.952 -0.7073 -1.1276 -1.1893
 6358TIP3    H243270   4.643   6.101   9.822  0.0839  0.4310 -0.1958
 6359TIP3   OH243271   2.410   6.978   9.411  0.1846  0.4700  0.2612
 6359TIP3    H143272   2.461   7.053   9.382 -1.2842  1.9766  1.3831
 6359TIP3    H243273   2.451   6.952   9.494  0.4473  0.2891  0.0749
 6360TIP3   OH243274   2.431   3.612   0.007  0.5321 -0.5363 -0.1474
 6360TIP3    H143275   2.358   3.600  -0.054 -0.1940 -1.6373  0.8758
 6360TIP3    H243276   2.416   3.698   0.046 -0.2615 -0.7694  0.0806
 6361TIP3   OH243277   2.737   0.570   6.924  0.3971 -0.2370  0.6990
 6361TIP3    H143278   2.656   0.561   6.875  0.6408  0.1180  0.2236
 6361TIP3    H243279   2.798   0.612   6.863  0.3785  1.2255  1.6253
 6362TIP3   OH243280   0.460   3.893   1.398  0.1696 -0.1678  0.0369
 6362TIP3    H143281   0.393   3.865   1.461  1.1297 -0.0162  1.1564
 6362TIP3    H243282   0.494   3.975   1.435  0.1912  0.3579 -1.1136
 6363TIP3   OH243283   7.506   2.195   8.189  0.2322  0.5875 -0.8499
 6363TIP3    H143284   7.477   2.285   8.204 -3.2077 -0.6334  0.7187
 6363TIP3    H243285   7.526   2.192   8.095  3.1901  3.5503 -0.5107
 6364TIP3   OH243286   1.825   0.524   9.711 -0.2477 -0.9530  0.2111
 6364TIP3    H143287   1.777   0.583   9.769  0.1506  0.0606 -0.4681
 6364TIP3    H243288   1.892   0.579   9.670  0.4626 -1.9886 -0.0669
 6365TIP3   OH243289   5.147   1.977   8.516  0.5425 -0.2765 -0.1612
 6365TIP3    H143290   5.235   1.988   8.552 -0.1043 -0.5433  1.6155
 6365TIP3    H243291   5.161   1.947   8.426  2.2626  3.2836 -1.2501
 6366TIP3   OH243292   2.816   7.271   9.868  0.0544  0.9331  0.5855
 6366TIP3    H143293   2.733   7.225   9.876 -0.5247  1.9163  0.3530
 6366TIP3    H243294   2.881   7.201   9.858 -0.7345  0.1551  0.7774
 6367TIP3   OH243295   3.717   3.283   1.009  0.0736  0.4247 -0.2921
 6367TIP3    H143296   3.647   3.297   1.073 -1.4366  0.8602 -1.9714
 6367TIP3    H243297   3.797   3.299   1.059 -0.8808 -1.3946  2.0486
 6368TIP3   OH243298   0.622   3.219   8.365 -0.3013  0.0264  0.9125
 6368TIP3    H143299   0.680   3.149   8.394 -0.4907  0.0400  1.3314
 6368TIP3    H243300   0.665   3.299   8.394  1.2894  0.3044 -1.8711
 6369TIP3   OH243301   6.947   4.947   1.582 -0.2318  0.1892 -0.6105
 6369TIP3    H143302   7.029   4.996   1.577  0.5517 -1.1783 -3.1449
 6369TIP3    H243303   6.926   4.944   1.675  3.1283 -0.1683  0.2650
 6370TIP3   OH243304   4.155   2.697   8.254  0.3340  0.4768 -0.1931
 6370TIP3    H143305   4.212   2.773   8.243  0.1078  0.6184 -0.3881
 6370TIP3    H243306   4.066   2.733   8.253  0.1832  0.1060 -1.2219
 6371TIP3   OH243307   6.781   3.477   8.689 -0.1887  0.3316 -0.1611
 6371TIP3    H143308   6.854   3.454   8.632 -0.8998 -1.6047 -0.3788
 6371TIP3    H243309   6.785   3.572   8.697  2.9328  0.2334  0.6198
 6372TIP3   OH243310   0.209   0.564   0.683 -0.4287  0.1010 -0.5225
 6372TIP3    H143311   0.121   0.535   0.706 -1.7547  1.9910 -2.7905
 6372TIP3    H243312   0.251   0.486   0.646 -1.6160 -0.5187 -0.6073
 6373TIP3   OH243313   3.879   5.402   1.670  0.0265 -0.3774  0.4331
 6373TIP3    H143314   3.917   5.480   1.630 -0.4730  1.0272  2.5477
 6373TIP3    H243315   3.938   5.331   1.644  1.5751  1.0076 -0.0206
 6374TIP3   OH243316   3.278   7.208   7.337  0.4189 -0.4127  0.0276
 6374TIP3    H143317   3.348   7.151   7.370 -0.2353 -0.4201  1.5081
 6374TIP3    H243318   3.202   7.151   7.326  0.6202 -0.4066 -1.5874
 6375TIP3   OH243319   5.761   4.872   2.639 -0.1667 -0.3766  0.3057
 6375TIP3    H143320   5.786   4.782   2.620  0.6789  0.0083 -0.4986
 6375TIP3    H243321   5.837   4.908   2.686  0.0562  0.2859 -0.5484
 6376TIP3   OH243322   6.198   3.069   0.628  0.4126 -0.1929 -0.1219
 6376TIP3    H143323   6.215   3.159   0.655  0.4579 -0.3769  0.4687
 6376TIP3    H243324   6.169   3.025   0.708 -0.7185 -0.4265 -0.6378
 6377TIP3   OH243325   0.550   3.785   1.102 -0.2095 -0.8000 -0.4895
 6377TIP3    H143326   0.596   3.864   1.130 -2.6386  1.1525 -1.6129
 6377TIP3    H243327   0.593   3.760   1.020  0.0176 -0.1026 -0.5898
 6378TIP3   OH243328   4.756   0.648   1.052 -0.1214  0.2039 -0.4434
 6378TIP3    H143329   4.740   0.728   1.001 -0.3961  0.1248 -0.4820
 6378TIP3    H243330   4.701   0.658   1.130 -2.1203 -1.0584 -1.5955
 6379TIP3   OH243331   3.335   4.925   8.808  0.1093  0.3270 -0.0035
 6379TIP3    H143332   3.378   4.992   8.754 -0.1816  0.3719 -0.1775
 6379TIP3    H243333   3.346   4.957   8.898 -1.3092  1.3660 -0.1667
 6380TIP3   OH243334   0.296   0.652   8.280 -0.0813 -0.0846  0.3044
 6380TIP3    H143335   0.286   0.624   8.371  1.9376  0.5230  0.7754
 6380TIP3    H243336   0.315   0.745   8.286  0.5831 -0.1480 -0.7001
 6381TIP3   OH243337   0.636   3.854   8.910  0.0674 -0.4044 -0.6761
 6381TIP3    H143338   0.657   3.907   8.833 -1.2862  0.6691 -0.3569
 6381TIP3    H243339   0.541   3.858   8.916 -0.3062 -4.2898 -1.5786
 6382TIP3   OH243340   1.120   4.810   7.867 -0.7714 -0.0294  0.4869
 6382TIP3    H143341   1.169   4.865   7.806 -0.3879 -0.5558  0.3156
 6382TIP3    H243342   1.107   4.865   7.944 -1.1986  0.6202 -0.0398
 6383TIP3   OH243343   4.742   1.486   9.519 -0.0414  0.0798 -0.3152
 6383TIP3    H143344   4.819   1.443   9.556 -0.0408  0.8842  0.6605
 6383TIP3    H243345   4.699   1.418   9.467 -0.6185 -1.4430  1.9908
 6384TIP3   OH243346   4.646   3.894   0.090  0.3575  0.1450  0.0992
 6384TIP3    H143347   4.571   3.948   0.068 -0.6909 -0.4845  1.8818
 6384TIP3    H243348   4.720   3.954   0.094 -0.3517  1.0427 -0.1619
 6385TIP3   OH243349   6.372   3.974   0.565 -0.1304  0.3958 -0.5655
 6385TIP3    H143350   6.286   3.951   0.528 -0.6911  1.8043 -0.2170
 6385TIP3    H243351   6.361   3.962   0.660  1.0620 -2.4338 -0.6755
 6386TIP3   OH243352   0.487   1.235   0.387 -0.2165 -0.0285  0.0219
 6386TIP3    H143353   0.400   1.219   0.350 -0.3547  1.4471 -0.3686
 6386TIP3    H243354   0.530   1.150   0.386 -0.9134 -0.3923 -1.7528
 6387TIP3   OH243355   0.934   3.048   9.294  0.1370  0.7252  0.0733
 6387TIP3    H143356   0.949   3.039   9.199  0.7084  0.6574  0.1644
 6387TIP3    H243357   0.875   3.123   9.302 -0.0586  0.6202 -0.3505
 6388TIP3   OH243358   4.094   5.593   8.056 -0.2403  0.4819  0.0439
 6388TIP3    H143359   4.160   5.636   8.112  0.2084  0.4707 -0.4657
 6388TIP3    H243360   4.144   5.563   7.980 -0.6426 -0.4920  0.1527
 6389TIP3   OH243361   0.679   7.620   9.673 -0.3771  0.5405 -0.0169
 6389TIP3    H143362   0.773   7.616   9.687 -0.0609 -0.6255 -2.0429
 6389TIP3    H243363   0.643   7.553   9.731  0.0773  0.6730  0.4247
 6390TIP3   OH243364   6.221   2.611   1.059  0.0475 -0.8125  0.4335
 6390TIP3    H143365   6.173   2.670   1.117  0.9898  0.6293 -0.1746
 6390TIP3    H243366   6.155   2.550   1.026 -0.5216 -1.6460  2.9196
 6391TIP3   OH243367   0.862   5.468   2.664 -0.5849  0.1936  0.3597
 6391TIP3    H143368   0.919   5.401   2.702 -0.6116  0.2563  0.5131
 6391TIP3    H243369   0.844   5.438   2.575 -0.6549 -0.0378  0.4521
 6392TIP3   OH243370   2.003   0.941   9.468  0.2292 -0.1633 -0.2416
 6392TIP3    H143371   2.086   0.912   9.430  0.1664 -0.1881 -0.3595
 6392TIP3    H243372   1.936   0.898   9.415  0.1421 -0.3737  0.0334
 6393TIP3   OH243373   3.560   7.292   8.832 -0.4713 -0.1264 -0.1234
 6393TIP3    H143374   3.608   7.237   8.894  0.3505 -0.4585 -1.0324
 6393TIP3    H243375   3.474   7.304   8.872  0.0719 -0.2417  1.1301
 6394TIP3   OH243376   1.630   4.649   8.084 -0.1396 -0.3938  0.0939
 6394TIP3    H143377   1.718   4.612   8.091 -0.5670 -1.6068 -0.6736
 6394TIP3    H243378   1.637   4.734   8.127  1.5157 -0.2723 -0.3305
 6395TIP3   OH243379   7.633   2.381   8.644  0.5934 -0.1228 -0.1320
 6395TIP3    H143380   7.608   2.445   8.711  0.4198 -0.7341  0.4091
 6395TIP3    H243381   7.728   2.372   8.654  0.7747  0.7978 -0.9045
 6396TIP3   OH243382   1.251   2.946   0.076  0.6408  0.4526 -0.3789
 6396TIP3    H143383   1.297   3.026   0.051 -0.2449  0.2638 -2.8252
 6396TIP3    H243384   1.166   2.975   0.107  0.4480  0.4825 -0.9354
 6397TIP3   OH243385   1.081   1.538   9.287 -0.2108 -0.0278 -0.6497
 6397TIP3    H143386   1.165   1.551   9.330 -0.4019  0.4966 -0.4323
 6397TIP3    H243387   1.026   1.498   9.355 -0.3468  0.2826 -0.5781
 6398TIP3   OH243388   5.115   4.791   8.919  0.5836 -0.7299  0.6008
 6398TIP3    H143389   5.057   4.717   8.934 -0.5315 -0.1747 -0.7993
 6398TIP3    H243390   5.067   4.867   8.951 -0.1536 -0.0706 -1.8518
 6399TIP3   OH243391   7.158   2.161   8.309  0.0587 -0.0326  0.4387
 6399TIP3    H143392   7.234   2.126   8.263 -0.6088 -1.0490  0.0825
 6399TIP3    H243393   7.161   2.255   8.292  1.8117  0.0978  1.2999
 6400TIP3   OH243394   3.828   4.430   7.870  0.1726  0.1344 -0.3816
 6400TIP3    H143395   3.749   4.454   7.918  0.1135 -0.7663 -0.0046
 6400TIP3    H243396   3.808   4.452   7.779  0.3950  2.1234  0.0046
 6401TIP3   OH243397   1.767   1.972   1.526  0.1275 -0.2248  0.5699
 6401TIP3    H143398   1.787   1.991   1.618 -2.8588  1.1905  1.0390
 6401TIP3    H243399   1.732   1.883   1.527 -0.9341  0.1776  1.0418
 6402TIP3   OH243400   0.986   2.862   0.342 -0.2102  0.1354 -0.5898
 6402TIP3    H143401   1.004   2.955   0.326  0.2659 -0.0604 -1.2170
 6402TIP3    H243402   1.036   2.816   0.275  2.9289 -0.8032  2.1704
 6403TIP3   OH243403   1.990   6.489   9.147  0.1397 -0.2544 -0.0827
 6403TIP3    H143404   2.021   6.576   9.122  0.1452 -0.5251 -1.0517
 6403TIP3    H243405   1.908   6.505   9.194 -0.4477  0.2196 -1.2329
 6404TIP3   OH243406   7.392   3.297   2.384  0.3083 -0.1451  0.0362
 6404TIP3    H143407   7.426   3.328   2.300  0.1225  0.9350  0.3464
 6404TIP3    H243408   7.466   3.251   2.424  0.7350  0.2708 -0.2583
 6405TIP3   OH243409   3.217   7.451   8.152 -0.5737 -0.3096 -0.5580
 6405TIP3    H143410   3.182   7.364   8.169 -1.8001  0.0603 -1.1026
 6405TIP3    H243411   3.172   7.481   8.073 -0.8440  1.1630  0.1081
 6406TIP3   OH243412   5.717   5.408   9.307 -0.0992 -0.3473 -0.6243
 6406TIP3    H143413   5.699   5.337   9.369 -1.5679 -0.8407 -1.5680
 6406TIP3    H243414   5.749   5.363   9.229  2.1288  0.2947 -0.1603
 6407TIP3   OH243415   7.655   1.208   0.164  0.5847  0.0016 -0.4334
 6407TIP3    H143416   7.614   1.198   0.250  1.0312  0.1247 -0.2037
 6407TIP3    H243417   7.603   1.276   0.121  1.1302  0.8517  0.2168
 6408TIP3   OH243418   4.548   0.610   9.336 -0.4043 -0.3921 -0.8601
 6408TIP3    H143419   4.468   0.559   9.323 -0.9776  0.2989 -0.1603
 6408TIP3    H243420   4.530   0.694   9.294 -0.9814  0.6267  1.3126
 6409TIP3   OH243421   4.073   3.222   8.770 -0.0787 -0.3595 -0.7631
 6409TIP3    H143422   4.101   3.306   8.736 -1.7233  0.6785  0.2971
 6409TIP3    H243423   4.095   3.159   8.701 -2.1682  1.4488 -3.2755
 6410TIP3   OH243424   4.422   1.462   8.849 -0.0527  0.2900  0.5293
 6410TIP3    H143425   4.393   1.552   8.867 -2.2395 -0.4360  0.9529
 6410TIP3    H243426   4.487   1.444   8.916 -0.2911  1.2404  1.0337
 6411TIP3   OH243427   1.078   2.237   0.233 -0.0750 -0.7214  0.0167
 6411TIP3    H143428   1.098   2.267   0.321  0.3667 -2.3292  0.5003
 6411TIP3    H243429   1.032   2.154   0.245  1.0734 -1.5993 -1.2596
 6412TIP3   OH243430   4.176   5.350   1.460 -0.0095  0.1014 -0.3481
 6412TIP3    H143431   4.137   5.434   1.485 -1.8635 -0.2501 -1.7876
 6412TIP3    H243432   4.121   5.285   1.504  1.2639 -0.3862  0.5614
 6413TIP3   OH243433   6.737   5.383   0.060  0.5381 -0.3626 -0.6318
 6413TIP3    H143434   6.714   5.326   0.134 -0.6074  0.9574  0.0759
 6413TIP3    H243435   6.678   5.357  -0.010 -0.6948  0.5460  0.0102
 6414TIP3   OH243436   0.797   3.237   8.834 -0.2609  0.1820  0.5814
 6414TIP3    H143437   0.781   3.153   8.876 -0.9836  0.4404  0.8409
 6414TIP3    H243438   0.836   3.215   8.749 -1.4186 -0.4584  0.1995
 6415TIP3   OH243439   0.440   1.937   8.583 -0.6140  0.5838  0.2009
 6415TIP3    H143440   0.385   1.859   8.578 -0.4467  0.5024 -0.4444
 6415TIP3    H243441   0.378   2.010   8.588 -0.7760  0.4429  0.2682
 6416TIP3   OH243442   7.547   0.845   0.733 -0.3386 -0.2497 -0.3751
 6416TIP3    H143443   7.623   0.816   0.784 -0.5757  0.2984  0.3128
 6416TIP3    H243444   7.566   0.936   0.712 -1.4254  0.3398  1.0451
 6417TIP3   OH243445   1.950   6.097   0.289 -0.2108  0.7952  1.1457
 6417TIP3    H143446   1.897   6.167   0.326 -0.2554  0.2471  2.1261
 6417TIP3    H243447   1.887   6.040   0.246 -0.0821  1.9068 -0.6494
 6418TIP3   OH243448   3.218   6.904   1.990  0.3547  0.2021  0.3645
 6418TIP3    H143449   3.135   6.861   1.966  0.0139  0.3283  1.2895
 6418TIP3    H243450   3.210   6.992   1.952 -0.1713  0.3894  0.8831
 6419TIP3   OH243451   7.492   6.400   7.811  0.5674  0.1375  0.1327
 6419TIP3    H143452   7.431   6.416   7.740  0.8889  0.9650  0.0284
 6419TIP3    H243453   7.574   6.377   7.768 -0.2261 -3.4654  0.2696
 6420TIP3   OH243454   6.329   0.342   0.113  0.6704  0.9932 -0.1270
 6420TIP3    H143455   6.273   0.338   0.190 -0.6431  1.5144 -1.0285
 6420TIP3    H243456   6.410   0.384   0.144  0.1644  1.1839  0.9580
 6421TIP3   OH243457   4.494   0.955   7.879  0.2603 -0.3210 -0.3729
 6421TIP3    H143458   4.433   1.023   7.906  1.2027  0.6386 -0.5844
 6421TIP3    H243459   4.512   0.906   7.959 -0.4404 -0.3376 -0.2204
 6422TIP3   OH243460   1.392   2.031   0.773  0.1142  0.4515 -0.2430
 6422TIP3    H143461   1.311   1.991   0.741 -0.8952  0.0431  2.5199
 6422TIP3    H243462   1.454   1.958   0.778 -0.2205  0.1916  0.2158
 6423TIP3   OH243463   4.762   6.121   0.924  0.2971  0.2974  0.1734
 6423TIP3    H143464   4.775   6.175   0.846 -1.2872 -1.9921 -1.8347
 6423TIP3    H243465   4.703   6.171   0.979  1.2678  1.8690 -0.1533
 6424TIP3   OH243466   3.844   3.024   1.841 -0.2962  0.5064  0.3183
 6424TIP3    H143467   3.897   2.973   1.902 -1.4595 -1.4902 -0.2543
 6424TIP3    H243468   3.775   3.061   1.895 -0.8820 -0.6257  0.3804
 6425TIP3   OH243469   2.744   2.807   9.699 -0.1537  0.4191  0.3080
 6425TIP3    H143470   2.710   2.857   9.773 -0.8856 -0.7159  0.7711
 6425TIP3    H243471   2.687   2.730   9.694  0.4772 -0.0000 -0.8423
 6426TIP3   OH243472   6.391   5.586   2.294  0.3323  0.0284 -0.3010
 6426TIP3    H143473   6.310   5.624   2.328 -1.3528 -0.9494 -2.9342
 6426TIP3    H243474   6.454   5.658   2.295 -1.2218  1.4401 -0.2933
 6427TIP3   OH243475   4.834   3.694   1.714 -0.7296 -0.5482 -0.0697
 6427TIP3    H143476   4.888   3.772   1.704  0.4912 -1.1828  1.0882
 6427TIP3    H243477   4.758   3.723   1.763 -0.2812 -0.0778  0.3615
 6428TIP3   OH243478   4.251   7.284   2.368  0.7725 -0.4259 -0.2997
 6428TIP3    H143479   4.194   7.360   2.384  1.4414  0.2209 -0.9185
 6428TIP3    H243480   4.326   7.320   2.321  0.7321 -1.6063 -1.3171
 6429TIP3   OH243481   3.142   6.382   9.122  0.2085 -0.2373 -0.3144
 6429TIP3    H143482   3.147   6.372   9.027  2.0523 -0.2543 -0.2596
 6429TIP3    H243483   3.179   6.301   9.156  0.6808  0.2574  0.3819
 6430TIP3   OH243484   1.028   5.144   1.939  0.0422  0.4587  0.0949
 6430TIP3    H143485   1.095   5.168   1.875  0.9087 -0.8593  0.4735
 6430TIP3    H243486   1.067   5.164   2.024 -0.4856  0.7167  0.2824
 6431TIP3   OH243487   1.419   3.092   1.981 -0.0630  0.6958 -0.5002
 6431TIP3    H143488   1.445   3.077   1.890 -0.0779 -1.2739 -0.2031
 6431TIP3    H243489   1.477   3.037   2.033 -1.6974 -0.1456  0.5109
 6432TIP3   OH243490   3.662   0.149   9.054 -0.3503 -0.3553  0.0242
 6432TIP3    H143491   3.605   0.084   9.014 -0.0212 -0.0082 -1.0178
 6432TIP3    H243492   3.691   0.108   9.136 -0.9544 -1.0970 -0.1262
 6433TIP3   OH243493   1.246   0.612   0.632  0.0220  0.0840  0.0338
 6433TIP3    H143494   1.210   0.682   0.686 -0.2249 -0.9543  1.2520
 6433TIP3    H243495   1.329   0.589   0.674  0.4465  0.1137 -0.7667
 6434TIP3   OH243496   2.966   4.381   0.051  0.2045  0.0156  0.4142
 6434TIP3    H143497   2.913   4.319   0.002 -1.2689  2.0041 -0.6327
 6434TIP3    H243498   3.045   4.392  -0.002 -1.6138  2.5845 -2.0027
 6435TIP3   OH243499   6.101   1.682   1.040  0.1188 -0.1523 -0.4188
 6435TIP3    H143500   6.128   1.772   1.021  1.5002  0.0430  1.9850
 6435TIP3    H243501   6.178   1.642   1.081 -1.0627 -1.8287  0.2994
 6436TIP3   OH243502   4.951   1.000   8.641  0.2641 -0.0674 -0.5157
 6436TIP3    H143503   4.989   1.043   8.564 -0.3673  0.2665 -0.6472
 6436TIP3    H243504   4.863   1.036   8.647  0.0176 -0.7246 -0.1295
 6437TIP3   OH243505   3.503   2.796   6.618 -0.2900  0.1850  0.4143
 6437TIP3    H143506   3.525   2.780   6.710  0.3830 -2.5937 -0.1418
 6437TIP3    H243507   3.443   2.724   6.595  2.4086 -1.4359 -2.2344
 6438TIP3   OH243508   5.016   0.226   8.627  0.2571 -0.4222 -0.1535
 6438TIP3    H143509   5.091   0.179   8.590  0.8383 -0.3220  0.8766
 6438TIP3    H243510   5.012   0.197   8.718 -1.1947 -0.7209 -0.2882
 6439TIP3   OH243511   5.287   7.157   0.271 -0.0039 -0.3293  0.1551
 6439TIP3    H143512   5.299   7.233   0.214 -0.5942 -0.3689 -0.0324
 6439TIP3    H243513   5.193   7.139   0.266  0.5175 -3.0507 -2.3522
 6440TIP3   OH243514   2.031   4.023   8.401  0.3323 -0.8006 -0.1232
 6440TIP3    H143515   2.061   4.065   8.482 -0.3239 -0.1707 -0.1907
 6440TIP3    H243516   2.068   4.078   8.332 -0.5001 -0.3429 -0.2134
 6441TIP3   OH243517   4.104   3.197   0.556  0.2070  0.4142  0.3589
 6441TIP3    H143518   4.022   3.154   0.534 -0.5523  0.1653  3.2864
 6441TIP3    H243519   4.082   3.290   0.559  0.0278  0.3570  1.0299
 6442TIP3   OH243520   2.706   3.486   9.630 -0.1514  0.7924 -0.2857
 6442TIP3    H143521   2.692   3.580   9.646  0.3504  0.8617 -0.2300
 6442TIP3    H243522   2.793   3.482   9.590  0.4930  0.2121  1.1245
 6443TIP3   OH243523   3.805   5.701   1.561  0.0537  0.2289 -0.2917
 6443TIP3    H143524   3.790   5.785   1.517  2.1832  0.6691 -0.2902
 6443TIP3    H243525   3.741   5.700   1.632 -1.7824  0.6236 -1.8531
 6444TIP3   OH243526   3.164   4.186   8.246 -0.1682  0.5341 -0.3691
 6444TIP3    H143527   3.078   4.213   8.275 -1.1625 -0.4170 -2.2220
 6444TIP3    H243528   3.183   4.107   8.297 -1.3441 -0.4269 -1.3480
 6445TIP3   OH243529   2.504   3.524   0.319  0.1148  0.3514 -0.1621
 6445TIP3    H143530   2.535   3.541   0.230  1.4315 -1.3035 -0.0574
 6445TIP3    H243531   2.552   3.586   0.374  0.8995 -0.0814 -0.3585
 6446TIP3   OH243532   3.810   7.080   7.432  0.2879 -0.4971  0.2099
 6446TIP3    H143533   3.895   7.096   7.391  0.5724  0.6952  1.1860
 6446TIP3    H243534   3.803   6.985   7.439  2.1901 -0.6050  1.3683
 6447TIP3   OH243535   1.179   2.361   1.738  0.5512 -0.2679 -0.0962
 6447TIP3    H143536   1.255   2.389   1.687 -0.8243 -1.7370 -3.1904
 6447TIP3    H243537   1.123   2.438   1.742  1.0218  0.0786 -0.1062
 6448TIP3   OH243538   0.921   5.551   8.065  0.1047 -0.5039  0.2563
 6448TIP3    H143539   0.915   5.575   7.972 -1.2176 -1.4583  0.0663
 6448TIP3    H243540   0.849   5.599   8.106  0.6824 -0.0922  0.7999
 6449TIP3   OH243541   6.105   6.784   1.198 -0.1140 -0.1457  0.5815
 6449TIP3    H143542   6.043   6.846   1.237 -1.0303 -0.3056 -0.5743
 6449TIP3    H243543   6.050   6.724   1.148  1.0221  0.2607 -1.2376
 6450TIP3   OH243544   4.619   6.971   1.466  0.5394 -0.0576 -0.7356
 6450TIP3    H143545   4.553   6.914   1.426 -0.0816  0.3402 -0.2938
 6450TIP3    H243546   4.569   7.034   1.517  1.2492  0.4946 -0.7007
 6451TIP3   OH243547   1.271   4.339   9.946 -0.0762  0.0927  0.2452
 6451TIP3    H143548   1.245   4.388  10.024 -0.4769 -1.0077  0.8115
 6451TIP3    H243549   1.235   4.391   9.873  0.3168  1.1366  0.7730
 6452TIP3   OH243550   0.960   4.750   0.932  0.5127 -0.1833  0.4357
 6452TIP3    H143551   0.909   4.748   1.013 -0.7573  0.3231 -0.3201
 6452TIP3    H243552   0.987   4.659   0.919 -0.7532 -0.5939  0.5335
 6453TIP3   OH243553   3.311   0.299   1.155 -0.2385  0.2788 -0.3602
 6453TIP3    H143554   3.292   0.372   1.097  0.6279 -0.2340 -1.3189
 6453TIP3    H243555   3.382   0.330   1.211 -0.4686  0.4630 -0.1664
 6454TIP3   OH243556   2.859   4.616   1.534  0.4875  0.3035 -0.0992
 6454TIP3    H143557   2.882   4.523   1.543  0.2664  0.3970  2.2004
 6454TIP3    H243558   2.934   4.662   1.572 -0.3020  0.9479  0.7100
 6455TIP3   OH243559   2.785   2.904   2.385 -0.7682  0.4744  0.5993
 6455TIP3    H143560   2.734   2.967   2.335  0.2327 -0.4040 -1.6657
 6455TIP3    H243561   2.876   2.922   2.361 -0.3639 -0.9980  0.8920
 6456TIP3   OH243562   7.074   0.566   1.458 -0.1495  0.0063 -0.6734
 6456TIP3    H143563   7.091   0.511   1.535 -0.3911  0.2876 -0.4161
 6456TIP3    H243564   7.079   0.506   1.384 -0.7737 -0.4294 -0.3666
 6457TIP3   OH243565   5.148   2.067   8.069  0.0782 -0.8566 -0.1682
 6457TIP3    H143566   5.177   2.155   8.093 -1.8101 -0.2372 -0.0198
 6457TIP3    H243567   5.172   2.058   7.976 -1.3092  0.5438 -0.6960
 6458TIP3   OH243568   0.336   0.784   1.941 -0.2335  0.3176  0.5674
 6458TIP3    H143569   0.428   0.756   1.940 -0.3859 -0.1773 -0.1619
 6458TIP3    H243570   0.336   0.867   1.894 -0.1843  0.2398  0.4296
 6459TIP3   OH243571   4.968   3.341   2.187 -0.1497 -0.0692 -0.1572
 6459TIP3    H143572   5.028   3.416   2.185 -1.1278  0.8847  1.9979
 6459TIP3    H243573   4.934   3.335   2.098  0.1145  1.9615 -0.4472
 6460TIP3   OH243574   4.336   6.744   0.888 -0.0432  0.1318 -0.2666
 6460TIP3    H143575   4.378   6.706   0.811  0.7876 -2.3533  1.2957
 6460TIP3    H243576   4.244   6.752   0.864  0.3219  0.2580 -1.7711
 6461TIP3   OH243577   1.925   6.367   1.852  0.4204  0.2139 -0.4445
 6461TIP3    H143578   1.884   6.452   1.868  0.5072  0.1292  0.2411
 6461TIP3    H243579   1.921   6.322   1.936  0.9563 -0.2086 -0.6392
 6462TIP3   OH243580   3.047   1.897   1.222 -0.1149  0.3327 -0.1292
 6462TIP3    H143581   2.965   1.908   1.176  0.3609  0.3244 -0.9972
 6462TIP3    H243582   3.074   1.807   1.203 -0.8071 -0.2923  1.6704
 6463TIP3   OH243583   4.576   0.091   9.626 -0.0616 -0.2687  0.0472
 6463TIP3    H143584   4.555   0.126   9.713  3.2923 -2.5870  2.0532
 6463TIP3    H243585   4.596   0.169   9.573 -3.6537  1.3057  0.7190
 6464TIP3   OH243586   5.146   2.253   2.073 -0.6974 -0.5655  0.1151
 6464TIP3    H143587   5.138   2.325   2.136 -2.0380 -1.4223  0.9992
 6464TIP3    H243588   5.234   2.262   2.037  0.5932 -0.6725  2.9293
 6465TIP3   OH243589   1.479   1.714   8.793 -0.3355 -0.1802  0.1779
 6465TIP3    H143590   1.471   1.805   8.822 -0.9886 -0.0132 -0.4863
 6465TIP3    H243591   1.446   1.662   8.866 -1.1869  0.1915  0.0743
 6466TIP3   OH243592   4.717   2.185   9.344 -0.4956 -0.3410 -0.4459
 6466TIP3    H143593   4.787   2.120   9.351 -0.6825 -0.5240 -0.2738
 6466TIP3    H243594   4.685   2.175   9.254 -0.4892 -0.4479 -0.4358
 6467TIP3   OH243595   1.859   4.397   9.967  0.2287  0.4601  0.7742
 6467TIP3    H143596   1.779   4.448   9.956  0.1798 -0.1915 -3.3874
 6467TIP3    H243597   1.927   4.462   9.983 -0.3909  1.5606 -0.8280
 6468TIP3   OH243598   2.342   3.811   1.515  0.4089  0.1858  0.2720
 6468TIP3    H143599   2.431   3.818   1.550  0.4419 -1.0340  0.4955
 6468TIP3    H243600   2.355   3.806   1.420  0.4230  1.9375  0.1460
 6469TIP3   OH243601   3.086   0.239   0.747  0.0962  0.4830  0.1216
 6469TIP3    H143602   3.060   0.331   0.740  2.4850  1.4014  1.8980
 6469TIP3    H243603   3.081   0.220   0.840 -2.2078 -1.8928 -0.3668
 6470TIP3   OH243604   7.270   4.914   1.374  0.5659  0.3554 -0.3402
 6470TIP3    H143605   7.235   4.963   1.448 -0.2810  0.0232 -0.4999
 6470TIP3    H243606   7.201   4.920   1.307 -0.4287 -2.5565  0.2672
 6471TIP3   OH243607   3.598   1.813   8.427  0.2923  0.5420 -0.0390
 6471TIP3    H143608   3.576   1.773   8.511 -1.1714 -0.6104 -0.9116
 6471TIP3    H243609   3.624   1.739   8.372  1.0982  1.2682 -0.6502
 6472TIP3   OH243610   6.171   3.213   1.441 -0.0334 -0.0505  0.1661
 6472TIP3    H143611   6.179   3.206   1.536 -0.3755 -1.6024  0.0990
 6472TIP3    H243612   6.253   3.179   1.406 -0.1110  0.0350 -0.1085
 6473TIP3   OH243613   4.850   6.521   8.313  0.7087  0.2246  0.4963
 6473TIP3    H143614   4.783   6.579   8.350  0.3803 -0.1719  0.5350
 6473TIP3    H243615   4.854   6.447   8.374  0.1780 -0.4277 -0.2310
 6474TIP3   OH243616   5.321   5.457   0.649  0.0543 -0.0348 -0.3108
 6474TIP3    H143617   5.315   5.444   0.554 -2.2865  1.0625 -0.3700
 6474TIP3    H243618   5.373   5.537   0.659 -1.0465  0.7634 -0.7798
 6475TIP3   OH243619   0.969   6.377   8.443  0.1174  0.5461  0.0258
 6475TIP3    H143620   0.969   6.424   8.359  0.7788  1.5650  0.5703
 6475TIP3    H243621   0.942   6.288   8.421 -0.7754  1.0751 -1.1032
 6476TIP3   OH243622   3.206   5.891   9.760 -0.0935 -0.1432 -0.4282
 6476TIP3    H143623   3.113   5.910   9.746  0.0026  2.1017  1.3428
 6476TIP3    H243624   3.209   5.797   9.775 -2.0790 -0.2801 -0.5711
 6477TIP3   OH243625   2.043   3.776   0.387 -0.2977  0.0915  0.1870
 6477TIP3    H143626   2.110   3.721   0.430 -1.6665 -2.6584 -0.9712
 6477TIP3    H243627   2.093   3.850   0.351  2.3685 -2.2789 -1.4346
 6478TIP3   OH243628   5.285   3.093   0.261 -0.5186 -0.7379  0.0445
 6478TIP3    H143629   5.195   3.096   0.227  0.2959 -1.7545 -2.3742
 6478TIP3    H243630   5.285   3.019   0.321 -0.4541 -3.4072 -2.9621
 6479TIP3   OH243631   4.262   6.956   0.609  0.1418 -0.8744  0.1902
 6479TIP3    H143632   4.339   6.957   0.553  0.7848 -1.0309  1.0432
 6479TIP3    H243633   4.253   6.865   0.636 -0.9716 -1.0578 -0.7227
 6480TIP3   OH243634   7.064   0.147   7.958  0.1400 -0.1137 -0.2602
 6480TIP3    H143635   7.034   0.229   7.919  0.1826  0.4794  0.9076
 6480TIP3    H243636   7.120   0.108   7.891 -1.0518  0.0753 -1.4142
 6481TIP3   OH243637   4.298   1.128   7.940  0.1534 -0.0766  0.1192
 6481TIP3    H143638   4.298   1.098   8.031  1.9019 -0.5354 -0.0043
 6481TIP3    H243639   4.212   1.168   7.928  0.4514  1.4337  2.4545
 6482TIP3   OH243640   3.062   3.799   8.448 -0.2231  1.0928  0.0535
 6482TIP3    H143641   3.120   3.751   8.508 -0.0860  0.6273 -0.4426
 6482TIP3    H243642   3.107   3.882   8.433  0.1508  0.8765 -0.0485
 6483TIP3   OH243643   2.901   3.843   1.963  0.0531 -0.1585 -0.0587
 6483TIP3    H143644   2.963   3.857   1.891 -0.1648  1.4236  0.0245
 6483TIP3    H243645   2.893   3.929   2.004  0.1954 -1.0264  1.8927
 6484TIP3   OH243646   0.563   2.770   0.757 -0.1841  0.0256 -0.2233
 6484TIP3    H143647   0.479   2.744   0.795 -0.0385 -0.0088  0.0787
 6484TIP3    H243648   0.573   2.862   0.783 -0.2157  0.0849 -0.4189
 6485TIP3   OH243649   3.484   2.596   0.282  0.0131  0.2882  0.4283
 6485TIP3    H143650   3.452   2.590   0.372  0.5175  0.5620  0.6282
 6485TIP3    H243651   3.424   2.541   0.231  1.1653 -1.8717  1.3148
 6486TIP3   OH243652   1.903   1.939   6.696 -0.1934  0.5098 -0.4351
 6486TIP3    H143653   1.856   2.023   6.699  1.1074  1.2298  0.7722
 6486TIP3    H243654   1.978   1.956   6.639 -0.8909 -0.3982 -1.6768
 6487TIP3   OH243655   2.805   7.632   7.318  0.3241  0.0527 -0.2338
 6487TIP3    H143656   2.753   7.575   7.260 -0.0895 -0.1194  0.2969
 6487TIP3    H243657   2.740   7.672   7.376  0.7826 -0.1953  0.4697
 6488TIP3   OH243658   3.093   6.617   7.395 -0.9018  0.3973  0.0881
 6488TIP3    H143659   3.099   6.635   7.489 -3.2831  1.3523  0.1396
 6488TIP3    H243660   3.065   6.526   7.389 -0.2854  0.1925  0.2724
 6489TIP3   OH243661   1.756   4.030   0.227 -0.6253 -0.0867  0.1057
 6489TIP3    H143662   1.777   3.970   0.298 -1.9970 -0.0693  0.5473
 6489TIP3    H243663   1.797   3.991   0.150  0.4628 -0.3599  0.7954
 6490TIP3   OH243664   2.619   5.106   2.553  0.2458 -0.0365  0.6414
 6490TIP3    H143665   2.570   5.025   2.536  0.6933 -0.7226  2.3852
 6490TIP3    H243666   2.709   5.085   2.528 -0.1422  0.9960 -1.8948
 6491TIP3   OH243667   7.220   4.506   0.077 -0.0091 -0.0144 -0.9054
 6491TIP3    H143668   7.239   4.451   0.153  0.3099  1.9142  0.4905
 6491TIP3    H243669   7.154   4.457   0.028  1.2153 -2.2204 -0.4698
 6492TIP3   OH243670   1.961   6.467   8.498  0.4230 -0.0323  0.0753
 6492TIP3    H143671   2.013   6.402   8.452  0.5770 -0.1923  0.4661
 6492TIP3    H243672   1.925   6.523   8.430  0.8072 -0.1443 -0.2196
 6493TIP3   OH243673   0.743   2.251   9.967  0.2372  0.8690  0.0162
 6493TIP3    H143674   0.708   2.202  10.041 -1.5859 -0.0791 -1.3739
 6493TIP3    H243675   0.768   2.184   9.903  1.3236  1.6704 -0.4287
 6494TIP3   OH243676   5.870   2.792   7.699 -0.1848 -0.2441 -0.5068
 6494TIP3    H143677   5.820   2.798   7.780  0.5565 -1.6070  0.0764
 6494TIP3    H243678   5.824   2.850   7.639  0.0321  1.8994  1.2686
 6495TIP3   OH243679   7.447   4.751   0.222 -0.9731 -0.1064  0.0776
 6495TIP3    H143680   7.412   4.681   0.278 -2.2009  1.1012  0.8903
 6495TIP3    H243681   7.375   4.813   0.214  0.4335  1.6675  0.3979
 6496TIP3   OH243682   7.295   1.888   9.859  0.2426 -0.1599  0.2099
 6496TIP3    H143683   7.204   1.855   9.856  0.6289 -1.2540 -0.3193
 6496TIP3    H243684   7.298   1.943   9.936 -0.4088 -1.6141  1.3301
 6497TIP3   OH243685   3.340   5.284   7.882  0.0527  0.2837  0.0054
 6497TIP3    H143686   3.249   5.260   7.866  0.0772 -0.6160  1.0948
 6497TIP3    H243687   3.378   5.293   7.794 -1.0529  0.5600 -0.4532
 6498TIP3   OH243688   0.898   6.881   8.704  0.4313 -0.2900 -0.0604
 6498TIP3    H143689   0.982   6.875   8.749  1.1982  0.1490 -1.3629
 6498TIP3    H243690   0.873   6.973   8.710 -0.9475 -0.7530  1.9815
 6499TIP3   OH243691   0.649   6.219   1.780 -0.0248  0.1271  0.2675
 6499TIP3    H143692   0.715   6.153   1.805  0.2088  0.3670  0.2952
 6499TIP3    H243693   0.647   6.279   1.854  0.9838  1.0875 -0.4479
 6500TIP3   OH243694   5.062   4.888   7.922 -0.3715 -0.2421  0.2197
 6500TIP3    H143695   5.150   4.915   7.895  0.3311 -2.6420 -0.1194
 6500TIP3    H243696   5.005   4.955   7.884  1.1607  0.4505 -1.0243
 6501TIP3   OH243697   2.862   0.766   1.429  0.2837 -0.1334  0.1538
 6501TIP3    H143698   2.811   0.800   1.356 -0.3229  0.5542  0.8912
 6501TIP3    H243699   2.861   0.835   1.495  2.2365 -0.0531  0.1732
 6502TIP3   OH243700   1.464   3.104   9.635  0.1139 -0.1211 -0.6726
 6502TIP3    H143701   1.434   3.016   9.655  2.4558 -1.1908 -1.5028
 6502TIP3    H243702   1.395   3.141   9.579 -1.9895 -0.5097  1.4894
 6503TIP3   OH243703   7.496   2.182   0.939 -0.3673 -0.1476  0.0768
 6503TIP3    H143704   7.494   2.266   0.985 -1.6165 -0.4045  0.5496
 6503TIP3    H243705   7.562   2.194   0.870  0.9215  0.5318  1.3831
 6504TIP3   OH243706   1.394   5.402   0.961 -0.4723 -0.0422  0.3450
 6504TIP3    H143707   1.329   5.376   0.895  2.2382 -2.3747 -1.6467
 6504TIP3    H243708   1.460   5.450   0.912  1.5658 -1.7476  1.2794
 6505TIP3   OH243709   2.471   4.794   2.096  0.1284  0.2975 -0.2013
 6505TIP3    H143710   2.474   4.798   2.191  0.5097  0.2924 -0.2135
 6505TIP3    H243711   2.390   4.747   2.077 -0.2296  0.7759  0.1083
 6506TIP3   OH243712   6.289   3.192   9.524  0.2576  0.0770 -1.1675
 6506TIP3    H143713   6.279   3.100   9.498  0.9927 -0.4000  0.1831
 6506TIP3    H243714   6.374   3.218   9.489 -0.6281  0.7935 -2.9819
 6507TIP3   OH243715   3.968   3.119   9.514 -0.0203  0.3420  0.1057
 6507TIP3    H143716   3.918   3.148   9.438 -0.6858  0.5032  0.5924
 6507TIP3    H243717   4.041   3.180   9.521  1.1161 -0.7688 -1.4905
 6508TIP3   OH243718   4.310   6.679   0.593  0.3029 -0.4641  0.1191
 6508TIP3    H143719   4.254   6.671   0.516 -0.4403 -0.2197  0.6164
 6508TIP3    H243720   4.313   6.590   0.629  1.6973 -0.8585 -0.8748
 6509TIP3   OH243721   4.238   1.388   8.134  0.5795  0.4030  0.1565
 6509TIP3    H143722   4.203   1.306   8.169 -0.2486  0.5873 -0.2056
 6509TIP3    H243723   4.309   1.411   8.194  1.2862 -0.9265 -0.1362
 6510TIP3   OH243724   0.959   4.262   0.287 -0.2709 -0.2508 -0.2987
 6510TIP3    H143725   0.917   4.266   0.373 -0.9397 -2.3344 -0.4610
 6510TIP3    H243726   1.044   4.222   0.304 -0.1729 -0.1482 -0.5464
 6511TIP3   OH243727   2.300   2.365   7.851  0.3702  0.2561  0.7451
 6511TIP3    H143728   2.373   2.310   7.878  1.1980  0.2018 -1.4664
 6511TIP3    H243729   2.232   2.303   7.823  1.5604  0.1884 -2.4316
 6512TIP3   OH243730   5.794   2.605   7.954  0.5166 -0.0990  0.1692
 6512TIP3    H143731   5.858   2.627   8.021 -0.4689  0.3881  0.9739
 6512TIP3    H243732   5.750   2.687   7.935 -0.2845 -0.5388  0.0714
 6513TIP3   OH243733   5.054   2.875   8.310 -0.4395 -0.3819 -0.5904
 6513TIP3    H143734   5.105   2.881   8.391 -0.4317  1.3977 -0.6925
 6513TIP3    H243735   4.975   2.927   8.328 -0.5945 -0.2584 -1.6058
 6514TIP3   OH243736   3.561   1.213   8.978 -0.1085  0.1227  0.2606
 6514TIP3    H143737   3.640   1.162   8.963 -0.0499 -0.3095  1.8935
 6514TIP3    H243738   3.575   1.255   9.063 -0.7254  1.7996 -0.4212
 6515TIP3   OH243739   6.021   7.074   8.350  0.0342 -0.3623  0.1786
 6515TIP3    H143740   6.106   7.030   8.359  0.3696  0.4555  1.3631
 6515TIP3    H243741   6.030   7.153   8.403 -1.3894 -0.1304  0.1133
 6516TIP3   OH243742   5.390   4.961   8.053 -0.4754  0.6068  0.3250
 6516TIP3    H143743   5.420   5.051   8.043 -1.5265  1.0004  0.6841
 6516TIP3    H243744   5.368   4.933   7.964 -1.9472  1.3458  0.4382
 6517TIP3   OH243745   5.523   7.640   9.911  0.6803 -0.1418  0.3876
 6517TIP3    H143746   5.445   7.639   9.965 -0.8367  2.1836 -1.5266
 6517TIP3    H243747   5.515   7.563   9.855 -0.8925  0.6665 -0.5592
 6518TIP3   OH243748   4.893   7.619   0.579  0.5191  0.7506 -0.2613
 6518TIP3    H143749   4.816   7.650   0.626  0.7640  1.7726 -0.5169
 6518TIP3    H243750   4.950   7.585   0.648  0.5211  1.4754  0.1067
 6519TIP3   OH243751   1.872   3.673   8.830  0.2868 -0.1901 -0.4653
 6519TIP3    H143752   1.943   3.609   8.830  1.3015  0.8878  0.6048
 6519TIP3    H243753   1.904   3.743   8.772  0.5463  0.7455  0.7780
 6520TIP3   OH243754   2.489   4.705   2.377 -0.3735 -0.9745  0.2129
 6520TIP3    H143755   2.423   4.771   2.399 -0.9471 -1.0860 -1.0865
 6520TIP3    H243756   2.520   4.673   2.462 -0.7199  0.3239  0.8590
 6521TIP3   OH243757   6.950   6.991   0.442 -0.3706  0.4171  0.0139
 6521TIP3    H143758   7.015   7.057   0.417 -2.5766  2.9085  0.3864
 6521TIP3    H243759   6.865   7.032   0.424 -1.9698 -0.8595  3.5670
 6522TIP3   OH243760   3.529   3.927   1.185  0.1217  0.0935  0.3818
 6522TIP3    H143761   3.589   3.900   1.254 -0.9933  0.1672  1.4134
 6522TIP3    H243762   3.447   3.882   1.205 -0.9225  1.9140  0.4719
 6523TIP3   OH243763   1.337   7.563   0.274 -0.5843  0.0041 -0.0569
 6523TIP3    H143764   1.361   7.483   0.227  0.6465  0.5109 -0.3363
 6523TIP3    H243765   1.389   7.560   0.355 -1.7050 -0.2286  0.6661
 6524TIP3   OH243766   2.087   2.040   0.933 -0.6061  0.5436 -0.1478
 6524TIP3    H143767   2.061   1.950   0.914 -1.8009  0.6580  0.8522
 6524TIP3    H243768   2.014   2.094   0.904 -0.7716  1.0207  1.0881
 6525TIP3   OH243769   5.005   5.034   8.176 -0.2152  0.1178 -0.5981
 6525TIP3    H143770   5.094   5.060   8.153 -0.3071  0.7607 -0.2458
 6525TIP3    H243771   4.992   4.950   8.131  0.8615 -0.4114  0.0252
 6526TIP3   OH243772   3.829   3.084   0.500  0.1508  0.0589 -0.1913
 6526TIP3    H143773   3.848   3.118   0.588 -0.0115  0.0159 -0.1394
 6526TIP3    H243774   3.734   3.075   0.498  0.3091 -2.3849  0.5469
 6527TIP3   OH243775   4.915   3.624   9.640 -0.2726  0.6798  0.2579
 6527TIP3    H143776   5.011   3.622   9.645 -0.2287  2.0258  0.2245
 6527TIP3    H243777   4.886   3.589   9.725  0.2716  1.7580  0.9097
 6528TIP3   OH243778   3.194   7.396   0.187 -0.0990 -0.4591  0.2931
 6528TIP3    H143779   3.170   7.418   0.277 -1.8711 -1.6414  0.1775
 6528TIP3    H243780   3.113   7.408   0.137  1.6603  3.9128 -2.0054
 6529TIP3   OH243781   3.122   1.339   1.888 -0.0200 -1.0107 -0.0368
 6529TIP3    H143782   3.092   1.416   1.937 -0.1647 -1.2014  0.1762
 6529TIP3    H243783   3.141   1.274   1.955  0.7433 -0.9398 -0.1768
 6530TIP3   OH243784   2.169   4.782   8.037  0.7263 -0.3434 -0.3943
 6530TIP3    H143785   2.189   4.703   7.986  0.0525  0.8361 -2.5848
 6530TIP3    H243786   2.151   4.849   7.972 -0.9360  1.0791  1.4124
 6531TIP3   OH243787   3.147   7.540   9.674  0.8258 -0.0807 -0.5103
 6531TIP3    H143788   3.181   7.535   9.763  1.3731 -0.4754 -0.7308
 6531TIP3    H243789   3.226   7.543   9.619  0.4968 -0.3707 -1.0052
 6532TIP3   OH243790   6.498   3.042   7.615 -0.4295 -0.8527  0.0425
 6532TIP3    H143791   6.448   2.966   7.644  0.1617 -0.6811  1.5900
 6532TIP3    H243792   6.524   3.020   7.526 -0.9495 -2.1132  0.1755
 6533TIP3   OH243793   3.410   5.538   6.834  0.2602 -0.0105 -0.2931
 6533TIP3    H143794   3.340   5.475   6.813  1.3069 -0.6521 -2.1384
 6533TIP3    H243795   3.369   5.624   6.821 -0.6489 -0.3326  0.3369
 6534TIP3   OH243796   1.015   3.741   7.296 -0.2117 -0.6486 -0.0077
 6534TIP3    H143797   0.973   3.682   7.234 -0.2025 -0.0426 -0.6027
 6534TIP3    H243798   1.031   3.821   7.246  2.2177 -1.0517 -0.0155
 6535TIP3   OH243799   0.775   4.745   0.149 -0.0933  0.1851 -0.2307
 6535TIP3    H143800   0.837   4.672   0.145 -1.3412 -0.9623  0.4823
 6535TIP3    H243801   0.750   4.760   0.058  0.4170 -0.0584 -0.4163
 6536TIP3   OH243802   0.346   5.023   0.622  0.3818 -0.3566 -0.0131
 6536TIP3    H143803   0.257   5.010   0.653  0.3193  1.5316  0.7193
 6536TIP3    H243804   0.356   5.118   0.613  1.7724 -0.5964 -1.7641
 6537TIP3   OH243805   1.864   6.913   8.173 -0.0603  0.0481 -0.1135
 6537TIP3    H143806   1.824   7.000   8.168 -0.8038 -0.3201 -0.7278
 6537TIP3    H243807   1.940   6.925   8.230 -1.0117  0.7730  1.0444
 6538TIP3   OH243808   2.602   0.687   8.148  0.2046 -0.4905  0.0224
 6538TIP3    H143809   2.565   0.732   8.073  1.1483 -0.9263 -0.7180
 6538TIP3    H243810   2.619   0.598   8.117 -0.1532 -0.9135  0.9924
 6539TIP3   OH243811   1.740   3.355   6.957  0.7034 -0.3550  0.3253
 6539TIP3    H143812   1.677   3.307   7.011 -0.2345  0.7073  0.1971
 6539TIP3    H243813   1.799   3.287   6.925 -0.4026 -1.3919  0.3985
 6540TIP3   OH243814   4.567   6.793   9.587 -0.1732 -0.6798  0.1288
 6540TIP3    H143815   4.562   6.740   9.507 -0.2663  0.8116 -0.8883
 6540TIP3    H243816   4.638   6.854   9.571  0.9885 -1.4673  1.9274
 6541TIP3   OH243817   1.461   3.889   9.381 -0.0103 -0.1312 -0.4338
 6541TIP3    H143818   1.478   3.899   9.287 -4.2542  0.9526 -1.3154
 6541TIP3    H243819   1.506   3.963   9.422  0.6082  0.3175 -1.8652
 6542TIP3   OH243820   7.570   1.092   9.096  0.6098  0.0178 -0.3171
 6542TIP3    H143821   7.534   1.080   9.185  2.1662  2.4458  0.7579
 6542TIP3    H243822   7.632   1.021   9.085 -1.7907 -2.1700 -0.8127
 6543TIP3   OH243823   6.593   0.496   0.578 -0.7018  0.1086  0.4466
 6543TIP3    H143824   6.569   0.514   0.488 -0.5146 -0.0109  0.3728
 6543TIP3    H243825   6.523   0.439   0.611 -0.8481  0.2758  0.4227
 6544TIP3   OH243826   1.557   5.100   8.792  0.1442 -0.1868 -0.1569
 6544TIP3    H143827   1.627   5.038   8.813  0.0091 -0.1081  0.5488
 6544TIP3    H243828   1.597   5.187   8.804 -0.0646 -0.1413  0.2214
 6545TIP3   OH243829   0.136   2.978   0.005  0.1273 -0.2787 -0.4724
 6545TIP3    H143830   0.180   3.033  -0.061  0.6203  0.3627  0.3672
 6545TIP3    H243831   0.045   3.007   0.004  0.5100  1.0683  0.4280
 6546TIP3   OH243832   6.177   0.991   8.532  0.2921  0.0008 -0.3074
 6546TIP3    H143833   6.155   0.922   8.470  1.5118 -0.5017 -0.1994
 6546TIP3    H243834   6.223   1.057   8.480  0.0746  0.2363 -0.2048
 6547TIP3   OH243835   7.213   2.433   9.161  0.2763 -0.1163 -0.1260
 6547TIP3    H143836   7.179   2.383   9.234  0.4457 -0.0877 -0.0263
 6547TIP3    H243837   7.278   2.376   9.120  0.0023 -0.2311 -0.4082
 6548TIP3   OH243838   2.028   7.181   1.501  0.6058 -0.1203 -0.0716
 6548TIP3    H143839   2.069   7.267   1.489  0.0325  0.0972 -0.5588
 6548TIP3    H243840   2.101   7.119   1.505  1.0145  0.3672  0.0809
 6549TIP3   OH243841   1.390   3.385   1.983 -0.0398  0.2091  0.2466
 6549TIP3    H143842   1.371   3.293   2.000 -1.0454  0.1209 -1.1965
 6549TIP3    H243843   1.451   3.384   1.909 -1.5883  0.6929 -1.1076
 6550TIP3   OH243844   4.330   5.650   0.630  0.1524  0.2139 -0.2272
 6550TIP3    H143845   4.410   5.697   0.655 -0.7995  1.3233  0.8457
 6550TIP3    H243846   4.279   5.644   0.711 -1.3948  0.6431 -1.1253
 6551TIP3   OH243847   4.730   5.622   8.662  0.4350  0.4019  0.6884
 6551TIP3    H143848   4.686   5.694   8.707 -0.9307 -0.2585  0.4888
 6551TIP3    H243849   4.694   5.624   8.573 -0.3832 -1.1015  0.9489
 6552TIP3   OH243850   5.503   5.919   9.707  0.2607  0.2662 -0.4176
 6552TIP3    H143851   5.475   5.967   9.785 -0.9388  0.1074 -0.7210
 6552TIP3    H243852   5.482   5.827   9.727  0.2810  0.1814 -0.7861
 6553TIP3   OH243853   7.502   7.257   9.732 -0.5542  0.0727 -0.2892
 6553TIP3    H143854   7.408   7.274   9.739 -0.4824  1.8096 -2.3532
 6553TIP3    H243855   7.508   7.174   9.685 -1.0206 -0.4881  0.6159
 6554TIP3   OH243856   0.237   5.881   9.715  0.2446  0.3943 -0.3906
 6554TIP3    H143857   0.242   5.794   9.676 -1.3794 -0.3721  1.0198
 6554TIP3    H243858   0.319   5.923   9.689  1.9035 -2.1720  0.3597
 6555TIP3   OH243859   4.697   6.221   1.888  0.2604 -0.5856  0.2660
 6555TIP3    H143860   4.636   6.174   1.946 -2.1376 -0.3807 -1.9126
 6555TIP3    H243861   4.666   6.201   1.800  1.6764  1.8140 -0.8730
 6556TIP3   OH243862   3.708   0.430   6.705  0.3858  0.1557 -0.7979
 6556TIP3    H143863   3.713   0.339   6.734  0.4449  0.1635 -0.7831
 6556TIP3    H243864   3.637   0.468   6.758  1.1055  0.4091  0.0052
 6557TIP3   OH243865   3.038   1.751   0.454 -0.0819 -0.1102  0.3136
 6557TIP3    H143866   2.984   1.803   0.513 -0.8170  0.9609 -1.2249
 6557TIP3    H243867   3.111   1.809   0.431 -0.4537 -0.0419 -0.7533
 6558TIP3   OH243868   2.722   4.341   7.755 -0.4399  0.6798 -0.4316
 6558TIP3    H143869   2.755   4.428   7.731 -0.7358  0.6754 -0.8559
 6558TIP3    H243870   2.757   4.326   7.843 -0.6561  1.3661 -0.2238
 6559TIP3   OH243871   3.396   7.068   2.971  0.2178 -0.1378  0.6390
 6559TIP3    H143872   3.446   7.023   3.040 -0.1758 -1.1791  0.2513
 6559TIP3    H243873   3.435   7.156   2.968 -0.2184  0.1907  2.6877
 6560TIP3   OH243874   6.554   1.128   0.594  0.4179 -0.3918 -0.2385
 6560TIP3    H143875   6.510   1.112   0.510  0.6450  2.9051 -1.1172
 6560TIP3    H243876   6.494   1.185   0.642  1.9029  0.8337  0.2372
 6561TIP3   OH243877   0.092   7.486   9.242 -0.0727  0.3338 -0.3474
 6561TIP3    H143878   0.027   7.446   9.184 -0.5955 -1.1967  1.2046
 6561TIP3    H243879   0.062   7.576   9.253  0.5332  0.9757 -3.0790
 6562TIP3   OH243880   2.151   2.591   6.466 -0.2262 -0.6811 -0.0291
 6562TIP3    H143881   2.138   2.556   6.554 -1.3094 -0.7983 -0.2168
 6562TIP3    H243882   2.161   2.685   6.478  1.6646 -0.8973  0.3857
 6563TIP3   OH243883   6.222   2.733   8.785  0.0338 -0.4309  0.3897
 6563TIP3    H143884   6.130   2.738   8.811  0.2387  2.5660  0.8629
 6563TIP3    H243885   6.271   2.758   8.863  1.0759  0.7680 -0.5966
 6564TIP3   OH243886   7.040   2.598   0.728  0.0093 -0.7636 -0.3382
 6564TIP3    H143887   7.116   2.550   0.695  0.6348  0.2485 -0.3758
 6564TIP3    H243888   7.071   2.642   0.807 -0.3174  0.2920 -0.7871
 6565TIP3   OH243889   6.361   2.142   1.263  0.3408  0.5314  0.1029
 6565TIP3    H143890   6.270   2.150   1.232  0.3329  0.0998  0.0078
 6565TIP3    H243891   6.378   2.224   1.307 -0.2708  0.4207  0.5572
 6566TIP3   OH243892   4.748   3.549   7.719  0.3498 -0.2323  0.6763
 6566TIP3    H143893   4.723   3.457   7.722 -2.3705  0.3509 -0.9982
 6566TIP3    H243894   4.711   3.582   7.637 -0.1869  2.7143  1.9609
 6567TIP3   OH243895   6.486   3.064   9.067 -0.0174 -0.5678  0.0343
 6567TIP3    H143896   6.403   3.109   9.083  0.3914  0.7734 -1.2709
 6567TIP3    H243897   6.529   3.119   9.001  1.1010 -2.2213 -0.6668
 6568TIP3   OH243898   0.343   2.518   0.138  0.5590 -0.1997  0.3566
 6568TIP3    H143899   0.405   2.495   0.207 -0.5758 -2.1181  0.8083
 6568TIP3    H243900   0.382   2.484   0.057  1.2334  0.8207  0.2349
 6569TIP3   OH243901   4.400   1.953   1.260 -0.1897 -0.1640 -0.2066
 6569TIP3    H143902   4.474   1.956   1.200  0.5358  0.3069  0.6930
 6569TIP3    H243903   4.408   1.868   1.305  1.8402  1.2680  2.3602
 6570TIP3   OH243904   5.599   5.472   1.867  0.6696 -0.4618  0.1489
 6570TIP3    H143905   5.616   5.531   1.940  0.4202 -0.3598  0.1266
 6570TIP3    H243906   5.517   5.504   1.829  1.1223 -0.1456 -0.5573
 6571TIP3   OH243907   4.993   4.475   2.328 -0.1959  0.1243  0.1593
 6571TIP3    H143908   4.985   4.550   2.388  0.4895  0.0091  0.4077
 6571TIP3    H243909   4.906   4.467   2.288 -0.3473  0.9020  0.3074
 6572TIP3   OH243910   0.227   1.997   0.674  0.2934 -0.2399 -0.3358
 6572TIP3    H143911   0.178   1.957   0.602 -0.9747  0.2627  0.2171
 6572TIP3    H243912   0.295   1.932   0.696 -0.9243 -1.5524 -0.2754
 6573TIP3   OH243913   3.903   0.373   9.936  0.3804 -0.1183 -0.3295
 6573TIP3    H143914   3.922   0.447   9.993 -1.6502  1.4707 -1.5607
 6573TIP3    H243915   3.808   0.360   9.944  0.7599 -3.0888  0.3780
 6574TIP3   OH243916   4.575   3.308   7.781 -0.2325  0.3546  0.5160
 6574TIP3    H143917   4.495   3.310   7.730  0.5534  0.8605 -0.7476
 6574TIP3    H243918   4.607   3.219   7.772 -0.5116  0.2273  0.7895
 6575TIP3   OH243919   6.891   2.700   9.286 -0.4287 -0.4077 -0.4061
 6575TIP3    H143920   6.898   2.662   9.373 -0.2275 -1.0867 -0.7153
 6575TIP3    H243921   6.814   2.658   9.247  0.7195 -1.7098 -1.3326
 6576TIP3   OH243922   6.667   6.697   2.398 -0.0519  0.1799  0.0305
 6576TIP3    H143923   6.703   6.714   2.485  0.9933  0.8707 -0.5195
 6576TIP3    H243924   6.701   6.611   2.374 -2.5323 -1.3014  1.3757
 6577TIP3   OH243925   1.813   6.795   8.559  0.0457  0.1250  0.6117
 6577TIP3    H143926   1.822   6.743   8.479  0.0543 -0.2219  0.8390
 6577TIP3    H243927   1.742   6.753   8.608 -0.6721  0.9525  0.3101
 6578TIP3   OH243928   2.828   6.647   0.011  0.2460  0.2785 -0.0913
 6578TIP3    H143929   2.782   6.563   0.001 -0.9659  0.7882  1.0279
 6578TIP3    H243930   2.842   6.656   0.105  0.7902  1.1221 -0.2469
 6579TIP3   OH243931   1.824   2.023   1.127 -0.3577  0.0306 -0.8098
 6579TIP3    H143932   1.839   1.928   1.131 -1.9579 -0.1977  1.3753
 6579TIP3    H243933   1.882   2.059   1.194  0.2180  0.6319 -1.6094
 6580TIP3   OH243934   7.281   3.994   1.972 -0.0164  0.1566 -0.0828
 6580TIP3    H143935   7.373   4.021   1.974  0.4136 -1.2716  0.0370
 6580TIP3    H243936   7.248   4.013   2.060  0.4282 -0.2329  0.1666
 6581TIP3   OH243937   5.197   2.314   8.515  0.2696  0.1851  0.3723
 6581TIP3    H143938   5.240   2.237   8.478 -0.2604 -0.6945  1.5315
 6581TIP3    H243939   5.264   2.382   8.514  0.5826 -0.1118 -1.1691
 6582TIP3   OH243940   1.830   6.783   7.389 -0.6845  0.0015 -0.6316
 6582TIP3    H143941   1.839   6.861   7.334 -1.6365 -0.0990 -0.9517
 6582TIP3    H243942   1.771   6.810   7.459 -1.1872 -0.4874 -0.8637
 6583TIP3   OH243943   4.987   6.323   2.408  0.3069  0.2451  0.1267
 6583TIP3    H143944   4.919   6.296   2.347  0.8077 -0.2253 -0.2328
 6583TIP3    H243945   4.944   6.385   2.466 -0.3627  0.1412 -0.2510
 6584TIP3   OH243946   6.851   3.013   0.543  0.0280 -0.6731 -0.6414
 6584TIP3    H143947   6.790   3.073   0.587 -1.7135 -0.3416 -3.2391
 6584TIP3    H243948   6.829   2.927   0.577 -1.3144 -0.4456 -0.8682
 6585TIP3   OH243949   4.256   1.623   9.028 -0.1793 -0.8146  0.2091
 6585TIP3    H143950   4.173   1.618   9.074 -1.2123  1.2701 -1.2842
 6585TIP3    H243951   4.316   1.570   9.081 -2.2981 -1.9571  1.5977
 6586TIP3   OH243952   5.545   5.243   1.189 -0.4466 -0.2123 -0.6232
 6586TIP3    H143953   5.595   5.228   1.109  0.3862 -0.0809 -0.1411
 6586TIP3    H243954   5.454   5.246   1.160 -0.1426  0.0498 -1.5989
 6587TIP3   OH243955   7.517   3.601   1.157 -0.1554  0.7164 -0.5007
 6587TIP3    H143956   7.484   3.511   1.167  0.1196  0.7691  1.3279
 6587TIP3    H243957   7.611   3.590   1.144  0.0531  0.7455  0.8549
 6588TIP3   OH243958   1.410   0.029   9.958  0.3282 -0.1982  0.2942
 6588TIP3    H143959   1.361  -0.053   9.952  1.2266 -0.6970 -0.3791
 6588TIP3    H243960   1.493   0.012   9.914  0.9751  0.7469  1.0887
 6589TIP3   OH243961   2.874   1.997   8.912 -0.0467  0.1287 -0.1488
 6589TIP3    H143962   2.792   2.044   8.897 -0.0308  0.0008 -0.6527
 6589TIP3    H243963   2.848   1.905   8.919  0.0127  0.1268  0.0500
 6590TIP3   OH243964   2.591   4.881   7.925 -0.0861  0.0438 -0.0563
 6590TIP3    H143965   2.552   4.873   8.012 -0.4991  1.8290 -0.0221
 6590TIP3    H243966   2.676   4.838   7.933 -1.4699 -2.8631  0.1978
 6591TIP3   OH243967   1.506   5.957   2.549  0.0363 -0.0968 -0.0306
 6591TIP3    H143968   1.443   5.926   2.484  0.3412  0.7316 -0.7390
 6591TIP3    H243969   1.461   6.027   2.596 -0.5442 -1.3400  1.3721
 6592TIP3   OH243970   1.609   4.805   1.573  0.9072 -0.1646  0.3533
 6592TIP3    H143971   1.646   4.892   1.557 -0.9057  0.2394 -2.3667
 6592TIP3    H243972   1.539   4.819   1.637 -1.4875  1.1489 -2.3052
 6593TIP3   OH243973   5.185   0.936   8.771  0.4195  0.1758  0.3950
 6593TIP3    H143974   5.092   0.958   8.761  0.4597  0.2965  0.2906
 6593TIP3    H243975   5.199   0.865   8.708  0.5585  0.6140 -0.0736
 6594TIP3   OH243976   1.928   1.292   2.505 -0.6662  0.1091 -0.4770
 6594TIP3    H143977   1.955   1.368   2.453 -0.6037  0.7283  0.4428
 6594TIP3    H243978   1.833   1.293   2.499 -0.6957  0.6116  0.0134
 6595TIP3   OH243979   3.121   6.706   8.560 -0.2117 -0.1226  0.5275
 6595TIP3    H143980   3.052   6.657   8.605  0.2559  0.3186  1.7918
 6595TIP3    H243981   3.200   6.652   8.572 -0.2616 -0.4926 -0.6688
 6596TIP3   OH243982   0.510   2.596   9.343  0.4706 -0.5064  0.3558
 6596TIP3    H143983   0.549   2.517   9.380 -0.1360  0.2106  2.7014
 6596TIP3    H243984   0.417   2.591   9.368 -0.0083 -0.0104 -1.2087
 6597TIP3   OH243985   1.545   7.000   0.718 -0.2190 -0.2535 -0.0933
 6597TIP3    H143986   1.519   6.913   0.687  0.7206 -1.3536  1.9979
 6597TIP3    H243987   1.501   7.008   0.803  0.0624  1.1569 -0.0667
 6598TIP3   OH243988   4.303   6.040   7.631 -0.1480  0.3824 -0.0021
 6598TIP3    H143989   4.331   5.976   7.697  1.0030 -0.0921 -0.9289
 6598TIP3    H243990   4.270   5.987   7.558  2.9222  0.6730 -1.7398
 6599TIP3   OH243991   6.193   2.899   0.973  0.3798 -0.3080  0.2500
 6599TIP3    H143992   6.278   2.933   0.999 -0.2480  0.1656  1.7934
 6599TIP3    H243993   6.137   2.977   0.965 -0.1674 -0.6931  0.2582
 6600TIP3   OH243994   4.450   5.142   9.266  0.0215 -0.1779  0.1726
 6600TIP3    H143995   4.389   5.082   9.222 -1.4711  0.1381  1.7061
 6600TIP3    H243996   4.529   5.089   9.280 -1.4414 -2.0722  1.9663
 6601TIP3   OH243997   4.420   0.019   2.034  0.0888 -0.8723 -0.0706
 6601TIP3    H143998   4.394  -0.070   2.012  3.3080 -1.5557 -1.6271
 6601TIP3    H243999   4.505   0.031   1.993 -0.9207  3.5617 -1.5178
 6602TIP3   OH244000   4.601   6.556   1.273  0.1088  0.5668  0.2147
 6602TIP3    H144001   4.561   6.629   1.226 -0.0603  0.3423  0.0097
 6602TIP3    H244002   4.528   6.515   1.320  0.2341  0.6379  0.4728
 6603TIP3   OH244003   4.160   6.185   1.443 -0.0255  0.3613  0.2438
 6603TIP3    H144004   4.095   6.136   1.392  0.3347  1.2334 -1.0903
 6603TIP3    H244005   4.244   6.155   1.410  0.2903 -0.6074  1.8227
 6604TIP3   OH244006   6.143   4.921   1.920  0.2235  0.4234 -0.3632
 6604TIP3    H144007   6.155   4.854   1.988  2.5971 -0.6371 -1.7387
 6604TIP3    H244008   6.088   4.879   1.854  1.6322 -0.2035 -1.1797
 6605TIP3   OH244009   7.102   0.363   2.526  0.4376 -0.3374 -0.0714
 6605TIP3    H144010   7.168   0.417   2.570  0.6932  0.0957 -0.9502
 6605TIP3    H244011   7.084   0.410   2.445  0.5276 -1.4885 -0.7739
 6606TIP3   OH244012   4.900   1.292   2.117  0.1043 -0.4954  0.1709
 6606TIP3    H144013   4.901   1.236   2.194 -3.2284 -1.9639 -0.6641
 6606TIP3    H244014   4.970   1.259   2.061  1.0929 -0.8578  1.5890
 6607TIP3   OH244015   5.824   6.266   8.982 -0.0537  0.7055 -0.6041
 6607TIP3    H144016   5.826   6.267   8.886  1.4990  2.0458 -0.5897
 6607TIP3    H244017   5.782   6.349   9.005 -1.0225  0.0945 -0.1044
 6608TIP3   OH244018   1.852   0.207   2.482  0.2376  0.2196  0.6868
 6608TIP3    H144019   1.758   0.224   2.477 -0.0996 -1.4018  0.9820
 6608TIP3    H244020   1.885   0.222   2.393 -0.7177 -1.4392  0.0309
 6609TIP3   OH244021   2.641   5.273   8.247 -0.3678 -0.1019  0.1515
 6609TIP3    H144022   2.551   5.269   8.279 -0.7137 -0.8009 -0.8724
 6609TIP3    H244023   2.647   5.205   8.180  1.4223 -1.3129  1.4368
 6610TIP3   OH244024   6.059   2.064   2.379 -0.4541 -0.0135  0.5897
 6610TIP3    H144025   6.019   2.075   2.292  1.1265 -1.5872 -0.4063
 6610TIP3    H244026   5.995   2.012   2.427 -0.9069 -0.0011  0.0177
 6611TIP3   OH244027   1.493   6.150   0.708 -0.6206  0.1298 -0.5759
 6611TIP3    H144028   1.549   6.182   0.779  0.9274 -1.3314 -1.0637
 6611TIP3    H244029   1.422   6.104   0.753  0.4543 -0.9621  0.0677
 6612TIP3   OH244030   3.353   0.542   6.597 -0.2171  0.2596 -0.4613
 6612TIP3    H144031   3.266   0.531   6.558 -0.5924 -1.8175  0.7576
 6612TIP3    H244032   3.335   0.562   6.689  0.5194 -1.2449  0.0565
 6613TIP3   OH244033   3.000   3.443   8.599  0.1171 -0.1128  0.0764
 6613TIP3    H144034   2.935   3.380   8.631  0.5395 -0.7026 -0.2083
 6613TIP3    H244035   2.983   3.522   8.650 -0.2650 -0.5283  0.6165
 6614TIP3   OH244036   4.771   5.340   9.713 -0.0951 -0.0816  0.5289
 6614TIP3    H144037   4.847   5.282   9.710  0.9978  1.1923  1.8807
 6614TIP3    H244038   4.697   5.284   9.691  1.1182 -1.5881  0.1269
 6615TIP3   OH244039   4.523   6.701   9.036 -0.0871  0.0681  0.5182
 6615TIP3    H144040   4.597   6.694   9.095 -0.2701  1.3776  0.9315
 6615TIP3    H244041   4.475   6.619   9.048  0.7798 -0.3855  0.9384
 6616TIP3   OH244042   6.489   1.704   1.470 -0.2503  0.4188  0.5286
 6616TIP3    H144043   6.537   1.732   1.548 -1.8640 -0.1561  1.7859
 6616TIP3    H244044   6.458   1.616   1.492 -0.4031  0.0832 -0.9338
 6617TIP3   OH244045   3.483   6.997   2.693  0.0254  0.0296  0.3269
 6617TIP3    H144046   3.459   6.993   2.785 -0.8753 -0.2084  0.0901
 6617TIP3    H244047   3.469   6.908   2.660 -1.5170  0.5410 -0.4767
 6618TIP3   OH244048   0.973   1.300   1.935 -0.0086 -0.3577  0.3151
 6618TIP3    H144049   1.030   1.363   1.891 -1.7531 -0.2672 -2.0134
 6618TIP3    H244050   0.947   1.344   2.016  3.0718 -0.3915  1.4610
 6619TIP3   OH244051   0.952   0.378   8.910 -0.0374  0.0803 -0.1068
 6619TIP3    H144052   0.915   0.399   8.996  0.0696  0.2635 -0.1047
 6619TIP3    H244053   0.967   0.463   8.868  0.1502  0.0010 -0.2048
 6620TIP3   OH244054   3.150   4.322   7.226  0.1047  0.1738  0.0529
 6620TIP3    H144055   3.122   4.280   7.145 -0.4339 -0.3963  0.5234
 6620TIP3    H244056   3.232   4.278   7.249  1.2391  1.5952 -1.1356
 6621TIP3   OH244057   5.175   3.515   8.878 -0.1906 -0.0869  0.0426
 6621TIP3    H144058   5.214   3.443   8.828  0.7527  1.0437 -0.9224
 6621TIP3    H244059   5.249   3.573   8.898 -1.1335  1.4261 -0.6499
 6622TIP3   OH244060   0.242   1.277   0.252 -0.1263 -0.2386  0.7713
 6622TIP3    H144061   0.147   1.271   0.251 -0.2151 -0.4011 -2.9002
 6622TIP3    H244062   0.264   1.329   0.175  2.7716 -0.2209  1.4904
 6623TIP3   OH244063   1.822   3.706   9.492 -0.0602 -0.2067 -0.3013
 6623TIP3    H144064   1.820   3.750   9.406 -1.3034  0.4516  0.0413
 6623TIP3    H244065   1.914   3.711   9.519 -0.1527  2.3605 -0.2163
 6624TIP3   OH244066   4.574   1.688   0.105 -0.0324  0.2412 -0.2652
 6624TIP3    H144067   4.528   1.741   0.040 -0.2066  0.9326  0.4114
 6624TIP3    H244068   4.666   1.690   0.076 -0.2869 -0.5606 -1.2188
 6625TIP3   OH244069   4.148   3.048   7.690  1.0410 -0.0262 -0.2804
 6625TIP3    H144070   4.060   3.083   7.678  0.7716 -0.8299 -0.6604
 6625TIP3    H244071   4.158   3.041   7.785  0.5903 -0.2000 -0.2453
 6626TIP3   OH244072   1.922   2.176   0.241  0.3681  0.4722 -0.3574
 6626TIP3    H144073   1.838   2.150   0.278  0.1755 -0.4299 -1.3685
 6626TIP3    H244074   1.920   2.272   0.242  0.1550  0.4773  1.4010
 6627TIP3   OH244075   3.597   4.749   2.075 -0.4649  0.0943 -0.4704
 6627TIP3    H144076   3.671   4.721   2.129 -0.4084  0.9206 -0.1023
 6627TIP3    H244077   3.557   4.667   2.045  0.1647 -0.3662 -0.0825
 6628TIP3   OH244078   1.449   1.574   9.034 -0.3465 -0.2652  0.2765
 6628TIP3    H144079   1.441   1.483   9.062 -0.8541  0.1126  1.4031
 6628TIP3    H244080   1.369   1.616   9.065 -0.4105  0.4417 -0.7779
 6629TIP3   OH244081   3.803   6.386   0.104  0.1493  0.4623 -0.0020
 6629TIP3    H144082   3.869   6.355   0.166  2.2816  2.2885 -1.2069
 6629TIP3    H244083   3.832   6.353   0.019 -1.7248 -0.4753 -0.3295
 6630TIP3   OH244084   1.565   1.119   9.347 -0.3514  0.3299 -0.2423
 6630TIP3    H144085   1.597   1.040   9.392 -1.2739 -0.5046 -1.0001
 6630TIP3    H244086   1.576   1.189   9.411 -1.5138 -0.7933  1.2677
 6631TIP3   OH244087   6.804   7.228   8.097  0.3711  0.3100  0.3071
 6631TIP3    H144088   6.834   7.305   8.146  0.6144 -0.7688  1.9003
 6631TIP3    H244089   6.748   7.181   8.158  0.9574 -1.2645 -0.3234
 6632TIP3   OH244090   1.199   1.260   9.085  0.3902  0.4749  0.1561
 6632TIP3    H144091   1.212   1.185   9.027  1.0510  0.6173  0.1082
 6632TIP3    H244092   1.288   1.285   9.113  0.0977  0.4887  1.1259
 6633TIP3   OH244093   5.183   4.379   8.785  0.1296  0.6779 -0.3097
 6633TIP3    H144094   5.171   4.400   8.877 -0.8218 -0.3040 -0.1990
 6633TIP3    H244095   5.275   4.354   8.778  0.2046  0.7478  0.3779
 6634TIP3   OH244096   2.134   2.195   8.330 -0.0471  0.0575  0.1358
 6634TIP3    H144097   2.201   2.255   8.360  0.6260 -0.0209 -1.1384
 6634TIP3    H244098   2.051   2.242   8.343  0.3818  0.7949  0.2049
 6635TIP3   OH244099   3.401   5.807   8.897  0.0855 -0.0607 -0.3924
 6635TIP3    H144100   3.432   5.719   8.878 -1.3290 -1.0036  1.3043
 6635TIP3    H244101   3.364   5.839   8.815 -0.8419 -1.7244 -0.6536
 6636TIP3   OH244102   5.184   4.620   7.914 -0.0037 -0.9463  0.0178
 6636TIP3    H144103   5.124   4.694   7.917  0.3035 -0.7050  0.1979
 6636TIP3    H244104   5.192   4.592   8.006 -0.4515 -1.4711 -0.0970
 6637TIP3   OH244105   3.821   5.244   0.090  0.5619 -0.4630 -0.1056
 6637TIP3    H144106   3.902   5.294   0.103  1.0666 -0.9958 -1.0406
 6637TIP3    H244107   3.758   5.308   0.059 -0.1907  0.4917  3.0473
 6638TIP3   OH244108   2.501   3.369   9.481  0.4853  0.3605 -0.3599
 6638TIP3    H144109   2.549   3.286   9.473  1.0613  0.6225  0.3116
 6638TIP3    H244110   2.547   3.417   9.550 -0.6722  0.6780  0.2151
 6639TIP3   OH244111   2.874   4.705   0.886 -0.3669 -0.3715  0.1901
 6639TIP3    H144112   2.867   4.801   0.882  1.0633 -0.2545  0.0981
 6639TIP3    H244113   2.784   4.675   0.874 -0.7043  0.9262 -0.8723
 6640TIP3   OH244114   1.916   0.611   1.580 -0.3995 -0.1536  0.0521
 6640TIP3    H144115   1.920   0.681   1.645 -0.8866 -0.5277  0.4964
 6640TIP3    H244116   1.953   0.650   1.500  0.6104  0.1747  0.6639
 6641TIP3   OH244117   4.022   2.792   9.998  0.0103  0.1907 -0.2207
 6641TIP3    H144118   4.021   2.886   9.980  1.6751 -0.3114 -4.0116
 6641TIP3    H244119   4.103   2.778  10.048 -0.2463  0.7371  0.3626
 6642TIP3   OH244120   3.555   1.740   0.002  0.3689 -0.3956 -0.1781
 6642TIP3    H144121   3.543   1.731  -0.093 -1.6133 -1.1959  0.1119
 6642TIP3    H244122   3.487   1.800   0.030 -0.9352 -2.3670  1.1009
 6643TIP3   OH244123   4.141   7.022   7.859 -0.3214  0.1721  0.5726
 6643TIP3    H144124   4.052   7.053   7.878 -0.6253  0.0126 -0.4884
 6643TIP3    H244125   4.160   7.058   7.772 -0.4465 -2.0499 -0.4513
 6644TIP3   OH244126   6.113   0.309   9.950 -0.3363  0.2826 -0.1400
 6644TIP3    H144127   6.135   0.306   9.857  0.9868 -0.5785  0.1836
 6644TIP3    H244128   6.196   0.298   9.996 -0.9286  0.9494  1.1616
 6645TIP3   OH244129   0.518   7.091   9.952 -0.1803 -0.4645  0.1749
 6645TIP3    H144130   0.507   6.999   9.931 -0.6252 -0.6398  1.1168
 6645TIP3    H244131   0.554   7.130   9.872  0.2482 -1.4911 -0.1507
 6646TIP3   OH244132   5.922   2.463   8.717 -0.3340  0.3712 -0.4263
 6646TIP3    H144133   5.982   2.394   8.688 -2.7028 -1.9454 -0.1314
 6646TIP3    H244134   5.880   2.495   8.637  1.7146  2.6140 -0.7465
 6647TIP3   OH244135   2.500   2.670   9.670 -0.2222  0.4634  0.3452
 6647TIP3    H144136   2.432   2.682   9.736  1.1039  0.5849  1.7556
 6647TIP3    H244137   2.462   2.703   9.589 -1.8322  0.4837  1.0832
 6648TIP3   OH244138   0.591   1.675   9.558 -0.5536 -0.1463  0.3904
 6648TIP3    H144139   0.555   1.764   9.551  0.7510  0.3129 -0.9604
 6648TIP3    H244140   0.617   1.667   9.650  1.2091  1.6803  0.1190
 6649TIP3   OH244141   1.543   4.887   9.886  0.0746 -0.4044 -0.0558
 6649TIP3    H144142   1.571   4.924   9.803  0.4469 -0.0987  0.2002
 6649TIP3    H244143   1.592   4.936   9.952  2.2422 -2.7146  0.2050
 6650TIP3   OH244144   1.437   3.925   7.729 -0.3551  0.3220  0.0787
 6650TIP3    H144145   1.404   3.843   7.692 -0.1427  0.8659 -1.4108
 6650TIP3    H244146   1.413   3.991   7.664  1.5797  1.0904  0.0884
 6651TIP3   OH244147   2.648   7.206   1.125  0.0904 -0.0441  0.0851
 6651TIP3    H144148   2.686   7.160   1.051  0.3379 -0.2413  0.3297
 6651TIP3    H244149   2.578   7.150   1.156 -0.1892  0.1665 -0.1661
 6652TIP3   OH244150   1.459   7.077   0.314  0.0974  0.2774 -0.3694
 6652TIP3    H144151   1.426   7.136   0.246  2.2524  0.4011 -1.3963
 6652TIP3    H244152   1.554   7.078   0.303  0.2973 -2.7085  0.1286
 6653TIP3   OH244153   5.829   1.448   2.569  0.2520  0.0061  0.4442
 6653TIP3    H144154   5.858   1.365   2.533 -0.9929 -0.7359  1.0825
 6653TIP3    H244155   5.736   1.436   2.586  0.0611  1.5131  0.6103
 6654TIP3   OH244156   2.060   4.930   7.069 -0.2512  0.4884  0.2507
 6654TIP3    H144157   1.970   4.949   7.044  0.1312  0.3901 -1.2777
 6654TIP3    H244158   2.064   4.950   7.163 -2.5360 -2.0325  1.0147
 6655TIP3   OH244159   6.858   5.922   0.108  0.1748 -0.5207  0.4655
 6655TIP3    H144160   6.783   5.901   0.053 -0.6104  1.9762  0.4524
 6655TIP3    H244161   6.831   5.895   0.196 -1.0908  0.9566  0.5794
 6656TIP3   OH244162   2.908   2.654   9.188 -0.4497  0.0823 -0.0519
 6656TIP3    H144163   2.974   2.613   9.243  1.2692 -1.0292 -2.7089
 6656TIP3    H244164   2.954   2.728   9.148 -1.4400  0.5114 -0.4134
 6657TIP3   OH244165   0.339   7.081   8.810  0.7094 -0.1871 -0.1853
 6657TIP3    H144166   0.246   7.101   8.804  1.0441  1.1076 -1.9949
 6657TIP3    H244167   0.345   6.988   8.791 -0.2628 -0.4899  0.8592
 6658TIP3   OH244168   2.918   0.692   7.552 -0.5720 -0.4550 -0.4812
 6658TIP3    H144169   2.914   0.768   7.610 -0.8546 -0.3233 -0.6703
 6658TIP3    H244170   2.974   0.630   7.598 -1.7318 -0.8289  0.4950
 6659TIP3   OH244171   2.328   7.265   0.133  0.2060 -0.2708 -0.1161
 6659TIP3    H144172   2.257   7.242   0.073 -0.4588 -0.5660  0.7592
 6659TIP3    H244173   2.350   7.355   0.110 -0.4611 -0.1708 -0.4041
 6660TIP3   OH244174   2.617   2.232   0.287  0.0215 -0.7472 -0.0676
 6660TIP3    H144175   2.603   2.139   0.265  0.9695 -0.2802 -3.1542
 6660TIP3    H244176   2.712   2.242   0.288 -0.0742  0.3232 -0.4812
 6661TIP3   OH244177   2.981   6.593   6.539 -0.1671 -0.3194 -0.4147
 6661TIP3    H144178   3.066   6.599   6.583  1.0537 -2.4973 -2.2531
 6661TIP3    H244179   2.982   6.664   6.475  0.0425 -0.0760 -0.1490
 6662TIP3   OH244180   1.315   0.627   8.300 -0.2295 -0.5670  0.1070
 6662TIP3    H144181   1.223   0.652   8.291 -0.1423 -0.0379  0.5988
 6662TIP3    H244182   1.323   0.545   8.252 -1.0202 -0.7497  0.2768
 6663TIP3   OH244183   7.553   3.958   8.993 -0.0775 -0.0679 -0.6450
 6663TIP3    H144184   7.484   3.916   9.046  0.0145  0.1127 -0.3794
 6663TIP3    H244185   7.632   3.949   9.046 -0.1097  0.6836 -0.4614
 6664TIP3   OH244186   2.350   5.067   8.652 -0.3654 -0.2264  0.1287
 6664TIP3    H144187   2.278   5.070   8.714  0.1340 -3.1765  0.9863
 6664TIP3    H244188   2.314   5.025   8.574  0.0930 -0.4898  0.0549
 6665TIP3   OH244189   2.499   2.923   0.201  0.4905 -0.1794 -0.3582
 6665TIP3    H144190   2.547   2.998   0.236  1.6994  0.1546 -2.5458
 6665TIP3    H244191   2.502   2.858   0.272  2.1229  0.7057  0.4563
 6666TIP3   OH244192   1.478   7.248   9.399 -0.3989 -0.0494  0.1637
 6666TIP3    H144193   1.507   7.266   9.488  0.8679 -1.3582  0.0495
 6666TIP3    H244194   1.400   7.302   9.388  0.1027  1.0463  1.6472
 6667TIP3   OH244195   5.225   3.930   9.784 -0.3051  0.2737 -0.6482
 6667TIP3    H144196   5.317   3.922   9.811 -0.3256 -0.3658 -0.7571
 6667TIP3    H244197   5.185   3.986   9.851  0.1904  0.6720 -0.6756
 6668TIP3   OH244198   1.663   4.493   9.599 -0.7168  0.2345  0.4529
 6668TIP3    H144199   1.664   4.443   9.681 -1.8394  0.2348  0.4759
 6668TIP3    H244200   1.574   4.483   9.565 -0.6332  1.2764 -0.1229
 6669TIP3   OH244201   1.997   5.312   0.349  0.3502  0.4559 -0.1629
 6669TIP3    H144202   1.928   5.248   0.335  0.5291  0.3549 -0.5816
 6669TIP3    H244203   1.972   5.388   0.296  0.9535  0.1232 -0.9404
 6670TIP3   OH244204   4.067   2.489   8.064  0.7458  0.1335 -0.2889
 6670TIP3    H144205   4.084   2.570   8.113 -0.3144  1.8225 -2.5359
 6670TIP3    H244206   3.995   2.447   8.111  0.9554  0.7599  0.6152
 6671TIP3   OH244207   5.937   5.661   1.483 -0.0146 -0.4035 -0.4486
 6671TIP3    H144208   5.971   5.625   1.401 -1.0663 -1.3991 -0.4727
 6671TIP3    H244209   5.903   5.585   1.530  0.9781  0.0855  1.1323
 6672TIP3   OH244210   3.884   2.235   1.558 -0.0047  0.6469  0.0686
 6672TIP3    H144211   3.876   2.219   1.652 -0.3840 -0.2162 -0.1061
 6672TIP3    H244212   3.805   2.197   1.520  1.0961 -0.8757 -0.8176
 6673TIP3   OH244213   0.275   3.968   1.855 -0.4798 -0.7375 -0.1561
 6673TIP3    H144214   0.189   3.978   1.896 -0.2462 -1.3742  0.5236
 6673TIP3    H244215   0.308   3.885   1.890  1.0711  0.2351  0.7977
 6674TIP3   OH244216   4.209   4.126   0.158  0.0371  0.2509  0.2556
 6674TIP3    H144217   4.298   4.115   0.125 -0.0613  1.6551 -0.5390
 6674TIP3    H244218   4.166   4.042   0.140  1.4292 -0.7653  1.4887
 6675TIP3   OH244219   0.113   6.304   7.957 -0.0920  0.0276  0.4361
 6675TIP3    H144220   0.077   6.222   7.924  2.2072 -1.8401  2.2433
 6675TIP3    H244221   0.207   6.287   7.966  0.2282  2.3116  2.3903
 6676TIP3   OH244222   0.104   1.012   7.919  0.3551 -0.6283 -0.4584
 6676TIP3    H144223   0.087   0.971   7.834  1.3389 -0.3548 -0.7966
 6676TIP3    H244224   0.018   1.017   7.961 -0.2501 -0.1697 -1.7120
 6677TIP3   OH244225   2.518   1.116   7.381 -0.4690  0.1540  0.0721
 6677TIP3    H144226   2.522   1.190   7.320 -2.0078 -0.1469 -0.4173
 6677TIP3    H244227   2.588   1.058   7.352  0.7101  1.3379  0.4011
 6678TIP3   OH244228   4.801   4.619   9.996 -0.4339  0.7109 -0.6978
 6678TIP3    H144229   4.762   4.662   9.919 -0.0063  2.3619 -0.0297
 6678TIP3    H244230   4.726   4.601  10.053 -0.7301 -0.3476 -1.3943
 6679TIP3   OH244231   4.659   6.500   2.008  0.4776  0.2138 -0.1210
 6679TIP3    H144232   4.683   6.429   1.948  0.5241  0.8078 -0.8244
 6679TIP3    H244233   4.569   6.480   2.034 -0.0669  0.6989 -1.5323
 6680TIP3   OH244234   2.016   3.754   2.467  0.1783 -0.1088  0.4165
 6680TIP3    H144235   2.052   3.762   2.378  0.3936  0.7960  0.5835
 6680TIP3    H244236   2.081   3.796   2.523  0.5320 -1.5441  1.1421
 6681TIP3   OH244237   0.932   6.241   2.079 -0.1615 -0.7389 -0.6341
 6681TIP3    H144238   0.926   6.182   2.154 -3.4619 -0.0865 -0.2118
 6681TIP3    H244239   0.874   6.203   2.013 -1.0072  1.0733 -1.0078
 6682TIP3   OH244240   3.471   3.301   9.481  0.0565  0.4383  0.1628
 6682TIP3    H144241   3.384   3.298   9.521  0.4628  2.8359  1.3993
 6682TIP3    H244242   3.489   3.394   9.468  1.8551 -0.0543 -1.4473
 6683TIP3   OH244243   3.891   2.379   0.929 -0.8453  0.6651  0.0440
 6683TIP3    H144244   3.836   2.454   0.907 -0.1763  1.3110  0.4851
 6683TIP3    H244245   3.876   2.365   1.022 -1.6653 -0.3541 -0.2305
 6684TIP3   OH244246   2.799   3.433   9.084  0.2922  0.0835  0.4406
 6684TIP3    H144247   2.828   3.471   9.167 -1.9271  1.9894  0.4572
 6684TIP3    H244248   2.879   3.420   9.033  1.7311 -1.3687  2.9021
 6685TIP3   OH244249   6.911   6.539   7.563 -0.2755  0.1880 -0.5510
 6685TIP3    H144250   6.882   6.470   7.624  0.0985  0.5088 -0.0014
 6685TIP3    H244251   6.976   6.589   7.613  0.8677 -0.2186 -1.5910
 6686TIP3   OH244252   6.009   3.122   1.204 -0.1882 -0.1704  0.1432
 6686TIP3    H144253   6.095   3.112   1.164  0.1749  0.0062  0.8630
 6686TIP3    H244254   6.022   3.187   1.273 -0.8451 -0.3276  0.4251
 6687TIP3   OH244255   3.998   4.657   0.584 -0.2220  0.2547 -0.3173
 6687TIP3    H144256   4.079   4.704   0.602  0.0100 -0.2900  0.0818
 6687TIP3    H244257   3.977   4.680   0.493  0.9520 -0.4475 -0.7875
 6688TIP3   OH244258   4.603   4.031   1.368  0.0972 -0.0465 -0.0090
 6688TIP3    H144259   4.636   3.942   1.354  0.4689  0.0805  0.0381
 6688TIP3    H244260   4.622   4.048   1.461 -1.1058 -0.3788  0.3148
 6689TIP3   OH244261   6.657   0.568   8.828  0.2852  0.0578 -0.4635
 6689TIP3    H144262   6.672   0.662   8.815 -0.1792 -0.0315 -1.9273
 6689TIP3    H244263   6.600   0.544   8.755  0.3662 -1.3574 -0.0779
 6690TIP3   OH244264   1.894   6.209   9.791  0.6551 -0.1340  0.4174
 6690TIP3    H144265   1.955   6.251   9.852  1.2632  1.1432 -0.9906
 6690TIP3    H244266   1.827   6.275   9.775  0.9142 -0.1457 -0.8347
 6691TIP3   OH244267   4.821   4.886   1.857  0.5774  0.1347 -0.1576
 6691TIP3    H144268   4.824   4.973   1.816 -2.5735  0.8091  0.8044
 6691TIP3    H244269   4.796   4.903   1.948 -2.6509 -1.8166 -0.5440
 6692TIP3   OH244270   6.329   4.994   7.690 -0.4952 -0.3939  0.2961
 6692TIP3    H144271   6.306   4.925   7.628 -0.1439  0.7170 -1.1555
 6692TIP3    H244272   6.391   4.954   7.751 -1.1284 -1.6235  0.1428
 6693TIP3   OH244273   6.159   6.483   0.416  0.2150  0.3617 -0.5918
 6693TIP3    H144274   6.209   6.564   0.406 -0.0602  0.5637 -0.3568
 6693TIP3    H244275   6.069   6.507   0.394 -0.4045  0.8161  2.1302
 6694TIP3   OH244276   1.898   4.917   2.167 -0.0544  0.4263  0.1085
 6694TIP3    H144277   1.984   4.885   2.142 -0.4706 -0.5755 -0.0739
 6694TIP3    H244278   1.856   4.940   2.083 -0.5792 -0.7093  0.0350
 6695TIP3   OH244279   0.203   5.999   8.734 -0.1572 -0.1796  0.1711
 6695TIP3    H144280   0.161   6.058   8.672  0.0599 -0.6319 -0.4139
 6695TIP3    H244281   0.267   6.053   8.780 -0.3104  0.1518 -0.0037
 6696TIP3   OH244282   4.657   5.775   2.398  0.1982  0.0447  0.3728
 6696TIP3    H144283   4.632   5.847   2.455  2.3487  1.4868 -0.3898
 6696TIP3    H244284   4.752   5.767   2.409  0.3983 -0.8994 -1.5359
 6697TIP3   OH244285   4.995   3.231   2.531  0.0762  0.0513  0.4963
 6697TIP3    H144286   4.947   3.313   2.516 -0.2137 -0.1970  0.0090
 6697TIP3    H244287   4.935   3.178   2.583  0.1503  0.0459  0.5744
 6698TIP3   OH244288   2.939   6.122   7.011  0.4564 -0.5498 -0.1861
 6698TIP3    H144289   2.896   6.036   7.020 -0.0747 -0.2246  0.4782
 6698TIP3    H244290   2.869   6.181   6.985  0.7656 -0.2622 -0.3602
 6699TIP3   OH244291   7.453   4.012   0.661 -0.7407  0.3312 -0.9377
 6699TIP3    H144292   7.382   3.951   0.681 -0.5172  0.1044 -0.8086
 6699TIP3    H244293   7.410   4.095   0.642 -0.9788  0.7238  1.0330
 6700TIP3   OH244294   2.705   2.789   8.428  0.7028  0.3168 -0.0724
 6700TIP3    H144295   2.654   2.825   8.500 -1.9515 -0.8085 -1.2670
 6700TIP3    H244296   2.743   2.866   8.385 -1.1557  1.3561  0.0559
 6701TIP3   OH244297   3.270   5.623   6.415  0.3221  0.0490  0.0587
 6701TIP3    H144298   3.198   5.647   6.474 -0.3143 -0.4752 -0.4922
 6701TIP3    H244299   3.298   5.536   6.445 -0.6083 -0.6259 -0.9476
 6702TIP3   OH244300   1.372   3.738   1.520 -0.0023 -0.3503 -0.6307
 6702TIP3    H144301   1.466   3.719   1.517 -0.1484 -1.1764 -0.4175
 6702TIP3    H244302   1.333   3.656   1.551 -0.7098  0.2805  0.1732
 6703TIP3   OH244303   1.167   1.551   9.670 -0.3863  0.2287  1.0326
 6703TIP3    H144304   1.155   1.623   9.732  1.5277 -0.6465  2.5350
 6703TIP3    H244305   1.226   1.587   9.603  0.5432  0.1143  1.7621
 6704TIP3   OH244306   6.056   0.818   8.366 -0.2762 -0.9358 -0.2828
 6704TIP3    H144307   6.091   0.832   8.278  1.9210  0.1533  0.6758
 6704TIP3    H244308   6.055   0.723   8.377 -0.9161 -1.0958 -1.5864
 6705TIP3   OH244309   2.874   2.322   1.415 -1.0560 -0.4168 -0.0738
 6705TIP3    H144310   2.828   2.298   1.334 -0.3524 -0.3666 -0.4953
 6705TIP3    H244311   2.807   2.316   1.483 -1.6520 -0.4864 -0.6554
 6706TIP3   OH244312   6.487   4.118   1.585 -0.0784 -0.2375 -0.2319
 6706TIP3    H144313   6.514   4.195   1.534  0.7126 -0.6976 -0.5347
 6706TIP3    H244314   6.481   4.150   1.675  1.0879 -0.0028 -0.2171
 6707TIP3   OH244315   0.174   2.918   0.597 -0.1489  0.1123  0.2994
 6707TIP3    H144316   0.226   2.954   0.669  0.1770  1.8520 -0.7721
 6707TIP3    H244317   0.225   2.936   0.518 -1.1498 -0.5327 -0.5205
 6708TIP3   OH244318   5.462   2.529   9.028  0.1430 -0.0778 -0.0299
 6708TIP3    H144319   5.440   2.621   9.012  2.3027  0.0693 -2.8760
 6708TIP3    H244320   5.452   2.518   9.123 -2.5318  2.3747  0.1219
 6709TIP3   OH244321   3.125   1.592   0.666  0.3469 -1.1031 -0.0961
 6709TIP3    H144322   3.115   1.629   0.578 -0.7107 -3.0454 -0.8394
 6709TIP3    H244323   3.184   1.653   0.710 -0.8365  1.1322 -1.4133
 6710TIP3   OH244324   1.837   4.943   2.663 -0.4199  0.0583  0.8879
 6710TIP3    H144325   1.884   4.922   2.744  0.1374  0.2354  0.6163
 6710TIP3    H244326   1.792   5.026   2.682  0.1531  0.3834  0.8412
 6711TIP3   OH244327   6.561   6.325   9.471 -0.2706  0.4187 -0.2354
 6711TIP3    H144328   6.655   6.329   9.452  0.1279 -0.3855  1.4332
 6711TIP3    H244329   6.555   6.289   9.559 -2.1259  1.2234  0.0281
 6712TIP3   OH244330   4.815   5.714   9.300 -0.4102  0.3671 -0.4324
 6712TIP3    H144331   4.908   5.722   9.278  0.2406  1.1357  2.2240
 6712TIP3    H244332   4.814   5.660   9.378 -1.8584  2.8365  1.3889
 6713TIP3   OH244333   2.427   2.190   8.929 -0.1060  0.1301 -0.0524
 6713TIP3    H144334   2.414   2.116   8.988 -1.8419 -0.5166 -1.1689
 6713TIP3    H244335   2.521   2.207   8.932  0.3544 -2.1645  0.1843
 6714TIP3   OH244336   2.439   2.794   1.645  0.0037  0.2096  0.1730
 6714TIP3    H144337   2.346   2.785   1.669  0.1214 -0.8394  0.2834
 6714TIP3    H244338   2.486   2.747   1.715  0.5212 -0.4331 -0.5922
 6715TIP3   OH244339   2.814   3.595   7.845  0.1201 -0.3765  0.7433
 6715TIP3    H144340   2.862   3.657   7.901 -0.3317  0.2178  0.4836
 6715TIP3    H244341   2.872   3.520   7.837  0.7718  0.1043  0.8868
 6716TIP3   OH244342   3.092   4.098   9.851 -1.0075 -0.2430  0.4208
 6716TIP3    H144343   3.088   4.066   9.941 -1.9838  0.7229  0.7353
 6716TIP3    H244344   3.177   4.142   9.845  0.4740 -2.9338 -0.0851
 6717TIP3   OH244345   1.369   5.885   7.915 -0.0910 -0.0856 -0.7158
 6717TIP3    H144346   1.433   5.957   7.919  0.6603 -0.6184 -2.4131
 6717TIP3    H244347   1.298   5.914   7.973  0.9864  1.2080  0.0504
 6718TIP3   OH244348   0.371   4.553   0.887  0.2626 -0.0954 -0.2752
 6718TIP3    H144349   0.419   4.586   0.811  2.3475  1.1121  1.4384
 6718TIP3    H244350   0.406   4.464   0.900  0.2044 -0.1492 -0.4848
 6719TIP3   OH244351   4.635   3.636   9.276 -0.3503 -0.1890 -0.4845
 6719TIP3    H144352   4.541   3.646   9.291 -0.5481 -2.3013  0.0914
 6719TIP3    H244353   4.641   3.578   9.200  0.5598  1.9440 -2.1106
 6720TIP3   OH244354   4.217   1.186   9.984  1.0613  0.1646 -0.5367
 6720TIP3    H144355   4.205   1.273  10.024  2.7772 -0.0647  0.5477
 6720TIP3    H244356   4.227   1.127  10.058 -0.0379 -0.9835 -1.2722
 6721TIP3   OH244357   5.059   6.835   7.757 -0.0672  0.3924 -0.2699
 6721TIP3    H144358   5.011   6.884   7.823 -0.1065 -0.4975  0.3837
 6721TIP3    H244359   5.118   6.779   7.807 -1.4907 -1.7665 -0.8763
 6722TIP3   OH244360   1.419   1.686   7.442  0.0077 -0.2554 -0.0281
 6722TIP3    H144361   1.378   1.702   7.527  0.6651 -0.9074  0.4212
 6722TIP3    H244362   1.357   1.630   7.396 -0.5569  0.4638 -0.1585
 6723TIP3   OH244363   1.588   0.194   8.600  0.2491  0.8636 -0.5032
 6723TIP3    H144364   1.612   0.285   8.616  1.3999  0.2068  2.1621
 6723TIP3    H244365   1.656   0.143   8.645 -1.4282 -1.2606 -0.2038
 6724TIP3   OH244366   1.057   5.860   0.221  0.2235  0.1216  0.1537
 6724TIP3    H144367   1.045   5.909   0.302  1.3243 -2.7775  2.2361
 6724TIP3    H244368   1.138   5.811   0.234 -0.6571 -2.0691 -1.7866
 6725TIP3   OH244369   0.597   1.009   0.485 -0.0775 -0.1095 -0.0528
 6725TIP3    H144370   0.571   0.922   0.455  3.3593 -0.9889 -0.9040
 6725TIP3    H244371   0.567   1.013   0.576  0.1354 -2.3778  0.1623
 6726TIP3   OH244372   7.375   7.312   2.318 -0.0603 -0.3495 -0.4691
 6726TIP3    H144373   7.291   7.323   2.274  0.1810 -0.4780 -0.9777
 6726TIP3    H244374   7.375   7.378   2.387  0.0021  0.6152 -1.3575
 6727TIP3   OH244375   3.830   0.420   9.330  0.6296  0.6803  0.1815
 6727TIP3    H144376   3.865   0.508   9.322 -0.0501  1.0817  1.3565
 6727TIP3    H244377   3.786   0.419   9.415 -0.1805 -0.5013 -0.2196
 6728TIP3   OH244378   7.353   7.199   0.986 -0.6118 -0.3676 -0.3038
 6728TIP3    H144379   7.335   7.206   0.893  3.5704  2.8131 -1.1571
 6728TIP3    H244380   7.319   7.280   1.023 -0.7232 -0.8418  0.6757
 6729TIP3   OH244381   6.109   7.141   1.125 -0.2009  0.0426 -0.2962
 6729TIP3    H144382   6.066   7.224   1.143 -0.9968  0.1572 -2.4346
 6729TIP3    H244383   6.085   7.085   1.199 -1.3490  1.0954  0.1634
 6730TIP3   OH244384   1.337   7.037   7.713 -0.1895 -0.8306  0.1237
 6730TIP3    H144385   1.340   6.954   7.761 -1.1854 -0.5893  0.6281
 6730TIP3    H244386   1.250   7.037   7.672 -0.4725  0.2711  0.7005
 6731TIP3   OH244387   0.280   5.068   0.955 -0.4013 -0.3469 -0.2507
 6731TIP3    H144388   0.255   5.154   0.923 -0.4034 -0.6258 -1.0325
 6731TIP3    H244389   0.261   5.070   1.049 -0.0978  0.6043 -0.1997
 6732TIP3   OH244390   7.187   1.371   0.997 -0.1007 -0.1002 -0.1884
 6732TIP3    H144391   7.154   1.460   0.999  0.7883  0.2748 -1.0071
 6732TIP3    H244392   7.131   1.322   1.057 -0.1806  1.1492  0.7849
 6733TIP3   OH244393   1.797   1.159   1.149  0.5835  0.1326 -0.1129
 6733TIP3    H144394   1.733   1.178   1.080 -0.5078  1.0539  1.0959
 6733TIP3    H244395   1.779   1.069   1.174  1.4823 -0.4681 -1.4881
 6734TIP3   OH244396   3.298   2.086   9.190 -0.2776  0.0200 -0.3903
 6734TIP3    H144397   3.348   2.034   9.128  0.3040 -1.1435  1.0109
 6734TIP3    H244398   3.219   2.112   9.141  1.1502  1.0643 -2.3180
 6735TIP3   OH244399   4.561   3.738   1.371 -0.1738  0.2802 -0.2250
 6735TIP3    H144400   4.624   3.674   1.405  1.0215  1.6301  0.2307
 6735TIP3    H244401   4.542   3.709   1.282  0.8338 -0.3654 -0.2441
 6736TIP3   OH244402   7.376   1.587   2.429  0.1709  0.3885  0.2462
 6736TIP3    H144403   7.394   1.677   2.458 -3.4133  1.5337 -0.6075
 6736TIP3    H244404   7.423   1.579   2.346 -0.9710  2.2491 -0.6497
 6737TIP3   OH244405   6.942   5.652   8.780 -0.3079 -0.9133  0.3180
 6737TIP3    H144406   6.955   5.736   8.737 -0.6357 -1.3463 -0.6482
 6737TIP3    H244407   7.011   5.648   8.847  0.6983 -0.5563 -0.6769
 6738TIP3   OH244408   3.436   4.093   9.231  0.6747  0.6774  0.2501
 6738TIP3    H144409   3.351   4.125   9.202  0.7695 -0.2944 -1.1889
 6738TIP3    H244410   3.494   4.108   9.157  1.3059 -0.4400  0.4981
 6739TIP3   OH244411   0.089   3.177   8.525  0.0862  0.7004  0.6417
 6739TIP3    H144412   0.050   3.159   8.611  1.2849  1.6560  1.4131
 6739TIP3    H244413   0.163   3.234   8.544  0.8048  0.3465 -0.9713
 6740TIP3   OH244414   0.163   1.776   8.382  0.0057 -0.4584 -0.2382
 6740TIP3    H144415   0.107   1.718   8.330 -0.9374 -0.3996  0.6825
 6740TIP3    H244416   0.135   1.762   8.473  0.6545  0.4786  0.1216
 6741TIP3   OH244417   6.576   4.388   9.046 -0.1578 -0.4141 -0.0950
 6741TIP3    H144418   6.636   4.316   9.023  0.9655  0.1847  0.8252
 6741TIP3    H244419   6.633   4.464   9.057 -1.5434  1.2257 -3.1647
 6742TIP3   OH244420   0.768   0.376   1.829  0.1704 -0.3698  0.0630
 6742TIP3    H144421   0.679   0.345   1.814 -0.3606  0.2945  1.5901
 6742TIP3    H244422   0.774   0.456   1.775 -0.0067 -0.6408 -0.3665
 6743TIP3   OH244423   7.131   3.558   9.583  0.2982 -0.3740 -0.6399
 6743TIP3    H144424   7.082   3.611   9.645  1.0409  2.6461 -2.4077
 6743TIP3    H244425   7.222   3.585   9.596  0.5068  0.0885 -2.6783
 6744TIP3   OH244426   6.944   1.542   0.946 -0.3284 -0.2000  0.0832
 6744TIP3    H144427   6.892   1.484   0.890 -1.4268 -0.8916  1.7436
 6744TIP3    H244428   6.977   1.609   0.886 -0.0450 -1.8320 -1.6754
 6745TIP3   OH244429   4.497   1.210   0.691  0.3780 -0.0026  0.0806
 6745TIP3    H144430   4.537   1.189   0.607  0.6666  0.4562  0.1016
 6745TIP3    H244431   4.471   1.125   0.727 -0.4393 -0.1461 -0.8076
 6746TIP3   OH244432   5.732   2.836   9.916  0.1316  0.5052  0.3972
 6746TIP3    H144433   5.788   2.910   9.895 -0.3786  0.9986  0.7589
 6746TIP3    H244434   5.649   2.875   9.942 -0.9503 -0.2564 -1.7187
 6747TIP3   OH244435   1.300   0.389   0.316  0.1889 -0.4291 -0.2626
 6747TIP3    H144436   1.353   0.310   0.301  2.5453  0.3051  3.0252
 6747TIP3    H244437   1.234   0.361   0.380  1.1129  0.2113  1.0095
 6748TIP3   OH244438   1.601   7.220   7.060  0.1801  0.3036 -0.1476
 6748TIP3    H144439   1.695   7.237   7.048  0.5461 -0.5150  1.2987
 6748TIP3    H244440   1.559   7.267   6.988  1.4734  3.0169  0.7338
 6749TIP3   OH244441   4.998   7.055   9.640  0.4779 -0.4901 -0.3907
 6749TIP3    H144442   4.996   7.143   9.679  0.1612 -0.4335 -0.5330
 6749TIP3    H244443   4.936   7.060   9.567  1.2212 -0.5269 -1.0477
 6750TIP3   OH244444   3.525   6.476   0.850 -0.0458 -0.2346  0.1898
 6750TIP3    H144445   3.586   6.492   0.778 -1.0309  0.4796 -0.5087
 6750TIP3    H244446   3.568   6.515   0.926  0.9420 -0.8730 -0.0120
 6751TIP3   OH244447   2.122   1.079   9.074  0.0096 -0.1725  0.4809
 6751TIP3    H144448   2.033   1.097   9.042  0.4804 -0.5158 -1.0820
 6751TIP3    H244449   2.179   1.115   9.007  1.0718 -0.1019  1.3989
 6752TIP3   OH244450   3.242   5.371   1.318  0.0235  0.2938 -0.0791
 6752TIP3    H144451   3.329   5.345   1.289 -0.0218 -0.8205  0.7415
 6752TIP3    H244452   3.188   5.370   1.239  0.6119  0.4106 -0.4834
 6753TIP3   OH244453   2.361   4.693   1.729 -0.0959 -0.1644  0.6450
 6753TIP3    H144454   2.434   4.707   1.789 -1.2753  1.8933  1.7301
 6753TIP3    H244455   2.288   4.739   1.770 -1.1379  0.8121 -2.0758
 6754TIP3   OH244456   6.982   3.629   0.033 -0.2043 -0.0753 -0.3865
 6754TIP3    H144457   7.002   3.536   0.038 -1.4845 -0.4767 -1.9209
 6754TIP3    H244458   6.946   3.651   0.119 -1.0760 -1.3186 -0.4138
 6755TIP3   OH244459   5.188   4.765   9.800 -0.0755  0.3562  0.4138
 6755TIP3    H144460   5.167   4.680   9.760  0.7573  0.5566 -0.4914
 6755TIP3    H244461   5.259   4.745   9.862 -2.6539 -0.3163  3.4485
 6756TIP3   OH244462   6.440   2.764   9.472  0.1183 -0.2410 -0.2734
 6756TIP3    H144463   6.533   2.752   9.493  0.5125 -1.6502 -2.4811
 6756TIP3    H244464   6.393   2.730   9.548  1.3716  0.8665  1.0520
 6757TIP3   OH244465   6.867   1.506   8.337  0.4071 -0.1666 -0.0560
 6757TIP3    H144466   6.813   1.511   8.258 -0.3764 -2.5203  0.2247
 6757TIP3    H244467   6.847   1.419   8.374  1.7359  0.3237  2.0143
 6758TIP3   OH244468   4.330   7.530   0.028  0.2073  0.4148  0.1274
 6758TIP3    H144469   4.359   7.452  -0.020 -0.7073 -0.0521  0.3152
 6758TIP3    H244470   4.410   7.580   0.043  1.0663 -1.1857  1.2618
 6759TIP3   OH244471   3.501   1.999   0.749 -0.1605 -0.1437 -0.2815
 6759TIP3    H144472   3.433   2.059   0.780 -1.4451 -1.1005 -1.1430
 6759TIP3    H244473   3.558   1.986   0.825  0.4066  2.4227 -0.1726
 6760TIP3   OH244474   0.467   7.572   0.494 -0.0651  0.1549  0.6331
 6760TIP3    H144475   0.484   7.637   0.562 -0.8142  1.8278 -0.6875
 6760TIP3    H244476   0.432   7.623   0.421  2.2490 -1.3145 -1.6440
 6761TIP3   OH244477   3.144   4.867   8.072  0.4410  0.7365 -0.6045
 6761TIP3    H144478   3.204   4.941   8.082  1.1273  0.1034  0.0779
 6761TIP3    H244479   3.197   4.790   8.089 -0.8311  0.2127  1.4478
 6762TIP3   OH244480   6.412   4.035   2.016 -0.0004  0.4840 -0.7871
 6762TIP3    H144481   6.333   4.081   2.046  0.9672  1.8710 -0.2820
 6762TIP3    H244482   6.466   4.025   2.095  1.0984  1.1631 -1.4246
 6763TIP3   OH244483   4.873   2.963   2.138 -0.0760  0.2772 -0.0459
 6763TIP3    H144484   4.896   3.021   2.211 -0.0276  0.2399 -0.0319
 6763TIP3    H244485   4.932   2.889   2.146 -0.4605 -0.0030  0.2215
 6764TIP3   OH244486   1.525   6.306   9.550 -0.2803  0.8051  0.0842
 6764TIP3    H144487   1.551   6.316   9.458 -1.2480 -0.1024 -0.3223
 6764TIP3    H244488   1.430   6.292   9.546 -0.3008  0.5424  1.2082
 6765TIP3   OH244489   0.504   4.090   2.609  0.3127  0.2490 -0.1034
 6765TIP3    H144490   0.428   4.123   2.561 -0.8035 -0.5735  1.0414
 6765TIP3    H244491   0.513   4.000   2.581  0.8912  0.3514 -0.2545
 6766TIP3   OH244492   0.439   1.835   8.885  0.1283  0.1767 -0.4254
 6766TIP3    H144493   0.507   1.843   8.819  0.9496  0.6950  0.4637
 6766TIP3    H244494   0.412   1.925   8.904 -1.2383 -0.0393 -1.1791
 6767TIP3   OH244495   4.937   5.505   0.124  0.1474  0.8301  0.4998
 6767TIP3    H144496   5.001   5.570   0.093 -0.5626  0.6048 -1.6014
 6767TIP3    H244497   4.869   5.505   0.057 -0.9435 -0.5656  1.5507
 6768TIP3   OH244498   2.056   2.273   1.849  0.6444  0.4432 -0.1745
 6768TIP3    H144499   2.022   2.305   1.932  0.0542  1.5532 -0.8191
 6768TIP3    H244500   2.149   2.258   1.865  0.4305  0.1506  0.8166
 6769TIP3   OH244501   1.304   6.311   8.296 -0.0937  0.1461 -0.1041
 6769TIP3    H144502   1.395   6.289   8.313  0.5672  2.2601 -0.5920
 6769TIP3    H244503   1.295   6.401   8.329 -2.1375 -0.1917  0.3705
 6770TIP3   OH244504   4.776   2.834   7.694  0.0618  0.2470  0.5420
 6770TIP3    H144505   4.696   2.782   7.682 -0.2723  0.6435  1.0233
 6770TIP3    H244506   4.838   2.796   7.632 -0.4893 -0.0847  0.1778
 6771TIP3   OH244507   6.575   4.076   9.870  0.2876 -0.2193 -0.3991
 6771TIP3    H144508   6.648   4.061   9.931 -0.0917  2.6798  0.9592
 6771TIP3    H244509   6.617   4.096   9.787  0.8654 -2.5447 -0.7321
 6772TIP3   OH244510   4.709   4.074   2.341 -0.7742  0.3951  0.1746
 6772TIP3    H144511   4.749   4.050   2.425  1.1821  0.2016 -0.7717
 6772TIP3    H244512   4.760   4.148   2.310  0.1366 -1.0421 -1.9676
 6773TIP3   OH244513   6.468   1.598   9.279  0.1427  0.3655  0.0130
 6773TIP3    H144514   6.421   1.647   9.211 -0.3859  2.6109  1.8755
 6773TIP3    H244515   6.559   1.599   9.251 -0.2119  0.2377 -1.2146
 6774TIP3   OH244516   4.836   4.624   1.651 -0.6841  0.0864 -0.8299
 6774TIP3    H144517   4.895   4.674   1.594 -0.7926  0.5735 -0.5211
 6774TIP3    H244518   4.748   4.647   1.621 -0.7735  1.1642  0.1944
 6775TIP3   OH244519   6.131   0.560   0.136  0.0461 -0.3927  0.2225
 6775TIP3    H144520   6.105   0.469   0.121 -0.3675 -0.3154  0.4567
 6775TIP3    H244521   6.216   0.568   0.093 -0.6958 -0.4091 -1.2879
 6776TIP3   OH244522   4.885   1.731   0.993  0.1187 -0.1209  0.0907
 6776TIP3    H144523   4.852   1.681   0.918  0.5635 -3.1134  1.7423
 6776TIP3    H244524   4.921   1.811   0.954  0.1304 -1.4348 -2.8650
 6777TIP3   OH244525   3.227   2.793   0.779 -0.3209  0.1975 -0.6734
 6777TIP3    H144526   3.211   2.858   0.848 -2.0781 -0.6661 -0.2283
 6777TIP3    H244527   3.314   2.758   0.799 -0.8153 -0.0817  1.1642
 6778TIP3   OH244528   0.521   1.405   9.537  0.3155  0.0933  0.2700
 6778TIP3    H144529   0.443   1.416   9.591  0.4989 -0.0109  0.5552
 6778TIP3    H244530   0.540   1.492   9.503 -2.3876 -0.4438 -3.2514
 6779TIP3   OH244531   5.229   3.739   0.070  0.3806  0.0950 -0.4840
 6779TIP3    H144532   5.273   3.696  -0.003 -0.3477 -1.3839 -0.0927
 6779TIP3    H244533   5.137   3.741   0.045  0.3932  1.4547 -0.4834
 6780TIP3   OH244534   7.202   3.340   7.713  0.1220  0.0472  0.2261
 6780TIP3    H144535   7.223   3.249   7.693 -0.2063  0.2649 -1.2294
 6780TIP3    H244536   7.116   3.337   7.754  0.2702 -0.3161  0.5169
 6781TIP3   OH244537   6.414   3.379   9.718 -0.1542 -0.0025 -0.1739
 6781TIP3    H144538   6.336   3.359   9.666 -0.0567  0.7959 -0.6510
 6781TIP3    H244539   6.388   3.454   9.772  0.5584  0.9139 -1.0513
 6782TIP3   OH244540   0.727   3.450   8.460  0.8774 -0.6405  0.5476
 6782TIP3    H144541   0.694   3.451   8.550 -0.5298 -2.4536  0.1149
 6782TIP3    H244542   0.668   3.508   8.412  0.1846 -1.4904  0.3607
 6783TIP3   OH244543   4.062   3.227   7.031 -0.8363  0.1808 -0.6396
 6783TIP3    H144544   4.052   3.249   6.938 -0.8840 -3.6227 -1.6869
 6783TIP3    H244545   4.150   3.259   7.053 -0.6285  0.7119 -2.1171
 6784TIP3   OH244546   3.853   7.680   0.581 -0.4924  0.1894  0.0442
 6784TIP3    H144547   3.923   7.614   0.586  1.0437  1.7877  0.6853
 6784TIP3    H244548   3.788   7.650   0.644  0.9256  0.0865  1.5145
 6785TIP3   OH244549   1.352   6.645   6.451 -0.0343  0.6201  0.0061
 6785TIP3    H144550   1.410   6.708   6.410 -0.5896  2.0935  1.3827
 6785TIP3    H244551   1.391   6.628   6.537  0.0127 -0.8066 -0.2680
 6786TIP3   OH244552   1.702   1.549   8.431 -0.0816 -0.2992 -0.2071
 6786TIP3    H144553   1.644   1.545   8.508  0.1336  1.3665  0.0854
 6786TIP3    H244554   1.644   1.534   8.357 -0.9574  1.4091  0.0773
 6787TIP3   OH244555   1.675   2.434   9.940  0.7865  0.1915  0.2857
 6787TIP3    H144556   1.649   2.510   9.889 -0.4726 -0.7312 -0.4929
 6787TIP3    H244557   1.641   2.451  10.028  0.4453  0.4995  0.0967
 6788TIP3   OH244558   1.955   6.096   7.012 -0.1115 -0.2992  0.0932
 6788TIP3    H144559   1.860   6.096   7.019 -0.0143 -0.9506  2.5286
 6788TIP3    H244560   1.978   6.005   6.993  0.0369 -0.0245 -1.1493
 6789TIP3   OH244561   4.455   7.248   1.249  0.5615 -0.8012  0.5460
 6789TIP3    H144562   4.474   7.163   1.208 -0.0120 -0.8632  0.3976
 6789TIP3    H244563   4.527   7.305   1.220  0.7713 -1.1460  0.3774
 6790TIP3   OH244564   5.183   6.475   7.703 -0.2085 -0.1312 -0.2697
 6790TIP3    H144565   5.143   6.496   7.619 -1.0739 -1.3929 -0.2031
 6790TIP3    H244566   5.193   6.380   7.701  0.6407 -0.0744  0.6814
 6791TIP3   OH244567   7.359   2.991   0.929 -0.4809  0.2994 -0.4288
 6791TIP3    H144568   7.412   3.070   0.940 -1.9301  1.1115  1.3611
 6791TIP3    H244569   7.402   2.925   0.983  0.2610  0.0761 -1.2614
 6792TIP3   OH244570   5.805   2.625   1.117 -0.0933  0.1071  0.5611
 6792TIP3    H144571   5.847   2.663   1.194  0.7413  0.1325  0.1125
 6792TIP3    H244572   5.840   2.676   1.043  3.5892 -3.3183 -0.4304
 6793TIP3   OH244573   4.570   2.935   8.255  0.0587 -1.1123  0.3916
 6793TIP3    H144574   4.517   2.859   8.235 -0.7466 -0.2995 -0.6855
 6793TIP3    H244575   4.659   2.901   8.265 -0.0341 -2.0312 -1.4890
 6794TIP3   OH244576   5.926   7.394   9.534 -0.5051 -0.5060 -0.0932
 6794TIP3    H144577   5.872   7.470   9.514 -1.9264 -2.2689 -3.8744
 6794TIP3    H244578   6.002   7.402   9.477  0.2546 -1.0585  0.8053
 6795TIP3   OH244579   1.097   1.399   1.698 -0.2315 -0.1859 -0.2381
 6795TIP3    H144580   1.067   1.316   1.660 -1.9785  0.8525 -1.3006
 6795TIP3    H244581   1.028   1.461   1.674  0.7844  1.4637  0.9750
 6796TIP3   OH244582   3.525   4.816   9.313 -0.2819  0.4047 -0.3074
 6796TIP3    H144583   3.607   4.835   9.358  0.8009 -0.1528 -1.9249
 6796TIP3    H244584   3.463   4.881   9.347  0.7845  0.7646  1.0374
 6797TIP3   OH244585   0.650   3.790   1.832  0.2586 -0.8045 -0.0608
 6797TIP3    H144586   0.735   3.823   1.862 -0.3138  0.8078 -0.0975
 6797TIP3    H244587   0.608   3.759   1.912  0.0332  0.4406  0.3255
 6798TIP3   OH244588   5.698   3.304   1.648 -0.0858 -0.2942 -0.1947
 6798TIP3    H144589   5.678   3.211   1.658 -3.2284  0.0885 -1.6877
 6798TIP3    H244590   5.736   3.311   1.561 -1.3884 -0.0478 -0.7700
 6799TIP3   OH244591   3.405   5.226   2.013  0.2185 -0.8146  0.2214
 6799TIP3    H144592   3.442   5.140   2.032 -0.4277 -0.6406  2.6514
 6799TIP3    H244593   3.429   5.279   2.089  1.4518  1.4818 -1.6395
 6800TIP3   OH244594   2.144   1.300   2.684 -0.1180  0.0879  0.0132
 6800TIP3    H144595   2.065   1.295   2.630  0.7662  0.5534 -1.3858
 6800TIP3    H244596   2.212   1.328   2.624  1.1270 -0.2886  1.1969
 6801TIP3   OH244597   5.855   4.421   1.189 -0.1629  0.0626 -0.6201
 6801TIP3    H144598   5.792   4.467   1.243 -2.4579 -1.6296 -1.7024
 6801TIP3    H244599   5.932   4.411   1.245 -0.0680  3.7867  0.1283
 6802TIP3   OH244600   0.731   1.068   1.516 -0.4742 -0.2704 -0.1859
 6802TIP3    H144601   0.736   1.125   1.593 -1.0637  0.4041 -0.6325
 6802TIP3    H244602   0.798   1.002   1.531 -0.5886 -0.1635  0.9164
 6803TIP3   OH244603   0.837   2.394   1.933  0.0597 -0.2260 -0.1301
 6803TIP3    H144604   0.895   2.329   1.893 -0.1031 -1.8401  2.0566
 6803TIP3    H244605   0.889   2.432   2.005 -1.5879 -1.9980  2.1369
 6804TIP3   OH244606   6.955   1.972   8.080  0.3716  0.0694 -0.3348
 6804TIP3    H144607   6.940   2.052   8.131  2.9506 -0.2045  0.9982
 6804TIP3    H244608   6.868   1.931   8.076 -0.6953  2.0853  0.3852
 6805TIP3   OH244609   3.773   3.981   0.912  0.2764 -0.2085 -0.0032
 6805TIP3    H144610   3.798   3.995   1.003  0.5740 -1.2418  0.0834
 6805TIP3    H244611   3.849   4.008   0.861  0.6101 -0.8850  0.1288
 6806TIP3   OH244612   6.420   1.432   1.552 -0.1213 -0.0621  0.6268
 6806TIP3    H144613   6.327   1.425   1.573  0.0812 -1.5598  1.1112
 6806TIP3    H244614   6.446   1.343   1.527  1.0091  0.4873 -0.2461
 6807TIP3   OH244615   3.300   7.564   8.673 -0.0521  0.3762 -0.7020
 6807TIP3    H144616   3.287   7.541   8.581 -2.2998  1.0508 -0.5988
 6807TIP3    H244617   3.303   7.659   8.674 -2.3726  0.5117  0.1054
 6808TIP3   OH244618   1.060   2.127   1.101  0.4055 -0.0672  0.0877
 6808TIP3    H144619   1.074   2.221   1.108  1.9177 -0.3674  1.5653
 6808TIP3    H244620   1.117   2.089   1.167  2.6593 -2.2786 -2.8922
 6809TIP3   OH244621   2.123   3.332   8.339 -0.7407  0.1859  0.8848
 6809TIP3    H144622   2.208   3.355   8.302 -0.0190 -2.1296  1.0036
 6809TIP3    H244623   2.067   3.317   8.263 -0.6337  0.2234  0.7983
 6810TIP3   OH244624   4.476   2.982   1.689  0.2341  0.3351  0.3149
 6810TIP3    H144625   4.509   2.932   1.614  0.6438  0.3608  0.4740
 6810TIP3    H244626   4.395   2.938   1.714  0.5868 -0.2470  0.4507
 6811TIP3   OH244627   3.195   5.788   1.596 -0.1129 -0.3817 -0.4906
 6811TIP3    H144628   3.189   5.787   1.501  1.0716  1.0417 -0.6109
 6811TIP3    H244629   3.271   5.735   1.617 -0.4544 -0.8099 -0.3183
 6812TIP3   OH244630   7.413   7.520   0.872 -0.2221  0.3183  0.2748
 6812TIP3    H144631   7.339   7.574   0.844 -0.9953 -0.2292  1.1701
 6812TIP3    H244632   7.410   7.524   0.968 -0.7447 -1.8530  0.3917
 6813TIP3   OH244633   4.389   1.196   7.305  0.0903 -0.4876 -0.0541
 6813TIP3    H144634   4.324   1.210   7.374  0.0191  0.7409 -0.3486
 6813TIP3    H244635   4.470   1.231   7.341 -0.1466  1.0352 -0.9083
 6814TIP3   OH244636   6.463   1.035   0.047  0.4277 -0.4611 -0.1559
 6814TIP3    H144637   6.414   1.105   0.004  0.7240 -0.9218 -1.2957
 6814TIP3    H244638   6.405   0.960   0.045  0.3612 -0.4289  0.4650
 6815TIP3   OH244639   2.408   7.529   7.989 -0.5031  0.4559  0.5837
 6815TIP3    H144640   2.395   7.539   7.895  0.5291  0.2052  0.4004
 6815TIP3    H244641   2.333   7.574   8.029 -0.1808  1.8795 -0.3320
 6816TIP3   OH244642   4.489   7.101   9.475 -0.4324 -0.6687  0.0809
 6816TIP3    H144643   4.528   7.186   9.454 -1.9876 -0.2408 -1.2743
 6816TIP3    H244644   4.535   7.073   9.554  0.5326  1.1451  0.2299
 6817TIP3   OH244645   4.392   5.923   1.636 -0.0106 -0.6163 -0.1818
 6817TIP3    H144646   4.374   5.968   1.718  3.0619 -1.0218  0.8588
 6817TIP3    H244647   4.350   5.977   1.569 -0.9495  0.8065  1.4822
 6818TIP3   OH244648   0.321   7.433   9.046  0.0304 -0.1182  0.1911
 6818TIP3    H144649   0.258   7.438   9.118  0.6517  1.9669  0.6626
 6818TIP3    H244650   0.375   7.356   9.066 -0.7412 -0.4317  1.1511
 6819TIP3   OH244651   6.417   2.921   0.200  0.0521 -0.2268  0.0299
 6819TIP3    H144652   6.476   2.933   0.274 -0.0480  0.7814 -0.0363
 6819TIP3    H244653   6.394   2.828   0.201 -0.0761 -0.1900  1.3644
 6820TIP3   OH244654   1.158   2.198   6.764  0.0635 -0.2144 -0.0684
 6820TIP3    H144655   1.144   2.104   6.764  0.7123 -0.3246  1.3911
 6820TIP3    H244656   1.220   2.214   6.835  0.1684  1.2832 -0.4573
 6821TIP3   OH244657   7.376   7.467   1.143  0.3469 -0.3038  0.3364
 6821TIP3    H144658   7.468   7.443   1.149  0.6786  0.4256 -1.3330
 6821TIP3    H244659   7.340   7.445   1.229  2.0038 -0.8559  0.9270
 6822TIP3   OH244660   4.544   7.582   2.425 -0.0567 -0.3610  0.1367
 6822TIP3    H144661   4.636   7.580   2.397 -0.4134 -2.0194 -1.0963
 6822TIP3    H244662   4.548   7.583   2.520  1.2457  0.3305  0.0943
 6823TIP3   OH244663   1.260   0.176   2.344 -0.2640  0.3521  0.5308
 6823TIP3    H144664   1.214   0.156   2.262  1.1091  0.0835 -0.2185
 6823TIP3    H244665   1.201   0.147   2.413 -1.7882  1.2728 -0.3331
 6824TIP3   OH244666   0.994   6.548   0.508 -0.4337  0.6720  0.4844
 6824TIP3    H144667   0.931   6.562   0.437 -0.2021  1.4050  0.4118
 6824TIP3    H244668   0.960   6.473   0.556 -1.4531  1.1430  0.5367
 6825TIP3   OH244669   7.230   6.403   9.509  0.0947 -0.6837 -0.2922
 6825TIP3    H144670   7.174   6.411   9.587 -0.4950  0.3509 -0.7902
 6825TIP3    H244671   7.318   6.392   9.544  0.3107  2.8219  0.6496
 6826TIP3   OH244672   2.783   2.702   8.698  0.3252  0.3752 -0.4319
 6826TIP3    H144673   2.712   2.692   8.761  0.8311  1.3969  0.3381
 6826TIP3    H244674   2.739   2.718   8.615 -0.3513  0.5484 -0.0530
 6827TIP3   OH244675   2.485   2.748   0.403 -0.3011  0.3506 -0.4305
 6827TIP3    H144676   2.507   2.789   0.486 -3.5392 -0.0755  0.7911
 6827TIP3    H244677   2.516   2.658   0.411 -2.8099 -0.4696  1.5454
 6828TIP3   OH244678   2.600   0.115   9.932  0.2230  0.5943 -0.1149
 6828TIP3    H144679   2.594   0.149   9.842 -0.5028 -2.1793 -1.2135
 6828TIP3    H244680   2.685   0.072   9.936 -0.8172 -1.6024 -0.4249
 6829TIP3   OH244681   3.250   5.315   8.290 -0.1506 -0.3744 -0.2158
 6829TIP3    H144682   3.287   5.388   8.241 -1.4702  0.0874 -0.5673
 6829TIP3    H244683   3.284   5.237   8.246 -0.5248  0.0357 -1.2601
 6830TIP3   OH244684   0.899   2.212   0.871 -0.3292 -0.8084 -0.2596
 6830TIP3    H144685   0.946   2.165   0.940  0.3337 -1.0552 -0.8750
 6830TIP3    H244686   0.898   2.152   0.797 -0.4160 -0.2728 -0.7019
 6831TIP3   OH244687   2.600   1.688   9.168  0.2696 -0.3353  0.1611
 6831TIP3    H144688   2.599   1.597   9.197  0.2061 -0.2548  0.4200
 6831TIP3    H244689   2.562   1.736   9.242  1.0852  0.0036  0.3660
 6832TIP3   OH244690   6.218   5.556   8.180 -0.4670  0.7161 -0.2750
 6832TIP3    H144691   6.262   5.576   8.098  1.5834 -1.4806  0.1849
 6832TIP3    H244692   6.213   5.460   8.183 -1.8310  0.7779  1.4974
 6833TIP3   OH244693   7.320   2.073   0.354 -0.3071  0.2866  0.1745
 6833TIP3    H144694   7.352   2.042   0.439 -1.1517 -2.2266 -0.3405
 6833TIP3    H244695   7.248   2.132   0.376  0.1251  0.4549  1.2122
 6834TIP3   OH244696   0.298   6.380   1.389  0.1147  0.3471  0.4752
 6834TIP3    H144697   0.222   6.355   1.441  0.2173  0.7160  0.8073
 6834TIP3    H244698   0.350   6.300   1.383 -1.1746 -0.4173 -1.3023
 6835TIP3   OH244699   6.889   1.399   9.409  0.1264  0.1862 -0.2518
 6835TIP3    H144700   6.895   1.415   9.314 -1.2858  1.1725 -0.2174
 6835TIP3    H244701   6.878   1.486   9.447 -2.5752 -0.3899  0.4877
 6836TIP3   OH244702   3.121   4.855   9.165  0.0919  0.0317  0.3971
 6836TIP3    H144703   3.199   4.800   9.168  0.2303  0.1442 -0.5788
 6836TIP3    H244704   3.050   4.795   9.143 -0.3273 -0.2736  2.4482
 6837TIP3   OH244705   1.054   7.341   7.158 -0.3649  0.6308 -0.2808
 6837TIP3    H144706   1.013   7.404   7.099 -0.7498  0.4489 -0.2092
 6837TIP3    H244707   1.126   7.389   7.199  0.4451  0.5272 -1.5141
 6838TIP3   OH244708   0.308   7.428   1.259  0.0502  0.5184 -0.0796
 6838TIP3    H144709   0.281   7.352   1.310  0.5242  1.0150  0.9390
 6838TIP3    H244710   0.336   7.392   1.174 -0.0207 -0.4036  0.2806
 6839TIP3   OH244711   3.297   7.165   9.703  0.0485  0.1130 -0.8562
 6839TIP3    H144712   3.234   7.177   9.774  0.9543  1.4746 -0.2525
 6839TIP3    H244713   3.377   7.136   9.747  0.3135 -0.0560 -1.4387
 6840TIP3   OH244714   0.063   7.201   9.049 -0.4451 -0.2500  0.0540
 6840TIP3    H144715   0.029   7.289   9.031  3.2422  1.4128  0.4631
 6840TIP3    H244716   0.077   7.163   8.962 -1.9846 -0.4988 -0.1240
 6841TIP3   OH244717   7.524   1.372   9.502  0.0174 -1.0965  0.6293
 6841TIP3    H144718   7.556   1.283   9.489  0.4442 -0.9075  0.3674
 6841TIP3    H244719   7.430   1.366   9.486  0.1455 -1.3673 -0.0546
 6842TIP3   OH244720   3.015   1.762   3.046 -0.2039  0.0061 -0.1012
 6842TIP3    H144721   3.029   1.708   3.124 -0.3839 -1.2719 -0.9246
 6842TIP3    H244722   2.953   1.712   2.993  0.2746  0.6226 -1.2745
 6843TIP3   OH244723   7.108   5.301   1.500 -0.5711  0.2451 -0.4434
 6843TIP3    H144724   7.020   5.280   1.531 -1.1621  0.2180 -2.0465
 6843TIP3    H244725   7.160   5.223   1.521 -1.1559 -0.1222 -0.3333
 6844TIP3   OH244726   3.301   6.200   0.417 -0.0111  0.1688  0.2670
 6844TIP3    H144727   3.326   6.131   0.479  0.4394 -0.1565 -0.2704
 6844TIP3    H244728   3.385   6.233   0.383 -0.2608  0.0741 -0.4606
 6845TIP3   OH244729   2.960   1.168   8.793 -0.7373  0.3412 -0.0635
 6845TIP3    H144730   2.960   1.238   8.857 -1.6927 -0.5269  0.9270
 6845TIP3    H244731   2.930   1.210   8.712  2.4378  1.9195 -0.6075
 6846TIP3   OH244732   0.760   3.261   9.303  0.1951  0.4116 -0.2604
 6846TIP3    H144733   0.703   3.320   9.351  1.7355  1.8135 -0.0780
 6846TIP3    H244734   0.803   3.316   9.238  0.0829 -0.9458 -1.5569
 6847TIP3   OH244735   1.472   5.288   2.527 -0.9528  0.0229 -0.3032
 6847TIP3    H144736   1.546   5.305   2.470 -0.9814  0.7298 -0.1465
 6847TIP3    H244737   1.477   5.356   2.594 -0.7325 -0.9809  0.7315
 6848TIP3   OH244738   1.843   0.428   9.126  0.0400  0.3321 -0.2003
 6848TIP3    H144739   1.784   0.475   9.067  1.3455  0.5823 -1.3794
 6848TIP3    H244740   1.925   0.477   9.121  1.0352 -1.2790 -0.3727
 6849TIP3   OH244741   0.803   7.028   2.865  0.3856 -0.5830 -0.2459
 6849TIP3    H144742   0.742   7.092   2.829  0.2776 -0.3252  0.3710
 6849TIP3    H244743   0.758   6.993   2.942  1.0647 -0.2818  0.3010
 6850TIP3   OH244744   6.238   6.033   8.065 -0.0152  0.1556  0.2515
 6850TIP3    H144745   6.310   5.989   8.111  0.8827  0.9669 -0.3348
 6850TIP3    H244746   6.170   6.043   8.131  0.7739  0.2039  1.0737
 6851TIP3   OH244747   3.170   5.619   9.577 -0.4358  0.2661 -0.4090
 6851TIP3    H144748   3.113   5.676   9.525 -2.3405 -2.0290 -1.0201
 6851TIP3    H244749   3.242   5.597   9.518 -0.7004  0.5021 -0.8238
 6852TIP3   OH244750   6.644   7.301   1.227 -0.0445 -0.1937 -0.3085
 6852TIP3    H144751   6.635   7.364   1.156 -1.0567 -0.5897 -0.5663
 6852TIP3    H244752   6.681   7.350   1.299 -0.7427  0.6818 -0.5290
 6853TIP3   OH244753   0.106   4.972   0.760 -0.3426 -0.7272  0.0434
 6853TIP3    H144754   0.151   5.016   0.831 -1.2154 -0.9086  0.7323
 6853TIP3    H244755   0.061   5.042   0.713  0.6652 -0.5391 -0.6778
 6854TIP3   OH244756   5.969   2.133   8.655  0.5168  0.1823  0.2267
 6854TIP3    H144757   5.880   2.105   8.631 -0.0625  1.4003  0.8590
 6854TIP3    H244758   5.990   2.080   8.732 -0.1341  0.7073  0.7732
 6855TIP3   OH244759   5.720   7.678   1.222 -0.7188  0.3331  0.0748
 6855TIP3    H144760   5.815   7.687   1.213 -0.8050  0.0149 -1.4679
 6855TIP3    H244761   5.686   7.764   1.196 -0.8651  0.4108  0.5193
 6856TIP3   OH244762   2.663   0.011   0.915  0.0447  0.2935 -0.4337
 6856TIP3    H144763   2.696   0.036   1.001 -1.3563  0.6157  0.0398
 6856TIP3    H244764   2.732   0.037   0.854  0.2888  1.7399  0.4240
 6857TIP3   OH244765   4.022   2.581   1.236  0.6120  0.5170  0.0975
 6857TIP3    H144766   4.017   2.667   1.277 -0.1932  0.3472  0.3828
 6857TIP3    H244767   4.082   2.593   1.163 -0.2550  1.5998 -0.4824
 6858TIP3   OH244768   4.376   3.544   9.574  0.2772 -0.6958 -0.1370
 6858TIP3    H144769   4.351   3.608   9.508 -1.1130  0.1515  1.1422
 6858TIP3    H244770   4.459   3.577   9.610  1.3486 -1.4714 -1.7809
 6859TIP3   OH244771   6.717   6.174   2.388 -0.1431 -0.1135 -0.1145
 6859TIP3    H144772   6.745   6.093   2.345 -0.2893  0.9826 -2.4413
 6859TIP3    H244773   6.626   6.159   2.411  0.7856 -1.9040  2.9900
 6860TIP3   OH244774   3.491   5.806   8.105  0.0278  0.0503 -0.4726
 6860TIP3    H144775   3.564   5.756   8.068 -0.6795 -1.0716 -0.4159
 6860TIP3    H244776   3.413   5.761   8.072 -0.6323 -0.1230  1.2279
 6861TIP3   OH244777   7.103   2.763   9.677 -1.0650  0.1376  0.0696
 6861TIP3    H144778   7.164   2.737   9.608 -1.5846 -0.9499  0.0050
 6861TIP3    H244779   7.030   2.805   9.630 -2.5271 -2.6465 -0.3267
 6862TIP3   OH244780   7.219   4.086   2.244 -0.5074 -0.0320 -0.2400
 6862TIP3    H144781   7.221   3.994   2.271  2.9390 -0.4906 -1.4486
 6862TIP3    H244782   7.269   4.132   2.312 -0.9028  0.6773 -0.4176
 6863TIP3   OH244783   0.927   1.833   9.318 -0.1550 -0.0958 -0.1464
 6863TIP3    H144784   0.978   1.817   9.397 -0.0170 -0.3139 -0.2823
 6863TIP3    H244785   0.852   1.774   9.325 -0.8164  0.7718  0.4391
 6864TIP3   OH244786   2.726   5.678   8.249  0.6307 -0.4136 -0.0957
 6864TIP3    H144787   2.771   5.761   8.233  2.3318 -1.4585 -0.9335
 6864TIP3    H244788   2.684   5.658   8.165  0.9034 -0.7917 -0.1433
 6865TIP3   OH244789   7.367   2.448   9.897 -0.3787  0.3150 -0.0754
 6865TIP3    H144790   7.349   2.361   9.860  2.4332  0.4302 -2.0475
 6865TIP3    H244791   7.377   2.432   9.991  0.3000 -1.5785 -0.4151
 6866TIP3   OH244792   1.514   2.298   9.466  0.8919  0.3691  0.1508
 6866TIP3    H144793   1.472   2.382   9.451  0.1397 -0.0058  0.1136
 6866TIP3    H244794   1.520   2.291   9.562  0.5746  0.2842  0.1655
 6867TIP3   OH244795   5.993   2.535   0.882  0.0139 -0.0912  0.0837
 6867TIP3    H144796   6.032   2.494   0.805 -0.1516 -2.7849  1.3348
 6867TIP3    H244797   5.899   2.527   0.868 -0.0216 -0.0849  0.3165
 6868TIP3   OH244798   4.947   1.705   9.385 -0.1215 -0.0355 -0.6498
 6868TIP3    H144799   4.989   1.674   9.465 -1.6045 -0.0406  0.1560
 6868TIP3    H244800   4.862   1.662   9.383  0.0195 -0.3267 -2.4418
 6869TIP3   OH244801   2.685   1.597   1.987 -0.1678  0.3153 -0.0994
 6869TIP3    H144802   2.663   1.579   1.896 -2.0403 -1.9117  0.7051
 6869TIP3    H244803   2.614   1.654   2.018  0.6240  1.3171 -0.0800
 6870TIP3   OH244804   7.065   4.583   8.787  0.1853 -0.3258 -0.4639
 6870TIP3    H144805   6.970   4.570   8.794  0.3456 -0.9798  0.7714
 6870TIP3    H244806   7.086   4.555   8.698 -0.9002  0.7445 -1.0874
 6871TIP3   OH244807   2.157   1.662   0.285  0.6086 -0.7547 -0.3719
 6871TIP3    H144808   2.190   1.599   0.350 -0.9671 -0.6787  0.5430
 6871TIP3    H244809   2.062   1.656   0.292  0.4240  1.1816 -0.8133
 6872TIP3   OH244810   3.033   4.565   8.305  0.1121 -0.0791  0.0034
 6872TIP3    H144811   3.118   4.535   8.339 -0.7491 -1.3748  1.1173
 6872TIP3    H244812   3.044   4.563   8.210  1.6143  0.6905  0.1245
 6873TIP3   OH244813   2.603   4.735   9.206 -0.6099 -0.6180 -0.4835
 6873TIP3    H144814   2.685   4.730   9.157  1.3910 -2.3778  2.7104
 6873TIP3    H244815   2.549   4.666   9.169 -0.8619  0.6853 -2.7720
 6874TIP3   OH244816   4.093   1.321   2.715 -0.0095  0.3908 -1.0843
 6874TIP3    H144817   4.166   1.272   2.753  0.7006  1.0839 -1.5048
 6874TIP3    H244818   4.065   1.381   2.784 -0.0988  0.2076 -0.9620
 6875TIP3   OH244819   5.949   7.441   0.591  0.0293  0.0560 -1.2405
 6875TIP3    H144820   6.026   7.406   0.636 -1.3137  0.5821  1.6995
 6875TIP3    H244821   5.894   7.365   0.575 -1.3136  0.2091  1.9463
 6876TIP3   OH244822   5.626   5.608   1.036  0.0483 -0.1634  0.2716
 6876TIP3    H144823   5.697   5.650   0.987  0.2228 -0.5868  0.1560
 6876TIP3    H244824   5.595   5.538   0.978 -0.7220  0.2591  0.1584
 6877TIP3   OH244825   0.059   6.566   0.881  0.1221 -0.4458  0.5573
 6877TIP3    H144826   0.006   6.641   0.907 -4.0264 -2.9199  0.0668
 6877TIP3    H244827   0.035   6.548   0.790  1.2034 -2.2090  0.5581
 6878TIP3   OH244828   6.643   6.748   0.098 -0.1144  0.1352 -0.6974
 6878TIP3    H144829   6.620   6.683   0.164  1.0794 -0.3008 -0.6905
 6878TIP3    H244830   6.604   6.829   0.130  0.7306  0.0134  0.7307
 6879TIP3   OH244831   0.781   0.992   0.776 -0.0044 -0.3598 -0.0415
 6879TIP3    H144832   0.790   0.937   0.698  0.6374 -1.3388  0.7009
 6879TIP3    H244833   0.796   0.933   0.850  0.1771  0.7042  0.8096
 6880TIP3   OH244834   1.110   7.108   7.559  0.1098 -0.4155  0.3700
 6880TIP3    H144835   1.029   7.067   7.527  0.1940 -1.1013  0.9858
 6880TIP3    H244836   1.091   7.202   7.560 -0.7143 -0.5747  0.5911
 6881TIP3   OH244837   2.657   4.227   9.069  0.6338 -0.4051 -0.8595
 6881TIP3    H144838   2.709   4.307   9.067  0.6902 -0.4278 -0.4115
 6881TIP3    H244839   2.718   4.159   9.097  0.1610 -0.2616  0.5975
 6882TIP3   OH244840   5.338   5.463   8.804 -0.5058 -0.6994 -0.4221
 6882TIP3    H144841   5.428   5.463   8.835 -0.2638 -0.5512 -1.1114
 6882TIP3    H244842   5.340   5.410   8.725 -0.7841  0.2805 -1.1011
 6883TIP3   OH244843   1.956   2.213   6.812 -0.0914  0.1910  0.3854
 6883TIP3    H144844   1.878   2.214   6.867  0.4161  1.6412  1.1370
 6883TIP3    H244845   1.982   2.305   6.807  1.8579 -0.3232  0.5661
 6884TIP3   OH244846   6.104   0.017   8.140  0.5655 -0.3990  0.4332
 6884TIP3    H144847   6.198  -0.001   8.142  0.1274 -2.9899  1.4869
 6884TIP3    H244848   6.093   0.080   8.069  3.0426 -0.3618  0.0077
 6885TIP3   OH244849   6.775   2.613   1.564  0.4689  0.5534 -0.6678
 6885TIP3    H144850   6.809   2.626   1.653  0.2617  1.2682 -0.6798
 6885TIP3    H244851   6.685   2.584   1.577  0.9334 -0.9117 -0.6387
 6886TIP3   OH244852   1.425   2.828   1.971 -0.0676  0.9554 -0.4613
 6886TIP3    H144853   1.420   2.881   1.892 -0.5351 -1.4235 -2.1515
 6886TIP3    H244854   1.493   2.763   1.952  0.5791  0.9801  1.5476
 6887TIP3   OH244855   6.177   1.961   1.024 -0.1150 -0.0282  0.3721
 6887TIP3    H144856   6.270   1.970   1.003  0.2508 -1.6295  1.1795
 6887TIP3    H244857   6.137   2.040   0.986  1.1882 -0.4359 -2.0955
 6888TIP3   OH244858   6.534   7.166   8.818 -0.3917  0.0991 -0.1774
 6888TIP3    H144859   6.448   7.153   8.778 -1.0517  2.5665  0.2987
 6888TIP3    H244860   6.595   7.123   8.757 -1.9580 -2.8245  0.1017
 6889TIP3   OH244861   3.752   1.767   1.343 -0.3479  0.2957 -0.5334
 6889TIP3    H144862   3.819   1.832   1.366  0.5919 -0.9707  0.4249
 6889TIP3    H244863   3.796   1.709   1.280 -0.4440 -0.6776  0.2747
 6890TIP3   OH244864   1.645   1.103   1.813  0.3669 -0.2297  0.1337
 6890TIP3    H144865   1.630   1.101   1.908 -0.2537  1.8461  0.1318
 6890TIP3    H244866   1.735   1.137   1.804  0.2032  0.1718 -0.0138
 6891TIP3   OH244867   1.659   4.531   0.230  0.3916  0.1983 -0.0613
 6891TIP3    H144868   1.593   4.572   0.287 -0.3847 -0.3127 -0.5721
 6891TIP3    H244869   1.686   4.453   0.277  2.4352  1.6219  1.2722
 6892TIP3   OH244870   5.498   6.211   1.405 -0.0569  0.2829 -0.1492
 6892TIP3    H144871   5.512   6.118   1.386 -0.8789  0.2159 -0.4493
 6892TIP3    H244872   5.580   6.239   1.446  0.0997 -0.6373  0.1965
 6893TIP3   OH244873   5.973   0.490   7.444  0.6933  1.0519 -0.2425
 6893TIP3    H144874   5.888   0.495   7.487  0.7474 -3.8063  1.0317
 6893TIP3    H244875   5.953   0.492   7.351 -0.9717 -0.4893  0.0287
 6894TIP3   OH244876   1.592   1.310   9.585 -0.0468 -0.2390 -0.1743
 6894TIP3    H144877   1.553   1.359   9.513 -1.6544 -1.3002 -0.0699
 6894TIP3    H244878   1.520   1.296   9.647  0.6261 -1.7036  0.3280
 6895TIP3   OH244879   7.083   3.159   0.568  0.2045  0.4561 -0.1796
 6895TIP3    H144880   7.138   3.101   0.620 -1.0373  0.1301  0.8379
 6895TIP3    H244881   7.004   3.108   0.551  0.2732  0.8287 -1.7816
 6896TIP3   OH244882   4.276   2.149   7.504  0.1766  0.3662  0.6408
 6896TIP3    H144883   4.327   2.205   7.446  0.5142 -0.7696 -0.1915
 6896TIP3    H244884   4.319   2.157   7.589 -0.8940  2.7861  1.0322
 6897TIP3   OH244885   2.844   5.876   6.913  0.4948  0.0359  0.0115
 6897TIP3    H144886   2.788   5.799   6.911 -1.0027  1.0923 -1.6807
 6897TIP3    H244887   2.902   5.866   6.838 -0.8275  1.2947 -1.2281
 6898TIP3   OH244888   7.173   2.729   7.328 -0.2159  0.1447  0.2980
 6898TIP3    H144889   7.209   2.642   7.312 -0.8912 -0.1722  0.4577
 6898TIP3    H244890   7.232   2.768   7.393 -0.0265 -0.2736  0.3769
 6899TIP3   OH244891   2.227   2.771   1.162 -0.0626  0.2458 -0.3706
 6899TIP3    H144892   2.145   2.819   1.148 -0.6209 -0.6734 -0.3617
 6899TIP3    H244893   2.211   2.721   1.243  0.1062 -0.7430 -0.9306
 6900TIP3   OH244894   6.550   3.861   1.595 -0.3866 -0.0776  0.4706
 6900TIP3    H144895   6.555   3.956   1.603 -0.1676  0.0683 -1.0472
 6900TIP3    H244896   6.476   3.847   1.536  0.2101 -0.7904 -0.1252
 6901TIP3   OH244897   6.690   1.828   0.017  0.2023 -0.3007  0.7173
 6901TIP3    H144898   6.704   1.897   0.082  1.7712  0.1226 -0.0258
 6901TIP3    H244899   6.611   1.782   0.047 -1.0547  1.9553  1.1019
 6902TIP3   OH244900   6.590   5.727   1.142  0.1475 -0.0101 -0.6959
 6902TIP3    H144901   6.669   5.777   1.163  0.1596 -0.3493  0.0907
 6902TIP3    H244902   6.594   5.650   1.199 -0.7504 -0.0320 -0.6430
 6903TIP3   OH244903   2.288   0.307   9.608 -0.1775  0.0367  0.1909
 6903TIP3    H144904   2.240   0.329   9.528  0.9834 -1.0065 -0.8240
 6903TIP3    H244905   2.227   0.330   9.679 -0.2874  3.3898 -0.8252
 6904TIP3   OH244906   4.330   2.091   2.017  0.0123  0.4493 -0.0086
 6904TIP3    H144907   4.299   2.110   2.105 -1.3246  1.1329 -0.5953
 6904TIP3    H244908   4.279   2.014   1.989 -0.9460  1.3558 -0.8461
 6905TIP3   OH244909   2.560   0.235   2.253 -0.2859 -0.1187 -0.0897
 6905TIP3    H144910   2.557   0.139   2.255 -1.4710 -0.1040 -0.3441
 6905TIP3    H244911   2.580   0.256   2.161 -0.0196 -0.1197 -0.0324
 6906TIP3   OH244912   3.634   3.239   8.984  0.3917 -0.2741 -0.2366
 6906TIP3    H144913   3.562   3.199   9.034  0.1735 -1.3154 -1.3529
 6906TIP3    H244914   3.628   3.200   8.897  0.7953  1.4757 -1.0961
 6907TIP3   OH244915   4.084   4.686   9.492  0.4464  0.1412 -0.2036
 6907TIP3    H144916   4.020   4.629   9.449  1.7355 -0.9193 -0.7683
 6907TIP3    H244917   4.054   4.775   9.472 -1.8916 -0.2623  1.0961
 6908TIP3   OH244918   1.775   6.168   9.054  0.2813 -0.4347 -0.4166
 6908TIP3    H144919   1.869   6.181   9.068  0.4447 -1.3650 -0.5671
 6908TIP3    H244920   1.766   6.074   9.038 -0.8215 -0.5512  0.7456
 6909TIP3   OH244921   5.370   7.402   8.586 -0.3229 -0.2045  0.0451
 6909TIP3    H144922   5.386   7.446   8.502  0.1893 -1.6669 -0.6459
 6909TIP3    H244923   5.456   7.397   8.627 -0.2059 -1.3694 -0.3057
 6910TIP3   OH244924   4.206   6.838   1.778  0.0062 -0.7633 -0.1520
 6910TIP3    H144925   4.189   6.928   1.750  0.8080 -0.7572 -0.6641
 6910TIP3    H244926   4.259   6.801   1.707  0.1240 -1.4781  0.2975
 6911TIP3   OH244927   1.085   7.562   1.518  0.0574 -0.1216 -0.4489
 6911TIP3    H144928   1.133   7.491   1.475 -0.3316 -1.5365  1.3377
 6911TIP3    H244929   1.152   7.613   1.563  0.1451 -0.6500  0.0327
 6912TIP3   OH244930   2.246   2.602   1.811  0.0118  0.6812 -0.3605
 6912TIP3    H144931   2.193   2.638   1.882  0.1379  0.5513 -0.2022
 6912TIP3    H244932   2.181   2.572   1.746 -0.1204  0.2068 -0.0153
 6913TIP3   OH244933   6.971   4.713   9.791 -0.3256  0.3240  0.4902
 6913TIP3    H144934   6.935   4.798   9.765 -1.0439  0.1018  0.7370
 6913TIP3    H244935   6.895   4.655   9.793  0.0826 -0.2044  0.8325
 6914TIP3   OH244936   7.165   3.094   9.655  0.4864 -0.8892  0.1960
 6914TIP3    H144937   7.087   3.056   9.696  1.0619 -2.5236 -0.1122
 6914TIP3    H244938   7.149   3.087   9.561  1.0080 -1.2707  0.1305
 6915TIP3   OH244939   6.124   5.627   0.360  0.2745 -0.7290 -0.3201
 6915TIP3    H144940   6.106   5.720   0.371  0.0865 -0.7066 -0.8306
 6915TIP3    H244941   6.201   5.611   0.415  0.4913 -0.2101 -0.4726
 6916TIP3   OH244942   4.861   3.593   8.444  0.4378  0.1906  0.5455
 6916TIP3    H144943   4.942   3.594   8.494  0.1705 -1.1270  1.0338
 6916TIP3    H244944   4.826   3.505   8.456  1.1843 -0.8213 -3.3193
 6917TIP3   OH244945   4.104   6.744   0.022 -0.1773 -0.4850 -0.0387
 6917TIP3    H144946   4.122   6.664   0.071  2.6754 -0.0798 -0.2271
 6917TIP3    H244947   4.118   6.721  -0.069  0.5695  0.1504 -0.1052
 6918TIP3   OH244948   5.571   2.225   8.556  0.3627  0.4284  0.0533
 6918TIP3    H144949   5.518   2.288   8.605 -0.8924  0.0507 -0.7803
 6918TIP3    H244950   5.610   2.277   8.485  0.3507  0.5105  0.1060
 6919TIP3   OH244951   0.058   6.300   0.045 -0.2766 -0.4683 -0.4643
 6919TIP3    H144952   0.006   6.369   0.087 -1.6616 -1.8025  0.1115
 6919TIP3    H244953   0.079   6.239   0.116 -1.0023 -1.7745 -1.3314
 6920TIP3   OH244954   4.060   5.412   9.998  0.2462 -0.4505  0.1677
 6920TIP3    H144955   4.129   5.391   9.934 -1.1454 -2.0566 -0.8881
 6920TIP3    H244956   4.012   5.484   9.957 -0.5536 -1.3796 -0.5721
 6921TIP3   OH244957   4.969   2.454   9.908 -0.8578 -0.3385 -0.6622
 6921TIP3    H144958   4.994   2.401   9.983 -1.5543  1.2652  0.7699
 6921TIP3    H244959   5.008   2.410   9.833  1.3027 -1.0886  0.8149
 6922TIP3   OH244960   4.868   7.168   1.041 -0.0775 -0.1686  0.4960
 6922TIP3    H144961   4.808   7.218   0.984  1.0021  0.4576 -0.1202
 6922TIP3    H244962   4.810   7.111   1.091 -1.2367  0.7103  0.2169
 6923TIP3   OH244963   1.936   0.513   0.955 -0.1314  0.2638  0.2793
 6923TIP3    H144964   1.953   0.562   1.036  1.0448 -0.5012  0.5153
 6923TIP3    H244965   2.001   0.443   0.955 -0.8518 -0.4313 -0.7783
 6924TIP3   OH244966   3.471   5.118   8.976  0.2130 -0.6745  0.0752
 6924TIP3    H144967   3.380   5.138   8.999  0.3330 -0.0575  0.0137
 6924TIP3    H244968   3.483   5.159   8.891  0.8691  0.1454  0.5541
 6925TIP3   OH244969   5.751   6.138   8.385 -0.0930  0.5400  0.8689
 6925TIP3    H144970   5.701   6.112   8.308  0.4039 -0.4391  0.8618
 6925TIP3    H244971   5.700   6.105   8.459  0.3073 -0.0766  0.8783
 6926TIP3   OH244972   2.863   0.734   0.637 -0.4046  0.2403  0.4618
 6926TIP3    H144973   2.870   0.829   0.647  1.3471  0.2448 -0.3176
 6926TIP3    H244974   2.862   0.720   0.542 -1.3695 -0.4895  0.5728
 6927TIP3   OH244975   6.615   2.641   7.672 -0.1236 -0.0729  0.0978
 6927TIP3    H144976   6.655   2.555   7.659  0.6919  0.2884  0.0967
 6927TIP3    H244977   6.662   2.699   7.611  0.6362  0.7266  1.3824
 6928TIP3   OH244978   6.464   2.984   8.248  0.2604  0.2057  0.1813
 6928TIP3    H144979   6.501   2.934   8.320  1.0130  0.8638  0.2600
 6928TIP3    H244980   6.501   3.071   8.257  0.6339  0.2168 -1.1799
 6929TIP3   OH244981   1.870   2.032   1.782 -0.3566  0.2878 -0.2065
 6929TIP3    H144982   1.851   1.975   1.857 -4.1074  2.1302  0.4551
 6929TIP3    H244983   1.892   2.116   1.821 -3.4952  1.6084 -0.9865
 6930TIP3   OH244984   2.375   6.283   1.845  0.1468  0.1527  0.0822
 6930TIP3    H144985   2.464   6.246   1.844 -0.0598 -0.3469 -0.8314
 6930TIP3    H244986   2.337   6.250   1.927  0.2210 -1.0760 -0.3566
 6931TIP3   OH244987   0.125   2.003   1.428 -0.0112 -0.0500 -0.5857
 6931TIP3    H144988   0.081   1.962   1.502  1.6429  0.1861  0.5913
 6931TIP3    H244989   0.079   1.970   1.351 -0.7223 -1.6251  0.4613
 6932TIP3   OH244990   0.000   2.253   9.681  0.1614  0.2058 -0.1166
 6932TIP3    H144991   0.094   2.236   9.684 -0.0075 -0.7088  1.8638
 6932TIP3    H244992  -0.039   2.170   9.656 -0.2198 -0.1877  1.6308
 6933TIP3   OH244993   5.919   5.685   8.642 -0.3275 -0.4024  0.4052
 6933TIP3    H144994   5.891   5.751   8.707 -0.8987  0.0186 -0.2533
 6933TIP3    H244995   6.014   5.696   8.637 -0.3580  0.0390  0.6694
 6934TIP3   OH244996   5.810   2.148   0.246 -0.5966  0.6638 -0.7647
 6934TIP3    H144997   5.886   2.103   0.284 -3.0487 -2.2073  1.3298
 6934TIP3    H244998   5.811   2.235   0.285  0.3952 -0.1061  1.0385
 6935TIP3   OH244999   3.736   2.908   9.346  0.4007  0.2796  0.0037
 6935TIP3    H145000   3.758   2.869   9.430  1.3548  3.1120  1.1826
 6935TIP3    H245001   3.815   2.898   9.293 -0.6954 -2.9141 -1.2754
 6936TIP3   OH245002   1.161   3.820   9.820 -0.1022  0.5542 -0.0935
 6936TIP3    H145003   1.253   3.798   9.805 -0.5168 -2.1516  0.8356
 6936TIP3    H245004   1.165   3.903   9.868  1.7452  1.3131 -1.4114
 6937TIP3   OH245005   6.823   4.203   1.709  0.2247  0.3940 -0.1046
 6937TIP3    H145006   6.809   4.297   1.715 -0.1065  0.3453 -0.0644
 6937TIP3    H245007   6.912   4.189   1.741  0.1072  0.6401  0.3355
 6938TIP3   OH245008   3.623   5.903   9.314  0.2477 -0.1072  0.1312
 6938TIP3    H145009   3.554   5.869   9.371 -0.9121 -0.8407 -1.6076
 6938TIP3    H245010   3.704   5.870   9.351 -0.1767  1.5193  2.7702
 6939TIP3   OH245011   4.881   1.676   9.700 -0.1668 -0.0479  1.0715
 6939TIP3    H145012   4.833   1.627   9.633  0.7673  0.0734  0.2922
 6939TIP3    H245013   4.935   1.610   9.743  1.8653  0.3714 -0.6565
 6940TIP3   OH245014   2.502   7.287   8.667  0.3591 -1.2169 -0.2433
 6940TIP3    H145015   2.552   7.292   8.586  0.5282 -1.2486 -0.1400
 6940TIP3    H245016   2.510   7.196   8.695  1.5812 -0.8585  0.6261
 6941TIP3   OH245017   6.295   7.068   8.461 -0.2339 -0.3408  0.2215
 6941TIP3    H145018   6.293   7.091   8.554 -3.4472 -0.3730  0.2979
 6941TIP3    H245019   6.289   7.151   8.415  1.4089 -0.3213 -0.0192
 6942TIP3   OH245020   7.092   1.300   0.047  0.1248 -0.7982 -0.1562
 6942TIP3    H145021   7.164   1.328   0.104  0.3503 -1.6988  0.0248
 6942TIP3    H245022   7.047   1.232   0.097  0.5188 -1.8327 -1.1624
 6943TIP3   OH245023   0.933   0.726   7.431 -0.0593  0.6225  0.2936
 6943TIP3    H145024   0.934   0.649   7.374  0.1093  0.6976  0.1961
 6943TIP3    H245025   0.868   0.784   7.392 -0.4773  0.3675  0.5854
 6944TIP3   OH245026   0.649   7.096   8.605  1.3609  0.1010  0.3270
 6944TIP3    H145027   0.571   7.056   8.644  1.5282  0.0663  0.6325
 6944TIP3    H245028   0.683   7.030   8.545  0.0343  0.8494 -1.3529
 6945TIP3   OH245029   2.123   4.645   7.446  0.5861 -0.1953 -0.4821
 6945TIP3    H145030   2.111   4.553   7.424 -2.7363  0.4663 -2.2722
 6945TIP3    H245031   2.182   4.645   7.520  0.5327 -3.7746 -0.2675
 6946TIP3   OH245032   1.744   6.553   9.259  0.6014  0.3857  0.2394
 6946TIP3    H145033   1.743   6.649   9.255  0.0435  0.3501 -0.5909
 6946TIP3    H245034   1.652   6.529   9.266  0.7980 -0.0531  1.8881
 6947TIP3   OH245035   1.247   3.141   0.936  0.5143 -0.4235  0.1438
 6947TIP3    H145036   1.259   3.147   0.842  1.0033 -0.7844  0.1768
 6947TIP3    H245037   1.252   3.231   0.968  2.1788 -0.4490  0.0336
 6948TIP3   OH245038   7.210   0.529   9.067  0.1166 -0.0190  0.0141
 6948TIP3    H145039   7.150   0.458   9.044 -0.1763  0.0350  0.5823
 6948TIP3    H245040   7.159   0.609   9.053 -0.1685  0.0077  1.0767
 6949TIP3   OH245041   4.473   3.180   1.443  0.3104 -0.9476 -0.1349
 6949TIP3    H145042   4.500   3.089   1.444 -0.7892 -1.2904  0.4045
 6949TIP3    H245043   4.454   3.201   1.534 -1.0382 -0.6993 -0.4403
 6950TIP3   OH245044   5.730   0.986   8.185  0.3627  0.5851 -0.8851
 6950TIP3    H145045   5.640   1.000   8.212  0.5946  0.1705  0.1252
 6950TIP3    H245046   5.783   1.006   8.262  0.9591 -1.8657 -0.5806
 6951TIP3   OH245047   7.542   3.400   9.443 -0.5337  0.3666  0.1798
 6951TIP3    H145048   7.471   3.345   9.407  0.6792 -0.8546 -0.4443
 6951TIP3    H245049   7.618   3.379   9.388  0.8170  0.1584  2.0381
 6952TIP3   OH245050   0.124   1.250   0.616 -0.2385 -0.1238  0.1734
 6952TIP3    H145051   0.097   1.267   0.525 -1.0816  0.1434  0.4641
 6952TIP3    H245052   0.217   1.271   0.617 -0.5041  1.2424 -0.3180
 6953TIP3   OH245053   1.407   4.429   7.354  0.6764  0.1204 -0.2557
 6953TIP3    H145054   1.442   4.400   7.269 -0.0210 -0.7050 -0.2803
 6953TIP3    H245055   1.312   4.431   7.340  0.5621 -0.0052  0.5022
 6954TIP3   OH245056   0.112   3.514   0.661 -0.3847  0.0184  0.2137
 6954TIP3    H145057   0.058   3.543   0.588  1.0772  0.2759 -0.8210
 6954TIP3    H245058   0.084   3.569   0.735 -0.8202  0.8519 -0.5454
 6955TIP3   OH245059   7.181   7.468   9.542  0.4520 -0.9589  0.3742
 6955TIP3    H145060   7.220   7.434   9.623  1.3713 -2.4877 -0.6646
 6955TIP3    H245061   7.256   7.493   9.488 -0.1684  0.8700  0.2853
 6956TIP3   OH245062   2.817   4.879   1.717  0.2693  0.2128 -1.1887
 6956TIP3    H145063   2.808   4.788   1.689 -0.9446  0.3171 -1.2036
 6956TIP3    H245064   2.751   4.926   1.665  0.3057  0.9554 -0.5702
 6957TIP3   OH245065   0.434   1.495   2.707  0.3130  0.5411  0.3271
 6957TIP3    H145066   0.441   1.443   2.627  0.5412 -0.6541  1.0986
 6957TIP3    H245067   0.340   1.505   2.722  0.0481 -2.9583  2.1656
 6958TIP3   OH245068   7.057   2.987   8.538 -0.1277  0.2595 -0.0668
 6958TIP3    H145069   7.037   3.073   8.577  0.3881 -0.0984  1.0043
 6958TIP3    H245070   6.971   2.945   8.527 -0.5173  1.3635 -1.7542
 6959TIP3   OH245071   7.638   4.281   0.142  0.0641 -0.5390 -0.2441
 6959TIP3    H145072   7.658   4.305   0.052 -1.1338 -0.1662 -0.4248
 6959TIP3    H245073   7.544   4.265   0.143 -0.0816  0.2360  1.1238
 6960TIP3   OH245074   4.102   4.668   9.967  0.4241 -0.4804  0.1139
 6960TIP3    H145075   4.057   4.592  10.002 -1.7108  0.5325 -0.2496
 6960TIP3    H245076   4.065   4.742  10.014 -1.9470  0.8705 -3.4505
 6961TIP3   OH245077   3.065   2.139   9.046  0.2847  0.1907  0.1493
 6961TIP3    H145078   3.013   2.081   8.991  1.5518 -2.4271  1.5148
 6961TIP3    H245079   3.020   2.138   9.131 -1.9286  4.5630 -0.6987
 6962TIP3   OH245080   0.974   4.332   8.602 -0.2023  0.2378  0.1619
 6962TIP3    H145081   1.019   4.289   8.529 -0.8444 -2.1621  1.0975
 6962TIP3    H245082   0.984   4.272   8.676 -2.4897  0.9435  1.1433
 6963TIP3   OH245083   1.828   1.437   2.163  0.4290 -0.1277  0.3611
 6963TIP3    H145084   1.916   1.400   2.160  0.2875 -0.5118  0.8318
 6963TIP3    H245085   1.826   1.488   2.243  0.4336  0.4322  0.0102
 6964TIP3   OH245086   5.281   0.266   8.028  0.0791 -0.3442  0.2239
 6964TIP3    H145087   5.224   0.314   7.968  0.1929  0.2715  0.5993
 6964TIP3    H245088   5.370   0.291   8.003  0.2338 -1.6325 -0.6413
 6965TIP3   OH245089   7.458   4.623   9.176  0.4217  0.3214 -0.8633
 6965TIP3    H145090   7.428   4.687   9.111 -2.5549  1.6850  1.6187
 6965TIP3    H245091   7.393   4.553   9.172 -2.7570  2.5262  3.4374
 6966TIP3   OH245092   1.313   2.763   9.898 -0.3431 -0.2659 -0.1342
 6966TIP3    H145093   1.279   2.682   9.935 -1.2094  0.7133  1.3316
 6966TIP3    H245094   1.283   2.831   9.958  0.4383  1.1392 -1.2686
 6967TIP3   OH245095   1.045   5.054   9.635 -0.0531 -0.0524 -0.6272
 6967TIP3    H145096   1.039   5.129   9.694  1.8389  0.3745 -0.9239
 6967TIP3    H245097   0.959   5.051   9.592 -0.0671  2.1675 -0.8778
 6968TIP3   OH245098   1.331   0.475   2.893 -0.0461  0.0566 -0.5285
 6968TIP3    H145099   1.248   0.462   2.939  0.0440  0.6621 -0.1825
 6968TIP3    H245100   1.388   0.517   2.957  0.3925  0.0288 -0.8953
 6969TIP3   OH245101   6.395   3.158   0.056  0.8828 -0.1351 -0.1377
 6969TIP3    H145102   6.391   3.075   0.104 -1.0700  0.7842  1.4222
 6969TIP3    H245103   6.436   3.219   0.117 -0.5122  0.7637 -0.0494
 6970TIP3   OH245104   6.734   4.704   1.739 -0.2832  0.0983 -0.1280
 6970TIP3    H145105   6.803   4.754   1.782 -0.2183  0.9995 -1.2186
 6970TIP3    H245106   6.655   4.758   1.749 -1.4467 -1.9011  3.0265
 6971TIP3   OH245107   5.909   4.139   2.630 -0.2254 -0.4364  0.0611
 6971TIP3    H145108   5.994   4.114   2.592 -0.6775 -0.1925 -1.1428
 6971TIP3    H245109   5.920   4.231   2.653 -0.9345  0.3615 -2.4772
 6972TIP3   OH245110   5.608   5.036   0.506 -0.2722  0.4326  0.2576
 6972TIP3    H145111   5.537   4.994   0.457  0.5460 -0.8425  0.1372
 6972TIP3    H245112   5.614   4.987   0.587  0.2826  0.7328  0.4007
 6973TIP3   OH245113   4.715   2.150   0.577  0.0216  0.0017  0.4061
 6973TIP3    H145114   4.800   2.186   0.601  0.0293 -1.4160  2.9078
 6973TIP3    H245115   4.687   2.201   0.501  3.2871  0.1623 -0.8240
 6974TIP3   OH245116   7.205   4.639   0.597  0.1065 -0.1694 -0.4172
 6974TIP3    H145117   7.267   4.681   0.656  0.2122  0.6081 -1.0710
 6974TIP3    H245118   7.154   4.581   0.654 -1.2135  2.0915  0.8659
 6975TIP3   OH245119   4.729   4.010   7.747 -0.0689  0.6218  0.5106
 6975TIP3    H145120   4.773   4.053   7.819  0.9480  0.9874 -0.3047
 6975TIP3    H245121   4.650   4.062   7.731  1.1483  2.2379 -0.4751
 6976TIP3   OH245122   2.430   1.846   9.375  0.5797 -0.3799 -0.5211
 6976TIP3    H145123   2.398   1.798   9.452 -1.0143  0.6392 -0.5158
 6976TIP3    H245124   2.446   1.935   9.407 -0.2153  0.0856 -1.3885
 6977TIP3   OH245125   3.303   4.451   2.376  0.4185 -0.0979  0.2218
 6977TIP3    H145126   3.279   4.451   2.468  0.6045 -0.4519  0.2723
 6977TIP3    H245127   3.260   4.373   2.340  1.5844 -0.8269  0.3434
 6978TIP3   OH245128   5.545   2.593   1.239  0.0725  0.6403  0.0483
 6978TIP3    H145129   5.567   2.552   1.324  0.1943  1.1127  0.2479
 6978TIP3    H245130   5.629   2.595   1.192 -0.2511 -0.9334 -0.6704
 6979TIP3   OH245131   0.447   1.909   9.985  0.5195 -0.3599 -0.1383
 6979TIP3    H145132   0.424   1.894  10.076  0.7316  1.7379  0.3212
 6979TIP3    H245133   0.541   1.893   9.981  0.3704 -1.2584 -0.1958
 6980TIP3   OH245134   6.457   4.414   0.054 -0.3962 -0.0567  0.4122
 6980TIP3    H145135   6.537   4.466   0.066 -0.7845  0.4862  0.6698
 6980TIP3    H245136   6.453   4.397  -0.040 -1.0534  1.6532  0.1116
 6981TIP3   OH245137   0.837   4.836   8.463  0.1921  0.0495  0.3201
 6981TIP3    H145138   0.895   4.880   8.400 -0.0662  1.7806  1.2158
 6981TIP3    H245139   0.764   4.805   8.410  0.0753  1.2852 -0.2921
 6982TIP3   OH245140   0.895   6.492   1.083  0.2960  0.4892  0.2231
 6982TIP3    H145141   0.859   6.575   1.054  1.0754  0.1510 -1.9401
 6982TIP3    H245142   0.821   6.444   1.119 -0.8301  0.9278 -1.4118
 6983TIP3   OH245143   5.118   0.253   1.489 -0.0217 -0.6042  0.0526
 6983TIP3    H145144   5.083   0.247   1.577  0.4773 -0.2556  0.2773
 6983TIP3    H245145   5.097   0.342   1.460  2.5427  0.4293  1.0189
 6984TIP3   OH245146   3.490   0.624   8.102  0.0887 -0.0978  0.0264
 6984TIP3    H145147   3.456   0.685   8.167 -0.1721 -0.3341  0.1124
 6984TIP3    H245148   3.569   0.666   8.069  0.3921 -0.1176  0.7147
 6985TIP3   OH245149   2.129   6.419   7.671 -0.0214  0.2768 -0.0234
 6985TIP3    H145150   2.093   6.507   7.672  0.5840  0.5382  1.5004
 6985TIP3    H245151   2.055   6.363   7.695 -0.6121  0.2465 -1.7833
 6986TIP3   OH245152   5.785   6.131   1.449  0.1107 -0.0461 -0.4094
 6986TIP3    H145153   5.759   6.068   1.381  1.1310 -1.7205  0.6675
 6986TIP3    H245154   5.814   6.076   1.522  0.2803  1.7085  0.8965
 6987TIP3   OH245155   3.898   3.806   9.587  0.0303 -0.2354  0.1395
 6987TIP3    H145156   3.872   3.717   9.563  1.1004 -0.6587  0.5027
 6987TIP3    H245157   3.883   3.811   9.681  0.7723 -0.3169  0.2646
 6988TIP3   OH245158   0.644   4.552   1.872 -0.0227 -0.2117  0.1582
 6988TIP3    H145159   0.583   4.621   1.846 -1.1049 -1.7878 -1.7285
 6988TIP3    H245160   0.641   4.554   1.968 -1.1982  1.3238  0.1413
 6989TIP3   OH245161   4.594   6.449   9.851  0.0153  0.1865  0.3064
 6989TIP3    H145162   4.644   6.374   9.885  0.9992  0.2979 -0.8201
 6989TIP3    H245163   4.534   6.410   9.787 -0.2008  0.2446  0.4732
 6990TIP3   OH245164   2.030   4.653   2.292  0.0658 -0.2099  0.1953
 6990TIP3    H145165   2.045   4.580   2.353 -2.3245  0.0670  1.2285
 6990TIP3    H245166   1.980   4.614   2.220 -1.0246  0.3261  0.6420
 6991TIP3   OH245167   5.250   5.334   1.374 -0.2503  0.0067  0.8296
 6991TIP3    H145168   5.201   5.416   1.375 -0.0998  0.2081 -1.8669
 6991TIP3    H245169   5.342   5.361   1.380 -0.1416  0.1701 -1.0078
 6992TIP3   OH245170   1.359   1.191   0.281 -0.0047  0.2017 -0.3790
 6992TIP3    H145171   1.378   1.160   0.369  0.2498 -1.6925 -1.0618
 6992TIP3    H245172   1.313   1.119   0.239 -0.7563  1.3371 -1.5943
 6993TIP3   OH245173   3.302   6.810   1.366  0.2756 -0.3583  0.2948
 6993TIP3    H145174   3.396   6.798   1.353  0.0751  0.1828 -2.0495
 6993TIP3    H245175   3.283   6.894   1.325 -1.1750 -0.1889  1.2356
 6994TIP3   OH245176   1.587   0.583   7.735 -0.2602  0.0857  0.5263
 6994TIP3    H145177   1.599   0.522   7.808  0.3368 -0.6633 -0.1861
 6994TIP3    H245178   1.548   0.661   7.776  1.6566  0.3668  1.9636
 6995TIP3   OH245179   2.569   4.424   2.081 -0.1405 -0.3218  0.0544
 6995TIP3    H145180   2.508   4.468   2.142 -0.5425  0.2324 -0.7272
 6995TIP3    H245181   2.515   4.403   2.005  0.0924 -2.0424  0.3341
 6996TIP3   OH245182   5.513   5.465   1.345 -0.0856  0.1004 -0.2908
 6996TIP3    H145183   5.545   5.410   1.274  0.9422  0.1584  0.0991
 6996TIP3    H245184   5.569   5.543   1.341  0.4333 -0.1773  0.9618
 6997TIP3   OH245185   3.215   0.548   7.986  0.7110 -0.1111 -0.3235
 6997TIP3    H145186   3.205   0.458   8.019  0.3212  0.7980  2.2398
 6997TIP3    H245187   3.299   0.577   8.023 -0.0171  1.1565  0.3751
 6998TIP3   OH245188   3.107   2.044   8.685 -0.4437  0.3339 -0.4572
 6998TIP3    H145189   3.020   2.032   8.725 -0.6436 -0.9635 -1.2441
 6998TIP3    H245190   3.118   1.969   8.627  0.4250  1.4655 -1.8210
 6999TIP3   OH245191   4.938   5.174   1.319 -0.3927 -0.1501  0.2983
 6999TIP3    H145192   4.851   5.135   1.329 -1.3209  1.7434  0.0864
 6999TIP3    H245193   4.997   5.099   1.307 -2.0341 -1.4624  0.0495
 7000TIP3   OH245194   3.622   2.686   2.210  0.3372 -0.1932 -0.3522
 7000TIP3    H145195   3.680   2.672   2.285 -0.2604  0.0293  0.1628
 7000TIP3    H245196   3.571   2.764   2.233  0.0865 -0.1750 -0.9505
 7001TIP3   OH245197   0.290   4.598   7.751 -0.0354  0.0337  0.1130
 7001TIP3    H145198   0.297   4.573   7.659 -0.2267  0.3232  0.0204
 7001TIP3    H245199   0.292   4.515   7.798 -1.9034 -0.2736 -0.2601
 7002TIP3   OH245200   5.658   7.129   0.955 -0.6806  0.1203  0.8224
 7002TIP3    H145201   5.640   7.220   0.933  2.2094  0.9614  1.4557
 7002TIP3    H245202   5.633   7.121   1.047 -0.4552  0.4261  0.9110
 7003TIP3   OH245203   2.828   1.281   3.007 -0.6278 -0.5483  0.6999
 7003TIP3    H145204   2.877   1.201   3.028  0.6155  0.5004  2.0628
 7003TIP3    H245205   2.869   1.313   2.927  0.0908 -0.3719  1.1208
 7004TIP3   OH245206   1.989   5.557   0.139  0.0648 -0.2878 -0.5595
 7004TIP3    H145207   1.912   5.587   0.091 -0.1291 -0.7335 -0.5405
 7004TIP3    H245208   2.062   5.604   0.100 -0.0927 -0.6324 -1.2806
 7005TIP3   OH245209   5.702   5.989   1.089  0.0592 -0.5059 -0.0006
 7005TIP3    H145210   5.756   5.915   1.061 -0.6977 -0.6965 -1.0382
 7005TIP3    H245211   5.754   6.033   1.156  0.1497 -2.5282  1.3629
 7006TIP3   OH245212   3.327   7.385   6.834 -0.8076 -0.1848 -0.2675
 7006TIP3    H145213   3.285   7.448   6.893  0.5566 -0.6103  1.2223
 7006TIP3    H245214   3.418   7.415   6.827 -0.0436 -2.0843  0.7090
 7007TIP3   OH245215   3.654   2.210   0.299  0.2005 -0.1044 -0.3702
 7007TIP3    H145216   3.644   2.225   0.393  1.5819 -0.1263 -0.1931
 7007TIP3    H245217   3.590   2.142   0.278  1.6943 -2.0962  1.1102
 7008TIP3   OH245218   7.049   3.184   7.227 -0.2206 -0.2930  0.0752
 7008TIP3    H145219   7.041   3.278   7.240 -0.2392 -0.3702  0.6303
 7008TIP3    H245220   7.141   3.171   7.203 -0.3548 -0.0717 -0.5980
 7009TIP3   OH245221   7.142   3.409   0.631  0.3451 -0.0057 -0.3202
 7009TIP3    H145222   7.122   3.321   0.601 -0.7427  0.4237 -0.9244
 7009TIP3    H245223   7.235   3.406   0.654  0.5630 -1.0498 -1.2402
 7010TIP3   OH245224   6.069   3.322   0.348  0.8044  0.0965  0.2844
 7010TIP3    H145225   5.986   3.318   0.395  0.4271  0.6969 -0.3035
 7010TIP3    H245226   6.069   3.409   0.307  0.5305 -0.8381 -1.8685
 7011TIP3   OH245227   1.116   4.735   9.819 -0.2121  0.2908  0.4294
 7011TIP3    H145228   1.089   4.826   9.834 -0.3509  0.4998 -0.9526
 7011TIP3    H245229   1.190   4.742   9.759 -0.2171 -0.5103  0.3308
 7012TIP3   OH245230   3.001   2.394   2.097  0.3088  0.3877 -0.0400
 7012TIP3    H145231   2.946   2.342   2.156 -2.3330  1.0522 -1.7537
 7012TIP3    H245232   2.982   2.485   2.120 -2.3861  0.7525 -3.0212
 7013TIP3   OH245233   7.421   3.616   9.538  0.1215 -0.0933  0.1844
 7013TIP3    H145234   7.475   3.650   9.609 -0.0175 -0.2003  0.3405
 7013TIP3    H245235   7.464   3.534   9.513  0.4045  0.1437 -0.1304
 7014TIP3   OH245236   3.724   2.944   6.878  0.1943 -0.2933  0.2928
 7014TIP3    H145237   3.659   2.874   6.888  0.6567 -0.6698  0.6803
 7014TIP3    H245238   3.779   2.915   6.806  0.0153 -0.0317  0.0468
 7015TIP3   OH245239   1.439   5.378   2.153 -0.0031  0.1008 -0.1271
 7015TIP3    H145240   1.443   5.381   2.058  1.1054 -0.2474 -0.1029
 7015TIP3    H245241   1.421   5.286   2.174  1.9387 -0.3061  0.0194
 7016TIP3   OH245242   1.165   2.375   1.412 -0.2376 -0.6564 -0.2633
 7016TIP3    H145243   1.206   2.439   1.470 -0.6171  0.3813 -1.1280
 7016TIP3    H245244   1.227   2.363   1.341 -0.8252 -0.0922 -0.8855
 7017TIP3   OH245245   2.281   0.613   9.942  0.3957 -0.2203  0.2547
 7017TIP3    H145246   2.236   0.537   9.905  0.4782 -0.0099 -0.2846
 7017TIP3    H245247   2.236   0.630  10.024  0.9487 -1.4010  0.8222
 7018TIP3   OH245248   0.943   6.140   9.271  0.2409  0.7816 -0.3933
 7018TIP3    H145249   0.977   6.137   9.360  0.6819  0.1155 -0.5779
 7018TIP3    H245250   1.018   6.119   9.215 -0.4156 -0.5531 -0.8155
 7019TIP3   OH245251   4.445   0.129   8.288  0.3925  0.0333 -0.5256
 7019TIP3    H145252   4.422   0.125   8.195  0.3104 -1.7287 -0.4559
 7019TIP3    H245253   4.373   0.083   8.332  1.2133 -0.5480  0.2388
 7020TIP3   OH245254   7.620   1.963   8.350 -0.4376  0.1881  0.6062
 7020TIP3    H145255   7.714   1.984   8.352 -0.3132 -0.0432 -0.9610
 7020TIP3    H245256   7.577   2.047   8.336 -0.2779  0.0496 -0.9028
 7021TIP3   OH245257   1.457   5.338   1.688  0.1399  0.1476  0.8332
 7021TIP3    H145258   1.469   5.340   1.593  1.3359 -1.6613  0.8921
 7021TIP3    H245259   1.545   5.346   1.724 -0.1703 -0.4293  1.7598
 7022TIP3   OH245260   7.066   4.720   9.143 -0.0619  0.7649 -0.5172
 7022TIP3    H145261   7.087   4.675   9.225  0.0594  1.3501 -0.2271
 7022TIP3    H245262   7.146   4.765   9.119 -0.5303  1.7868 -0.1913
 7023TIP3   OH245263   0.255   7.632   9.988  0.1893 -0.0933  0.8718
 7023TIP3    H145264   0.304   7.621  10.070  0.9733 -0.0346  0.4219
 7023TIP3    H245265   0.170   7.665  10.016  1.1736  2.0409  1.5462
 7024TIP3   OH245266   1.709   1.775   2.268  0.6173 -0.6032  0.9914
 7024TIP3    H145267   1.762   1.723   2.329  1.2076  0.5806  1.5349
 7024TIP3    H245268   1.620   1.741   2.279  0.7190 -0.4858  2.4682
 7025TIP3   OH245269   2.764   3.331   0.512  0.5651  0.2493  0.0738
 7025TIP3    H145270   2.824   3.389   0.464  2.4993 -0.7827  1.1497
 7025TIP3    H245271   2.723   3.388   0.577  0.6991  0.8789 -0.3782
 7026TIP3   OH245272   3.883   7.429   9.932 -0.4771 -0.0217 -0.1383
 7026TIP3    H145273   3.911   7.362   9.869 -0.7990 -0.2968  0.0060
 7026TIP3    H245274   3.871   7.508   9.880  1.1733  0.2810 -0.1163
 7027TIP3   OH245275   2.441   7.487   1.792 -0.0546  0.1455 -0.7509
 7027TIP3    H145276   2.346   7.479   1.798  0.0386 -1.2144 -0.9079
 7027TIP3    H245277   2.472   7.400   1.769  1.1715  0.7627 -1.5777
 7028TIP3   OH245278   6.227   4.650   1.435 -0.1785 -0.4015  0.6160
 7028TIP3    H145279   6.224   4.618   1.525 -0.0322  1.7838  1.4663
 7028TIP3    H245280   6.254   4.742   1.443 -0.2042 -0.1298 -1.6602
 7029TIP3   OH245281   0.734   6.553   7.175 -0.1317  0.6337  0.1991
 7029TIP3    H145282   0.667   6.612   7.208  0.2179  0.5180  1.1491
 7029TIP3    H245283   0.747   6.490   7.246  0.6518  0.3846 -0.1558
 7030TIP3   OH245284   2.445   6.430   1.006  0.5921  0.2766 -1.2665
 7030TIP3    H145285   2.431   6.348   1.054 -1.4773  0.4276 -1.5190
 7030TIP3    H245286   2.475   6.402   0.920  0.2091 -0.2204 -1.2442
 7031TIP3   OH245287   3.825   5.161   2.486  0.1418 -0.2994  0.2974
 7031TIP3    H145288   3.746   5.154   2.540  0.1584 -0.2249  0.3307
 7031TIP3    H245289   3.857   5.071   2.479  0.7809 -0.1798  1.3654
 7032TIP3   OH245290   5.837   3.609   0.839 -0.0730 -0.5423 -0.0539
 7032TIP3    H145291   5.927   3.623   0.870  0.0679  0.0991 -0.7220
 7032TIP3    H245292   5.829   3.514   0.833  0.4719 -0.6171  0.2580
 7033TIP3   OH245293   3.585   4.457   7.998 -0.7034 -0.0912 -0.3127
 7033TIP3    H145294   3.532   4.417   7.930 -0.6591 -0.2071 -0.2796
 7033TIP3    H245295   3.599   4.548   7.969 -0.0867 -0.3384 -0.8141
 7034TIP3   OH245296   1.963   0.844   7.356  0.1124  0.4209 -0.4954
 7034TIP3    H145297   1.904   0.862   7.283  1.9723 -0.7746 -2.4219
 7034TIP3    H245298   1.984   0.931   7.391 -0.3032  1.0951 -1.8478
 7035TIP3   OH245299   6.224   1.032   0.548  0.4929  0.1766 -0.3075
 7035TIP3    H145300   6.206   1.024   0.455  0.2636 -2.1290 -0.1084
 7035TIP3    H245301   6.153   0.985   0.591  2.5697 -2.1552  0.8183
 7036TIP3   OH245302   4.649   5.827   1.680 -0.4656  0.2344 -0.0987
 7036TIP3    H145303   4.555   5.838   1.665 -0.6334 -0.8887  0.0603
 7036TIP3    H245304   4.660   5.837   1.774 -0.4073  0.4548 -0.1278
 7037TIP3   OH245305   1.216   2.507   0.615 -0.5659  0.0626  0.0891
 7037TIP3    H145306   1.136   2.475   0.574  0.5884 -2.3602 -0.5041
 7037TIP3    H245307   1.237   2.441   0.681  0.9095  0.6512  0.2585
 7038TIP3   OH245308   3.245   2.005   1.390  0.5960  0.3875  0.0584
 7038TIP3    H145309   3.320   1.946   1.390  0.4122  0.1336 -0.7240
 7038TIP3    H245310   3.184   1.966   1.327  0.2802  1.1738 -0.1399
 7039TIP3   OH245311   1.458   4.001   8.186  0.6516 -0.5467  0.2434
 7039TIP3    H145312   1.527   3.947   8.225  1.4240  1.4967  1.9591
 7039TIP3    H245313   1.490   4.020   8.098  1.3610 -1.1988  0.3454
 7040TIP3   OH245314   2.839   1.979   1.065  0.5326 -0.4250  0.8486
 7040TIP3    H145315   2.840   2.027   0.982 -1.7163 -0.2914  0.8359
 7040TIP3    H245316   2.826   2.046   1.132 -0.4273 -0.7849  1.0368
 7041TIP3   OH245317   4.766   3.674   7.212  0.1567 -0.0103  0.5466
 7041TIP3    H145318   4.721   3.709   7.135  3.9277  0.1544 -1.8550
 7041TIP3    H245319   4.751   3.739   7.281 -2.3198  0.4512 -0.3256
 7042TIP3   OH245320   0.171   7.455   8.397  0.3412 -0.0162 -0.3628
 7042TIP3    H145321   0.259   7.432   8.427  0.2351  1.1062  0.8904
 7042TIP3    H245322   0.157   7.544   8.430 -1.9760 -0.8496  1.1382
 7043TIP3   OH245323   2.423   2.534   9.167  0.1670  0.0733 -0.0345
 7043TIP3    H145324   2.380   2.580   9.240  1.7583 -0.2310  1.1453
 7043TIP3    H245325   2.494   2.592   9.141  0.1822 -0.2569 -0.7491
 7044TIP3   OH245326   2.210   0.905   0.208  0.1173 -1.1624 -0.3235
 7044TIP3    H145327   2.163   0.968   0.152 -0.0798 -0.6655  0.3848
 7044TIP3    H245328   2.302   0.918   0.187  0.0975 -0.4324  0.0145
 7045TIP3   OH245329   3.658   2.918   1.392  0.0269 -0.2775  0.2432
 7045TIP3    H145330   3.691   2.920   1.482 -0.0322  0.7978  0.2540
 7045TIP3    H245331   3.637   3.009   1.372 -0.9794 -0.6493 -0.4898
 7046TIP3   OH245332   1.627   2.894   7.910  0.1645  0.3157 -0.0717
 7046TIP3    H145333   1.680   2.852   7.842  0.2946  0.3815 -0.0133
 7046TIP3    H245334   1.541   2.855   7.902  0.6610 -1.0634  0.9460
 7047TIP3   OH245335   1.976   7.327   7.265 -0.1161 -0.3590  0.2822
 7047TIP3    H145336   1.903   7.292   7.316  0.3346  0.3970  1.4854
 7047TIP3    H245337   1.949   7.314   7.173 -1.2815 -1.0423  0.6928
 7048TIP3   OH245338   6.721   4.164   9.639  0.3291 -0.3887 -0.0420
 7048TIP3    H145339   6.776   4.086   9.641 -0.3443 -0.8716 -0.0753
 7048TIP3    H245340   6.755   4.216   9.566  0.1923 -1.0910 -0.6172
 7049TIP3   OH245341   0.340   3.276   1.095  0.3941 -0.2168 -0.8923
 7049TIP3    H145342   0.312   3.215   1.162  2.1397 -1.6667 -1.4062
 7049TIP3    H245343   0.410   3.231   1.048 -0.3890  0.9336 -3.3736
 7050TIP3   OH245344   2.573   4.914   8.503  0.2647 -0.6591  0.0590
 7050TIP3    H145345   2.662   4.927   8.534 -0.8152  1.1161  2.7738
 7050TIP3    H245346   2.522   4.983   8.546 -1.9478  0.5104 -3.9214
 7051TIP3   OH245347   3.557   1.183   0.112  0.4894 -0.3940  0.0479
 7051TIP3    H145348   3.630   1.151   0.165  0.8589  0.7307  0.2556
 7051TIP3    H245349   3.583   1.273   0.089 -0.9597  0.1319  0.3793
 7052TIP3   OH245350   6.569   5.933   7.900  0.6080  0.1833  0.3446
 7052TIP3    H145351   6.626   6.005   7.871 -0.2899  1.0178  0.6065
 7052TIP3    H245352   6.485   5.951   7.860 -0.2844  0.5858  2.2634
 7053TIP3   OH245353   0.080   6.940   9.380 -0.1496  0.0092  0.5242
 7053TIP3    H145354   0.040   6.868   9.332  0.6737 -1.7669  2.3325
 7053TIP3    H245355   0.170   6.944   9.347 -0.1648  0.1473  0.4970
 7054TIP3   OH245356   4.905   1.538   2.213 -0.6111 -0.0735  0.4730
 7054TIP3    H145357   4.909   1.445   2.195 -1.6164 -0.1186  0.4459
 7054TIP3    H245358   4.941   1.547   2.301 -0.3159 -0.4614  0.3905
 7055TIP3   OH245359   7.627   3.511   0.439 -0.5764  0.0308  0.7417
 7055TIP3    H145360   7.552   3.502   0.499 -1.2352  0.1880 -0.0439
 7055TIP3    H245361   7.599   3.577   0.375 -0.6057 -1.4384 -0.8231
 7056TIP3   OH245362   1.779   5.207   8.246 -0.3461  0.1656 -0.5598
 7056TIP3    H145363   1.776   5.302   8.233  0.0420  0.0778 -1.2849
 7056TIP3    H245364   1.782   5.197   8.342  0.7027  0.9156 -0.4976
 7057TIP3   OH245365   3.197   3.400   7.564  0.0488  0.0086 -0.7981
 7057TIP3    H145366   3.285   3.404   7.525 -0.5832  2.7336 -2.1553
 7057TIP3    H245367   3.174   3.491   7.581 -1.9881 -0.7416  0.8370
 7058TIP3   OH245368   1.876   1.584   7.413 -0.4191 -0.1783 -0.1899
 7058TIP3    H145369   1.964   1.619   7.427  0.6247 -2.1354 -1.3465
 7058TIP3    H245370   1.830   1.652   7.364  1.0568  0.1534 -1.1571
 7059TIP3   OH245371   0.885   3.035   8.385 -0.0982  0.6543 -0.1257
 7059TIP3    H145372   0.840   2.966   8.335 -1.7781  1.6209 -0.0322
 7059TIP3    H245373   0.973   3.039   8.347  0.1086 -1.6392 -0.0125
 7060TIP3   OH245374   1.386   2.812   9.048 -0.3459  0.0905  0.2715
 7060TIP3    H145375   1.398   2.860   8.965  1.7763 -1.7287 -0.5915
 7060TIP3    H245376   1.403   2.721   9.025  0.5153 -0.4435  2.7427
 7061TIP3   OH245377   1.892   5.284   8.973 -0.2915  0.2019 -0.2874
 7061TIP3    H145378   1.799   5.285   8.997 -0.6095  0.2797 -1.4712
 7061TIP3    H245379   1.919   5.193   8.985 -0.6750  0.0552 -0.5231
 7062TIP3   OH245380   6.807   2.650   1.843 -0.2075 -0.1391 -0.0025
 7062TIP3    H145381   6.770   2.568   1.877  0.3169 -0.5356 -0.3743
 7062TIP3    H245382   6.883   2.666   1.899 -1.6395  1.3921  1.6527
 7063TIP3   OH245383   1.509   0.822   8.394 -0.2039 -0.1866  0.2902
 7063TIP3    H145384   1.541   0.856   8.311 -0.8728  0.5715  0.3370
 7063TIP3    H245385   1.564   0.864   8.460  0.6547 -1.1602  0.2295
 7064TIP3   OH245386   5.473   1.485   9.197 -0.1833  0.0425  0.1224
 7064TIP3    H145387   5.446   1.440   9.277  0.0595 -0.2585  0.0394
 7064TIP3    H245388   5.402   1.546   9.178  0.5762  1.4949  1.6117
 7065TIP3   OH245389   4.110   1.570   2.303  0.4188  0.2922 -0.4540
 7065TIP3    H145390   4.081   1.520   2.227 -1.6502 -0.5975  0.8277
 7065TIP3    H245391   4.046   1.550   2.371  0.9921  2.6832  0.9255
 7066TIP3   OH245392   1.425   1.717   2.247 -0.0802 -0.7566  0.1571
 7066TIP3    H145393   1.408   1.759   2.163  1.2497  0.1342  0.3165
 7066TIP3    H245394   1.424   1.623   2.227  1.4009 -0.5358 -1.0979
 7067TIP3   OH245395   2.973   6.987   9.027  0.0421  0.2039  0.4641
 7067TIP3    H145396   2.960   6.950   8.940  1.2497  2.0589 -0.5628
 7067TIP3    H245397   3.066   7.007   9.032  0.4687 -1.8167  3.0579
 7068TIP3   OH245398   0.385   1.773   0.722  0.1494 -0.8572  0.4110
 7068TIP3    H145399   0.449   1.787   0.791  1.6234 -2.8431 -0.4673
 7068TIP3    H245400   0.320   1.714   0.761  0.4139 -1.1397  0.4243
 7069TIP3   OH245401   3.282   4.649   8.515 -0.1097 -0.5161  0.1410
 7069TIP3    H145402   3.320   4.561   8.518  1.3069  0.0462 -0.0382
 7069TIP3    H245403   3.274   4.675   8.607 -0.3931 -0.7789  0.1896
 7070TIP3   OH245404   4.037   6.823   9.379 -0.0655  0.6263 -0.1137
 7070TIP3    H145405   4.130   6.822   9.401  0.2245  1.5369 -1.1708
 7070TIP3    H245406   4.016   6.733   9.355  1.1034  0.7886 -1.9422
 7071TIP3   OH245407   2.342   4.852   8.245 -0.5498  0.6254 -0.3087
 7071TIP3    H145408   2.290   4.836   8.166 -0.4294  0.0625 -0.2814
 7071TIP3    H245409   2.378   4.766   8.267  0.2238  0.9666 -0.2094
 7072TIP3   OH245410   1.678   7.609   1.605 -0.4328 -0.1236  0.3944
 7072TIP3    H145411   1.764   7.622   1.565 -0.3175 -0.6731  0.4524
 7072TIP3    H245412   1.681   7.660   1.686 -0.3731  0.3295  0.1103
 7073TIP3   OH245413   6.722   6.431   9.894 -0.5848  0.0724  0.0288
 7073TIP3    H145414   6.810   6.439   9.931 -0.7139  0.1946  0.3059
 7073TIP3    H245415   6.700   6.519   9.866  0.9874 -0.5353 -3.7296
 7074TIP3   OH245416   6.173   7.180   0.470 -0.2724  0.2392  0.2835
 7074TIP3    H145417   6.106   7.186   0.538  1.7068  0.8907  2.3046
 7074TIP3    H245418   6.207   7.091   0.477  0.6159  0.6048  0.9054
 7075TIP3   OH245419   5.680   7.472   7.527 -0.1674  0.4349 -0.0534
 7075TIP3    H145420   5.648   7.562   7.527 -2.2755 -0.2279  2.0485
 7075TIP3    H245421   5.698   7.453   7.619  0.6033 -1.1873 -0.5000
 7076TIP3   OH245422   1.377   4.372   8.793 -0.7313  0.0136  0.1317
 7076TIP3    H145423   1.371   4.279   8.770 -0.0081 -0.3369  1.3004
 7076TIP3    H245424   1.326   4.417   8.724  0.4024 -1.0720 -1.4851
 7077TIP3   OH245425   6.257   3.206   8.931  0.4887 -0.4605 -0.3240
 7077TIP3    H145426   6.205   3.283   8.908 -0.5168 -1.4155 -1.3686
 7077TIP3    H245427   6.301   3.181   8.850  1.1397 -0.7581  0.1093
 7078TIP3   OH245428   3.963   2.302   7.153  0.0270 -0.8680 -0.1159
 7078TIP3    H145429   3.896   2.241   7.124 -1.0762 -0.3292  1.1710
 7078TIP3    H245430   4.003   2.260   7.229  0.5508 -0.7865 -0.3380
 7079TIP3   OH245431   3.953   6.210   0.283 -0.0013 -0.3028  0.0920
 7079TIP3    H145432   3.956   6.280   0.349  1.9687  1.5194 -1.7684
 7079TIP3    H245433   3.973   6.130   0.332  2.4832  1.1070  1.5817
 7080TIP3   OH245434   5.872   7.191   9.730 -0.5047 -0.3424 -0.0258
 7080TIP3    H145435   5.854   7.245   9.807  2.2573  0.6036  0.0621
 7080TIP3    H245436   5.889   7.253   9.660 -1.1846 -1.1822 -0.9718
 7081TIP3   OH245437   4.167   4.444   1.349  0.2126  0.1046  0.4357
 7081TIP3    H145438   4.160   4.442   1.445 -1.5392  2.0815  0.4301
 7081TIP3    H245439   4.169   4.352   1.324 -0.6274 -0.4939  2.3287
 7082TIP3   OH245440   3.662   3.126   0.078  0.4320  0.0923 -0.1551
 7082TIP3    H145441   3.695   3.036   0.083  0.6404  0.1496 -0.4280
 7082TIP3    H245442   3.738   3.177   0.047  1.5387  1.0188  3.5811
 7083TIP3   OH245443   3.621   0.326   9.959  0.5309  0.0369  0.4015
 7083TIP3    H145444   3.572   0.266   9.903  0.0718 -0.2761  1.1228
 7083TIP3    H245445   3.564   0.402   9.968  0.9235  0.4025 -0.1505
 7084TIP3   OH245446   0.472   0.219   9.146 -0.2931  0.2970 -0.1963
 7084TIP3    H145447   0.409   0.190   9.212  0.5797  0.2342  0.6195
 7084TIP3    H245448   0.504   0.303   9.178 -0.0749  0.4017 -0.6804
 7085TIP3   OH245449   1.709   1.857   8.209 -0.2488 -0.3312 -0.3342
 7085TIP3    H145450   1.702   1.865   8.304  0.4649  1.1208 -0.3737
 7085TIP3    H245451   1.798   1.825   8.194 -0.7986 -1.8933 -0.4935
 7086TIP3   OH245452   3.192   7.142   1.898  0.2488  0.2401  0.5642
 7086TIP3    H145453   3.128   7.174   1.834  0.6337  0.8501  0.4759
 7086TIP3    H245454   3.272   7.191   1.878  1.0873 -1.3464 -0.0681
 7087TIP3   OH245455   0.204   0.179   8.877  0.4272 -0.6602 -0.2696
 7087TIP3    H145456   0.292   0.142   8.886  0.9883  0.3796 -1.2051
 7087TIP3    H245457   0.207   0.225   8.793 -1.6787 -2.3952 -1.3928
 7088TIP3   OH245458   5.233   4.766   7.585 -0.3715  0.1425 -0.2777
 7088TIP3    H145459   5.258   4.721   7.666 -1.9429  1.0119  0.7391
 7088TIP3    H245460   5.149   4.727   7.561 -2.8033  3.5855  1.6949
 7089TIP3   OH245461   0.833   1.718   0.667  0.1302 -0.7332  0.2837
 7089TIP3    H145462   0.869   1.744   0.582 -1.3214  0.2542 -0.0700
 7089TIP3    H245463   0.849   1.624   0.672  0.2049 -0.8185 -1.1142
 7090TIP3   OH245464   2.886   2.503   0.285  0.5727 -0.4871  0.4860
 7090TIP3    H145465   2.931   2.519   0.368  0.8173  0.4512  0.1803
 7090TIP3    H245466   2.844   2.587   0.264 -0.8717 -1.1727  0.4897
 7091TIP3   OH245467   4.947   0.263   7.243  0.2892  0.2343 -0.2477
 7091TIP3    H145468   4.946   0.221   7.329 -0.6897  0.5922 -0.0765
 7091TIP3    H245469   4.906   0.348   7.257  1.1513  0.7638 -0.8434
 7092TIP3   OH245470   1.529   7.293   9.666  0.0266 -0.2686 -0.3167
 7092TIP3    H145471   1.564   7.221   9.718 -0.3722  0.5117  1.0617
 7092TIP3    H245472   1.580   7.369   9.694 -0.2620  0.1827 -0.9985
 7093TIP3   OH245473   6.520   6.918   8.491  0.2656  0.5149 -0.0925
 7093TIP3    H145474   6.451   6.984   8.486  0.2123  0.3603 -2.4165
 7093TIP3    H245475   6.474   6.835   8.496  0.3397  0.5332  2.0696
 7094TIP3   OH245476   1.575   2.172   7.958 -0.5291  0.0230  0.2393
 7094TIP3    H145477   1.633   2.245   7.937 -0.9679  0.5744  0.8962
 7094TIP3    H245478   1.633   2.100   7.982 -0.0974  1.1644  2.9070
 7095TIP3   OH245479   1.254   5.140   9.980  0.1330 -0.1694  0.0901
 7095TIP3    H145480   1.202   5.074   9.933  1.1385 -0.8252 -0.1352
 7095TIP3    H245481   1.198   5.218   9.981 -0.1349 -0.2861 -1.7715
 7096TIP3   OH245482   0.334   7.664   2.357  0.1881 -0.1823 -0.2696
 7096TIP3    H145483   0.426   7.668   2.382 -0.0437  0.4137  0.5689
 7096TIP3    H245484   0.290   7.719   2.423 -0.8379 -0.9816 -0.2742
 7097TIP3   OH245485   6.156   5.680   8.422 -0.3429  0.4224 -0.0903
 7097TIP3    H145486   6.209   5.631   8.484  0.3959  2.2436  0.7791
 7097TIP3    H245487   6.163   5.630   8.340 -1.0606 -1.8379  1.1388
 7098TIP3   OH245488   4.569   1.958   0.918 -0.0673  0.0493 -0.4083
 7098TIP3    H145489   4.500   2.023   0.935 -0.2227 -0.2613  0.1986
 7098TIP3    H245490   4.532   1.901   0.851 -1.3602 -1.4626  1.4539
 7099TIP3   OH245491   5.008   2.358   8.317 -0.5921 -0.2258 -0.0218
 7099TIP3    H145492   5.077   2.333   8.256  0.7172 -0.1935  1.3828
 7099TIP3    H245493   5.055   2.390   8.394 -2.1972  1.5932  0.2662
 7100TIP3   OH245494   1.952   2.340   2.082 -0.1214  0.1397  0.4790
 7100TIP3    H145495   1.963   2.370   2.172 -3.0799  0.5571  0.7774
 7100TIP3    H245496   1.861   2.311   2.076  0.5696 -2.0071 -1.8069
 7101TIP3   OH245497   1.485   0.229   9.069 -0.1589 -0.1332  0.2001
 7101TIP3    H145498   1.540   0.159   9.033  0.2124  0.6057 -0.6877
 7101TIP3    H245499   1.466   0.285   8.994 -0.4958  0.6944  0.8990
 7102TIP3   OH245500   0.584   4.656   9.898  0.4366  0.1713  0.0697
 7102TIP3    H145501   0.555   4.604   9.973 -0.8574  0.9450  0.1327
 7102TIP3    H245502   0.503   4.680   9.853  1.1948 -0.2913 -1.6070
 7103TIP3   OH245503   3.320   6.578   7.756  0.2777  0.1455  1.2191
 7103TIP3    H145504   3.236   6.553   7.717  1.8289 -0.8907 -1.7319
 7103TIP3    H245505   3.314   6.546   7.847 -2.3921 -0.0901  1.0458
 7104TIP3   OH245506   3.634   1.789   9.407  0.2056  0.5635 -0.1254
 7104TIP3    H145507   3.720   1.826   9.427 -0.1080  1.6281 -0.6320
 7104TIP3    H245508   3.573   1.860   9.426 -0.5436 -0.1135  0.0312
 7105TIP3   OH245509   5.520   3.946   0.109  0.0577 -0.1536 -0.2169
 7105TIP3    H145510   5.614   3.957   0.096 -0.1786  1.8378 -0.4938
 7105TIP3    H245511   5.501   3.991   0.192 -0.9243  1.2228 -1.1441
 7106TIP3   OH245512   3.423   6.466   7.177  0.5442  0.0455  0.1034
 7106TIP3    H145513   3.470   6.528   7.121  2.2032 -0.3648  0.9746
 7106TIP3    H245514   3.410   6.513   7.260  1.0080 -0.4419  0.4620
 7107TIP3   OH245515   0.537   4.199   1.889 -0.0669 -0.2127 -0.0745
 7107TIP3    H145516   0.531   4.117   1.839 -2.2450 -0.0050 -0.2125
 7107TIP3    H245517   0.503   4.266   1.830 -0.6314  0.3910  0.9198
 7108TIP3   OH245518   4.713   1.197   0.857 -0.2704 -0.0927 -0.0369
 7108TIP3    H145519   4.791   1.251   0.842 -1.3330  1.3321 -0.6469
 7108TIP3    H245520   4.646   1.234   0.799 -0.5274 -3.3923 -2.1549
 7109TIP3   OH245521   2.424   4.209   3.023  0.0948 -0.2503  0.3543
 7109TIP3    H145522   2.404   4.228   3.115 -0.6935  1.2910 -0.1065
 7109TIP3    H245523   2.358   4.257   2.974  1.3418  0.0904 -1.0672
 7110TIP3   OH245524   4.846   2.889   7.156 -0.3302  0.4090 -0.1122
 7110TIP3    H145525   4.820   2.816   7.100 -1.8652 -0.2727  1.3595
 7110TIP3    H245526   4.777   2.893   7.222  1.8583  0.4922  2.3303
 7111TIP3   OH245527   0.666   4.095   7.630 -0.0481  0.1537 -0.0142
 7111TIP3    H145528   0.597   4.153   7.662 -0.0018  0.2611 -0.1050
 7111TIP3    H245529   0.672   4.114   7.537  1.2546  1.3857  0.2804
 7112TIP3   OH245530   0.731   4.008   8.710 -0.1119 -0.6333 -0.2020
 7112TIP3    H145531   0.717   4.074   8.777 -2.5515 -0.1411 -1.0767
 7112TIP3    H245532   0.825   3.987   8.715  0.2980  1.3184  1.5076
 7113TIP3   OH245533   2.512   0.099   9.404 -0.0393  0.1578 -0.1037
 7113TIP3    H145534   2.477   0.046   9.333 -1.0758  0.1005  0.4302
 7113TIP3    H245535   2.563   0.038   9.457  1.3820  0.3509 -1.1836
 7114TIP3   OH245536   4.700   1.412   1.930 -0.2521 -0.7321 -0.2320
 7114TIP3    H145537   4.746   1.364   1.998  0.6179  1.3153  0.7160
 7114TIP3    H245538   4.751   1.397   1.851  1.1840  0.2142  0.4701
 7115TIP3   OH245539   5.755   2.627   1.580  0.0370  0.0502 -0.2779
 7115TIP3    H145540   5.740   2.557   1.516  0.9972 -1.4353  1.0471
 7115TIP3    H245541   5.849   2.623   1.597 -0.0611  1.0237  0.5553
 7116TIP3   OH245542   4.913   5.538   8.251 -0.0574  0.3580 -0.2737
 7116TIP3    H145543   4.923   5.622   8.294  0.7886  0.5844 -0.8928
 7116TIP3    H245544   4.956   5.475   8.309  0.9170  0.6331 -0.6758
 7117TIP3   OH245545   5.494   6.263   9.088 -0.1271 -0.1030 -0.1350
 7117TIP3    H145546   5.401   6.282   9.073  0.4277  1.5168 -1.8352
 7117TIP3    H245547   5.508   6.179   9.045 -0.9450 -0.7902  0.8663
 7118TIP3   OH245548   5.600   3.056   1.705 -0.0061  0.0646  0.0920
 7118TIP3    H145549   5.594   3.090   1.794  0.6127  0.1112  0.1207
 7118TIP3    H245550   5.602   2.961   1.715 -2.7048 -0.0943 -0.0388
 7119TIP3   OH245551   5.287   4.960   7.794  0.0279 -0.6468 -0.1386
 7119TIP3    H145552   5.303   4.932   7.704 -0.3508  0.8604 -0.7090
 7119TIP3    H245553   5.237   5.041   7.785  0.7545  0.0172  1.4086
 7120TIP3   OH245554   0.443   2.535   1.419  0.1492 -0.4974  0.5099
 7120TIP3    H145555   0.416   2.483   1.344 -0.1573 -0.5459  0.6511
 7120TIP3    H245556   0.379   2.513   1.488 -1.4589  1.8296 -0.1104
 7121TIP3   OH245557   3.847   5.598   7.508  0.4146 -0.4127  0.0926
 7121TIP3    H145558   3.891   5.513   7.504 -3.3646 -2.7903  3.0076
 7121TIP3    H245559   3.891   5.644   7.579  1.2134 -0.6878 -0.2081
 7122TIP3   OH245560   3.229   2.969   0.975 -0.8703  0.2644  0.1056
 7122TIP3    H145561   3.298   3.035   0.969 -0.4532 -0.1959 -0.2817
 7122TIP3    H245562   3.265   2.904   1.036 -0.7118 -0.2633 -0.5373
 7123TIP3   OH245563   1.468   6.860   7.248  0.0526  0.7954 -0.0593
 7123TIP3    H145564   1.449   6.847   7.341  1.2064  1.2049  0.2515
 7123TIP3    H245565   1.521   6.784   7.224 -0.8719  0.3015 -0.5935
 7124TIP3   OH245566   3.382   5.988   0.658  0.3187  0.1790 -0.2546
 7124TIP3    H145567   3.428   5.915   0.617  0.8925  0.0938  0.5273
 7124TIP3    H245568   3.452   6.044   0.692 -0.1057  1.2194 -1.0491
 7125TIP3   OH245569   1.155   0.525   2.157 -0.1789  0.0863  0.9953
 7125TIP3    H145570   1.228   0.503   2.100  0.8922  2.0232  1.5197
 7125TIP3    H245571   1.143   0.448   2.212 -1.9340 -2.2919 -2.3594
 7126TIP3   OH245572   6.415   6.420   0.207 -0.0444  0.5201  0.4021
 7126TIP3    H145573   6.417   6.493   0.145  0.0496  0.0741 -0.1341
 7126TIP3    H245574   6.333   6.430   0.254 -0.4353  0.4911 -0.2665
 7127TIP3   OH245575   5.330   7.267   7.426  0.8372  0.1535 -0.2480
 7127TIP3    H145576   5.234   7.276   7.428  0.8340 -0.0053  0.2690
 7127TIP3    H245577   5.347   7.218   7.346  0.6206  1.8622 -1.4120
 7128TIP3   OH245578   1.591   7.583   7.961 -0.0956  0.0614 -0.1210
 7128TIP3    H145579   1.552   7.511   7.911 -1.1354 -0.1122  0.8972
 7128TIP3    H245580   1.621   7.543   8.042 -2.8058  1.0622  1.5285
 7129TIP3   OH245581   0.202   4.213   9.891 -0.5192  0.9436 -0.9298
 7129TIP3    H145582   0.124   4.268   9.885 -0.2151  1.5599  0.3550
 7129TIP3    H245583   0.273   4.270   9.863 -0.2418  1.1314  0.1096
 7130TIP3   OH245584   0.860   0.914   2.457  0.0894 -0.1646 -0.8472
 7130TIP3    H145585   0.944   0.954   2.437  0.6485 -0.7621  0.1939
 7130TIP3    H245586   0.815   0.907   2.372  0.1592  2.1293 -1.1354
 7131TIP3   OH245587   0.517   0.566   9.651  0.0863  0.0843 -0.2916
 7131TIP3    H145588   0.578   0.632   9.616 -0.4441  0.7458 -0.0036
 7131TIP3    H245589   0.497   0.510   9.577  0.2441  0.4842 -0.6430
 7132TIP3   OH245590   5.464   3.136   0.625  0.0120  0.0073  0.3286
 7132TIP3    H145591   5.444   3.207   0.564  1.4414  0.4639  0.3514
 7132TIP3    H245592   5.453   3.056   0.573  0.4626  0.3587 -0.3196
 7133TIP3   OH245593   4.791   0.564   8.779 -0.0271  0.1154 -0.1890
 7133TIP3    H145594   4.824   0.523   8.700 -2.9146 -1.3567 -0.7696
 7133TIP3    H245595   4.793   0.496   8.846  0.9428  0.9016  0.6251
 7134TIP3   OH245596   0.186   4.301   7.322 -0.5577  0.0248  0.2155
 7134TIP3    H145597   0.276   4.322   7.296 -0.6525  1.3085  0.8499
 7134TIP3    H245598   0.144   4.387   7.336 -2.0685 -0.5198 -0.6705
 7135TIP3   OH245599   5.728   0.505   8.028 -0.1247 -0.6636 -0.1088
 7135TIP3    H145600   5.678   0.486   8.107  2.5026 -1.4240  1.4858
 7135TIP3    H245601   5.750   0.598   8.035  1.9588 -1.2152  1.2553
 7136TIP3   OH245602   0.152   3.578   9.612  0.2267 -0.2076  0.0167
 7136TIP3    H145603   0.065   3.562   9.650  0.1188 -2.5633 -1.1166
 7136TIP3    H245604   0.134   3.606   9.522  0.6309  1.5338  0.4240
 7137TIP3   OH245605   0.911   1.580   1.587  0.7283  0.0930  0.2410
 7137TIP3    H145606   0.870   1.631   1.657  1.0671 -0.3313  0.7554
 7137TIP3    H245607   0.955   1.645   1.533  2.5070  0.2450  1.7822
 7138TIP3   OH245608   6.617   5.695   8.818  0.2810 -0.2897 -0.1728
 7138TIP3    H145609   6.537   5.726   8.775  1.3024  2.3932 -0.3074
 7138TIP3    H245610   6.684   5.758   8.793  2.3739 -2.1783  0.3469
 7139TIP3   OH245611   7.534   6.907   9.142 -0.9237  0.0133 -0.3204
 7139TIP3    H145612   7.602   6.847   9.171  1.5760  3.0082  0.5690
 7139TIP3    H245613   7.464   6.897   9.207 -0.7888 -2.1547 -0.4509
 7140TIP3   OH245614   1.160   2.802   9.231 -0.0306  0.0997 -0.1155
 7140TIP3    H145615   1.237   2.854   9.205  1.9292 -1.9849  1.1153
 7140TIP3    H245616   1.112   2.787   9.150  1.7797  0.0964 -1.2418
 7141TIP3   OH245617   5.232   7.212   9.882  0.7642 -0.1011 -0.2309
 7141TIP3    H145618   5.214   7.297   9.842 -1.0605 -0.3903 -0.0840
 7141TIP3    H245619   5.320   7.190   9.851  0.8674  1.3594 -1.0916
 7142TIP3   OH245620   6.318   6.503   1.133 -0.0659 -0.5200  0.3082
 7142TIP3    H145621   6.225   6.483   1.129 -0.1245 -0.1278 -0.5213
 7142TIP3    H245622   6.325   6.577   1.194 -0.2626 -0.7100  0.5630
 7143TIP3   OH245623   4.306   0.566   0.625  0.7171 -0.2953  0.6347
 7143TIP3    H145624   4.357   0.493   0.659 -1.0297 -3.0480 -2.0979
 7143TIP3    H245625   4.361   0.603   0.555 -0.0539 -1.8524 -0.8492
 7144TIP3   OH245626   5.665   0.710   9.288 -0.5613  0.1195 -0.1626
 7144TIP3    H145627   5.730   0.756   9.341 -0.7781 -0.3764  0.5418
 7144TIP3    H245628   5.704   0.706   9.201  0.4072 -0.2904  0.2796
 7145TIP3   OH245629   6.715   3.487   1.296  0.2172  0.4440  0.0704
 7145TIP3    H145630   6.625   3.469   1.271  0.3749 -2.9049  1.3730
 7145TIP3    H245631   6.710   3.568   1.347 -1.5791  1.7255 -1.9678
 7146TIP3   OH245632   4.950   3.782   9.994  0.4293  0.8202 -0.3216
 7146TIP3    H145633   4.950   3.831   9.912  2.1743 -0.3981 -1.1040
 7146TIP3    H245634   4.898   3.704   9.975 -0.8891  1.4985  0.3923
 7147TIP3   OH245635   2.400   6.685   0.673 -0.0046 -0.0961  0.1660
 7147TIP3    H145636   2.426   6.767   0.715 -0.6285 -0.0371  0.4461
 7147TIP3    H245637   2.316   6.705   0.632 -0.2462 -0.6496  0.3863
 7148TIP3   OH245638   2.202   6.148   2.019 -0.2695  0.2323  0.5230
 7148TIP3    H145639   2.158   6.118   2.099  0.5520 -1.4663  0.3670
 7148TIP3    H245640   2.177   6.085   1.952 -1.2096  1.8146 -0.6896
 7149TIP3   OH245641   4.601   6.233   0.160 -0.3228  0.4853  0.5150
 7149TIP3    H145642   4.652   6.311   0.138 -1.3598  1.0174 -0.1245
 7149TIP3    H245643   4.608   6.177   0.083 -1.1711  0.8293  0.1752
 7150TIP3   OH245644   5.064   6.571   2.097  0.2308  0.6268  0.4127
 7150TIP3    H145645   5.125   6.617   2.154 -0.2637  1.4953  0.2598
 7150TIP3    H245646   4.978   6.590   2.133  0.0839 -1.4649  1.2561
 7151TIP3   OH245647   1.650   2.606   7.529 -0.1945  0.0980 -0.2454
 7151TIP3    H145648   1.658   2.573   7.439  0.5648  0.1450 -0.2004
 7151TIP3    H245649   1.558   2.590   7.552 -0.0888 -1.0717 -0.5762
 7152TIP3   OH245650   1.126   1.788   0.168  0.1742 -0.2580 -0.6226
 7152TIP3    H145651   1.092   1.870   0.205 -0.3983 -0.0983 -1.4625
 7152TIP3    H245652   1.180   1.751   0.237  0.7351  1.0082 -0.3437
 7153TIP3   OH245653   6.665   2.232   8.527  0.2126 -0.6448  0.3413
 7153TIP3    H145654   6.634   2.180   8.453 -0.2705 -0.7684  0.6280
 7153TIP3    H245655   6.758   2.212   8.533  0.1856 -0.8895 -0.0229
 7154TIP3   OH245656   4.235   6.498   2.204  0.0892 -0.6083 -0.5907
 7154TIP3    H145657   4.320   6.457   2.186  0.1491 -0.6378 -0.2339
 7154TIP3    H245658   4.249   6.590   2.183  0.8840 -0.1675  1.6399
 7155TIP3   OH245659   0.547   4.319   0.400  0.0033  0.5160 -0.2001
 7155TIP3    H145660   0.575   4.251   0.461 -0.1970  0.5054 -0.1179
 7155TIP3    H245661   0.452   4.305   0.391  0.3705 -1.0532 -2.4375
 7156TIP3   OH245662   2.475   1.138   3.176  0.4661  0.5438 -0.1997
 7156TIP3    H145663   2.486   1.226   3.139  0.3068  0.1124 -1.2911
 7156TIP3    H245664   2.564   1.112   3.202  0.8297  0.2626 -1.6517
 7157TIP3   OH245665   0.093   0.844   9.414  0.5764  0.5543  0.2883
 7157TIP3    H145666   0.093   0.939   9.399  0.5599  0.9780  2.5639
 7157TIP3    H245667   0.150   0.832   9.489  1.4032 -1.3977 -0.5936
 7158TIP3   OH245668   1.335   5.867   0.542  0.4403 -0.8965 -0.3881
 7158TIP3    H145669   1.409   5.900   0.491  1.8197 -2.0161  0.8208
 7158TIP3    H245670   1.338   5.772   0.532 -2.2382 -0.8987 -2.1394
 7159TIP3   OH245671   3.424   1.612   0.276 -0.0599  0.0109  0.4464
 7159TIP3    H145672   3.449   1.695   0.236 -0.3650  0.3140  0.8748
 7159TIP3    H245673   3.440   1.624   0.369 -2.6018  0.5445  0.8928
 7160TIP3   OH245674   7.138   6.876   9.353 -0.7788 -0.4070 -0.0848
 7160TIP3    H145675   7.134   6.930   9.274 -1.6548 -0.8703 -0.3732
 7160TIP3    H245676   7.199   6.805   9.329 -1.3895 -0.8000 -0.5247
 7161TIP3   OH245677   3.631   1.452   1.351  0.0514 -0.3376 -0.0335
 7161TIP3    H145678   3.544   1.489   1.335  0.3845  0.5850  0.2497
 7161TIP3    H245679   3.620   1.358   1.334 -1.9342 -0.9480  3.5069
 7162TIP3   OH245680   4.699   1.273   7.575  0.1998  0.3239  0.2492
 7162TIP3    H145681   4.623   1.307   7.623  0.0732  0.3798  0.0129
 7162TIP3    H245682   4.712   1.185   7.610 -0.4057  0.0525 -0.1871
 7163TIP3   OH245683   6.131   6.059   1.373 -0.1819  1.1766  0.3767
 7163TIP3    H145684   6.163   6.135   1.421 -1.0325  1.9329 -0.2091
 7163TIP3    H245685   6.118   5.991   1.439  1.3870  1.2518  0.7893
 7164TIP3   OH245686   6.949   1.778   0.597 -0.1020 -0.2301  0.0886
 7164TIP3    H145687   6.925   1.685   0.597 -1.5500  0.1121 -0.6524
 7164TIP3    H245688   7.015   1.786   0.666  0.4548 -1.8999 -0.2090
 7165TIP3   OH245689   1.256   6.081   8.991  0.0516 -0.6939 -0.3419
 7165TIP3    H145690   1.245   6.101   9.083  1.1218  0.3519 -0.4292
 7165TIP3    H245691   1.167   6.065   8.959 -0.3528 -0.7495  0.7851
 7166TIP3   OH245692   5.645   6.906   9.227 -0.5123 -1.4303 -0.2872
 7166TIP3    H145693   5.608   6.937   9.144  0.8667  1.1381 -0.0579
 7166TIP3    H245694   5.569   6.891   9.283 -1.4680  2.3914 -0.2557
 7167TIP3   OH245695   1.382   2.520   0.171 -0.5377 -0.1051 -0.1916
 7167TIP3    H145696   1.373   2.454   0.240 -1.7218  0.1658 -0.0708
 7167TIP3    H245697   1.474   2.546   0.175 -0.2141 -1.2433  0.2166
 7168TIP3   OH245698   4.528   0.057   6.931  0.0528  0.0807 -0.0127
 7168TIP3    H145699   4.492   0.018   7.010  2.4921 -2.7120 -0.1196
 7168TIP3    H245700   4.491   0.006   6.859  1.2795 -0.3703 -0.3469
 7169TIP3   OH245701   2.483   6.216   1.214  0.0669  0.6245 -0.4450
 7169TIP3    H145702   2.564   6.181   1.251  0.3139  0.0439 -1.4996
 7169TIP3    H245703   2.413   6.182   1.270  0.4967  0.5562  0.0550
 7170TIP3   OH245704   1.009   2.810   9.710 -0.1604  0.3505 -0.2853
 7170TIP3    H145705   0.959   2.861   9.774 -0.5247 -0.8589  0.4262
 7170TIP3    H245706   1.059   2.875   9.661 -2.3692  1.6194 -0.9785
 7171TIP3   OH245707   4.610   4.552   0.249  0.0756 -0.1205  0.1562
 7171TIP3    H145708   4.520   4.548   0.219 -0.1491  0.2506  0.7706
 7171TIP3    H245709   4.615   4.485   0.318  0.0571  0.4033  0.6697
 7172TIP3   OH245710   5.463   6.295   6.533  0.3974  0.2748 -0.1475
 7172TIP3    H145711   5.521   6.318   6.460 -0.2889 -1.5889 -1.3690
 7172TIP3    H245712   5.407   6.226   6.498 -0.3783 -0.2608  1.9855
 7173TIP3   OH245713   5.249   1.748   1.390 -0.0002  0.3688  0.0738
 7173TIP3    H145714   5.193   1.777   1.462  0.2461  1.0025  0.0095
 7173TIP3    H245715   5.188   1.704   1.330 -0.3067  0.3903  0.3626
 7174TIP3   OH245716   4.330   7.058   2.124  0.1063 -0.3620  0.5211
 7174TIP3    H145717   4.381   7.077   2.046  0.2687 -1.3928  0.3707
 7174TIP3    H245718   4.239   7.074   2.098  0.2143 -0.0990  0.3067
 7175TIP3   OH245719   0.699   2.165   7.250  0.3505  0.2919  0.1153
 7175TIP3    H145720   0.692   2.220   7.172 -1.4096 -2.0882 -1.5489
 7175TIP3    H245721   0.793   2.160   7.268  0.6852  2.0418 -0.9477
 7176TIP3   OH245722   5.870   0.937   8.893  0.4552 -0.1834 -0.0047
 7176TIP3    H145723   5.945   0.941   8.834  0.4325 -1.4184 -0.1480
 7176TIP3    H245724   5.823   1.019   8.878  1.0610  0.0256 -0.8565
 7177TIP3   OH245725   6.396   6.293   9.130  0.2940 -0.2336  0.1333
 7177TIP3    H145726   6.438   6.229   9.188  3.3993 -0.2811 -1.9076
 7177TIP3    H245727   6.332   6.337   9.185  0.3439 -2.8302  2.5106
 7178TIP3   OH245728   5.882   0.150   7.540  0.2290 -0.0122  0.5570
 7178TIP3    H145729   5.826   0.211   7.492  0.2815 -0.7426 -0.4593
 7178TIP3    H245730   5.933   0.106   7.473 -0.1978 -1.5685  1.2123
 7179TIP3   OH245731   3.962   5.019   1.010  0.2680 -0.4437 -0.2306
 7179TIP3    H145732   3.925   4.957   1.073 -0.1005 -0.6458 -0.6372
 7179TIP3    H245733   4.057   5.009   1.020  0.2453 -2.2484 -1.3977
 7180TIP3   OH245734   6.231   2.120   9.545 -0.1276  0.3423 -0.2047
 7180TIP3    H145735   6.286   2.073   9.483  1.1603  1.6236 -0.0794
 7180TIP3    H245736   6.174   2.175   9.490  1.9097  2.4789 -0.3261
 7181TIP3   OH245737   3.863   6.884   7.998  0.6340 -0.8569  0.2801
 7181TIP3    H145738   3.898   6.907   8.084 -0.2183  1.5578  0.0339
 7181TIP3    H245739   3.880   6.960   7.944 -1.7400 -1.0267 -0.8174
 7182TIP3   OH245740   0.023   0.890   1.178  0.5260  0.4750  0.0894
 7182TIP3    H145741  -0.032   0.963   1.152  0.8241  0.1974 -1.3809
 7182TIP3    H245742   0.016   0.888   1.274 -3.8292 -0.9386 -0.0302
 7183TIP3   OH245743   4.064   7.126   2.267 -0.4051 -0.0224 -0.1989
 7183TIP3    H145744   4.023   7.206   2.233 -2.0411  0.0693  1.8243
 7183TIP3    H245745   4.139   7.157   2.317  0.0018  0.0789 -0.8506
 7184TIP3   OH245746   4.998   1.320   0.914  0.0337 -0.5447 -0.2514
 7184TIP3    H145747   5.053   1.265   0.858  0.0945 -2.1576  1.3087
 7184TIP3    H245748   5.006   1.282   1.001 -0.7556  1.3481  0.7247
 7185TIP3   OH245749   6.750   5.977   9.623  0.1152 -0.1808  0.2367
 7185TIP3    H145750   6.733   5.901   9.678  2.1193  0.3915  1.7309
 7185TIP3    H245751   6.730   6.052   9.678  1.1882  0.3947 -0.1214
 7186TIP3   OH245752   0.951   4.239   8.182  0.2779 -0.7798 -0.4195
 7186TIP3    H145753   0.971   4.206   8.270 -0.2580  1.0137  0.4117
 7186TIP3    H245754   0.963   4.333   8.188  1.3618 -0.7303 -2.6230
 7187TIP3   OH245755   7.439   2.533   8.877 -0.0376 -0.2338  0.9376
 7187TIP3    H145756   7.471   2.453   8.919 -1.3306 -0.7633  0.9688
 7187TIP3    H245757   7.422   2.593   8.950 -1.7940 -0.9709  1.1764
 7188TIP3   OH245758   2.208   7.663   8.454  0.4339 -0.3197  0.5641
 7188TIP3    H145759   2.135   7.622   8.500 -0.3453  1.8083  1.3712
 7188TIP3    H245760   2.279   7.665   8.518 -0.0967  1.0751  1.1631
 7189TIP3   OH245761   2.388   4.967   2.390 -0.3324  0.1710  0.2905
 7189TIP3    H145762   2.412   5.036   2.328 -2.9778 -0.6460 -1.8292
 7189TIP3    H245763   2.300   4.992   2.420 -1.2580 -2.1182 -0.3560
 7190TIP3   OH245764   6.613   4.406   0.907  0.3571 -0.3540  0.8597
 7190TIP3    H145765   6.565   4.455   0.975  0.1737  0.2088  0.3349
 7190TIP3    H245766   6.695   4.455   0.896  1.4610 -1.7672  2.3348
 7191TIP3   OH245767   3.842   6.658   3.094  0.1484 -0.5028  0.4195
 7191TIP3    H145768   3.848   6.564   3.077  0.7086  0.0433 -3.1162
 7191TIP3    H245769   3.932   6.685   3.113  0.3911 -0.3675 -0.8501
 7192TIP3   OH245770   6.980   4.998   0.036  0.1511  0.3483  0.2345
 7192TIP3    H145771   6.916   4.959  -0.024  0.4197  1.4216 -0.7898
 7192TIP3    H245772   7.013   5.075  -0.012  0.1252  1.4334  1.8878
 7193TIP3   OH245773   6.999   2.684   1.378  0.4557 -0.2591  0.4553
 7193TIP3    H145774   7.047   2.605   1.401  2.2760  0.4565 -0.6248
 7193TIP3    H245775   6.912   2.672   1.415  0.7052 -2.7129  0.3863
 7194TIP3   OH245776   2.831   2.276   2.271  0.0019 -0.2346  0.0295
 7194TIP3    H145777   2.747   2.240   2.301  0.5330  0.2016  2.2011
 7194TIP3    H245778   2.850   2.347   2.332  1.9458 -0.2897 -0.4414
 7195TIP3   OH245779   0.767   3.071   1.691  0.0342  0.1668 -0.0885
 7195TIP3    H145780   0.808   3.045   1.773 -1.4192 -0.0881  0.6043
 7195TIP3    H245781   0.683   3.110   1.718 -1.4063 -1.7474 -1.5103
 7196TIP3   OH245782   2.911   6.854   8.771  0.0989  0.1131 -0.2697
 7196TIP3    H145783   2.838   6.802   8.736  0.0069  0.7090 -0.9875
 7196TIP3    H245784   2.979   6.789   8.791 -0.6126 -0.4378  0.3775
 7197TIP3   OH245785   2.786   6.456   6.646  0.4040 -0.1036  0.1402
 7197TIP3    H145786   2.844   6.522   6.607  0.5130 -0.4226 -0.2443
 7197TIP3    H245787   2.708   6.505   6.671  0.3587  0.1166 -0.4229
 7198TIP3   OH245788   3.388   6.970   8.602 -0.1090 -0.0244 -0.7084
 7198TIP3    H145789   3.338   6.904   8.555 -1.6183  0.0665  0.7064
 7198TIP3    H245790   3.355   6.967   8.692  0.2253  2.1977 -0.4487
 7199TIP3   OH245791   2.961   4.958   0.142  0.6922  0.4725 -0.0864
 7199TIP3    H145792   2.944   5.005   0.224 -0.2428  2.3018 -1.2572
 7199TIP3    H245793   2.875   4.947   0.102  1.2873  1.4070 -1.7260
 7200TIP3   OH245794   5.606   4.955   1.245  0.4523  0.1366  0.8464
 7200TIP3    H145795   5.578   5.031   1.296 -0.5270 -0.0016  0.5420
 7200TIP3    H245796   5.530   4.935   1.190  0.5329 -1.3237  1.2365
 7201TIP3   OH245797   3.519   5.363   0.136  0.0704 -0.1643 -0.7160
 7201TIP3    H145798   3.570   5.430   0.182 -0.8810  0.2393 -0.2292
 7201TIP3    H245799   3.428   5.387   0.151 -0.2748 -0.9198 -1.5160
 7202TIP3   OH245800   3.981   6.989   8.265  0.2166 -0.1344  0.5741
 7202TIP3    H145801   3.964   7.081   8.282  0.5194  0.2343 -0.9405
 7202TIP3    H245802   4.041   6.962   8.335  0.3683  0.8981  0.8635
 7203TIP3   OH245803   5.190   2.234   8.858 -0.1966 -0.0515  0.3918
 7203TIP3    H145804   5.259   2.169   8.874  0.3988  0.2590 -0.7884
 7203TIP3    H245805   5.154   2.209   8.773  0.3832  1.4399 -0.3289
 7204TIP3   OH245806   5.324   6.328   9.598  0.1482 -0.1630 -0.8481
 7204TIP3    H145807   5.341   6.318   9.504  0.5000 -0.5071 -0.7548
 7204TIP3    H245808   5.248   6.272   9.614  1.4467 -1.9565 -0.5337
 7205TIP3   OH245809   1.651   3.749   1.379  0.0370  0.4777  0.4431
 7205TIP3    H145810   1.717   3.681   1.367  0.5698  1.1211 -0.3949
 7205TIP3    H245811   1.603   3.750   1.296  1.4231  2.5410 -0.4441
 7206TIP3   OH245812   2.847   4.411   0.902  0.0847 -0.0206 -0.4129
 7206TIP3    H145813   2.844   4.331   0.955  0.5028 -1.7271 -2.7643
 7206TIP3    H245814   2.813   4.479   0.959  0.5622 -1.6838  2.0309
 7207TIP3   OH245815   2.498   6.301   0.771  0.0891 -0.1662  0.6582
 7207TIP3    H145816   2.448   6.273   0.694  2.3600  0.2116 -1.0994
 7207TIP3    H245817   2.574   6.242   0.773  1.2903  1.3053  1.1439
 7208TIP3   OH245818   6.104   3.810   1.583  0.0113 -0.9345 -0.8275
 7208TIP3    H145819   6.178   3.837   1.637  0.4774 -0.8050 -1.5181
 7208TIP3    H245820   6.053   3.753   1.640 -1.5196  2.0227  1.0426
 7209TIP3   OH245821   2.333   6.610   2.373 -0.0940 -0.3591 -0.3447
 7209TIP3    H145822   2.416   6.649   2.401  0.3258 -1.2043 -0.3780
 7209TIP3    H245823   2.342   6.517   2.395 -0.7786 -0.5728 -0.9446
 7210TIP3   OH245824   1.636   0.013   9.016 -0.3946 -0.6485 -0.4565
 7210TIP3    H145825   1.720   0.008   9.062 -1.0678  0.4201  0.9672
 7210TIP3    H245826   1.621  -0.076   8.984  1.5071 -0.7364 -1.2031
 7211TIP3   OH245827   0.442   6.495   0.721  0.1919  0.0093 -0.5633
 7211TIP3    H145828   0.351   6.500   0.690 -0.5654 -1.7508  1.2051
 7211TIP3    H245829   0.468   6.404   0.708  0.7109 -0.1936  1.4720
 7212TIP3   OH245830   3.726   5.232   2.217 -0.1206  0.2733  0.3694
 7212TIP3    H145831   3.795   5.298   2.220 -1.0111  1.2185  0.6077
 7212TIP3    H245832   3.742   5.177   2.294  1.2286 -0.4351 -0.3919
 7213TIP3   OH245833   1.485   5.257   0.104  0.1296  0.4055  0.0783
 7213TIP3    H145834   1.546   5.282   0.035  1.3316 -2.3328 -0.0042
 7213TIP3    H245835   1.420   5.201   0.060  1.3470 -2.0156  1.1517
 7214TIP3   OH245836   1.149   1.748   2.432  0.1807 -0.1408 -0.1154
 7214TIP3    H145837   1.186   1.721   2.516  0.3170 -0.1237 -0.1701
 7214TIP3    H245838   1.162   1.673   2.374 -0.6890 -0.4822  0.1131
 7215TIP3   OH245839   0.983   5.565   1.684 -0.3718  0.7502 -0.5558
 7215TIP3    H145840   1.068   5.561   1.639  0.0509  1.9063  0.0884
 7215TIP3    H245841   0.979   5.654   1.719 -1.4216  0.4003  0.2644
 7216TIP3   OH245842   0.521   4.444   9.063  0.6041  0.3458 -0.3699
 7216TIP3    H145843   0.488   4.365   9.105  1.3679  0.4655  0.4810
 7216TIP3    H245844   0.597   4.469   9.115  1.7320  0.3611 -1.9699
 7217TIP3   OH245845   3.652   6.747   2.915  0.0409 -0.5774 -0.3200
 7217TIP3    H145846   3.718   6.714   2.976  0.9130 -0.0756 -0.9737
 7217TIP3    H245847   3.580   6.684   2.921  1.0955 -1.8472 -0.5095
 7218TIP3   OH245848   2.731   1.280   1.442 -0.1318  0.1190  0.2449
 7218TIP3    H145849   2.653   1.235   1.473  0.7929 -0.9366  1.1296
 7218TIP3    H245850   2.702   1.369   1.423 -1.8048 -0.5754 -0.6461
 7219TIP3   OH245851   6.075   4.714   8.287 -0.3394 -0.2312  0.3158
 7219TIP3    H145852   6.147   4.777   8.280 -0.6663  0.0025 -1.7097
 7219TIP3    H245853   6.025   4.727   8.206 -0.9457 -2.4427  0.2757
 7220TIP3   OH245854   6.174   0.137   8.438 -0.7320  0.1682  0.2567
 7220TIP3    H145855   6.221   0.158   8.357 -1.1126  0.1228  0.0196
 7220TIP3    H245856   6.176   0.042   8.444 -0.4174  0.1884  0.4750
 7221TIP3   OH245857   4.793   5.542   7.772 -0.3680 -0.1905  0.4719
 7221TIP3    H145858   4.734   5.608   7.736 -1.1827 -1.8032 -1.3270
 7221TIP3    H245859   4.770   5.538   7.865 -0.2307  2.0565  0.6553
 7222TIP3   OH245860   0.412   4.422   9.823 -0.1716 -0.1605  0.5258
 7222TIP3    H145861   0.330   4.461   9.793  0.2275  2.4354  2.4347
 7222TIP3    H245862   0.411   4.435   9.918  1.5930 -1.8685  0.8484
 7223TIP3   OH245863   6.454   6.654   7.601 -0.8118  0.8143  0.4880
 7223TIP3    H145864   6.491   6.668   7.688 -2.1325  0.8381  1.0773
 7223TIP3    H245865   6.359   6.662   7.614 -0.9774  2.1767 -1.2148
 7224TIP3   OH245866   2.695   4.042   0.662 -0.0373 -0.1095 -1.0429
 7224TIP3    H145867   2.715   4.135   0.675  1.9403 -0.5173 -0.7433
 7224TIP3    H245868   2.745   4.018   0.583 -2.4258 -0.4130 -2.5541
 7225TIP3   OH245869   4.716   3.401   1.700  0.0377 -0.3512 -0.0161
 7225TIP3    H145870   4.621   3.398   1.703 -0.1045 -1.1487 -2.4976
 7225TIP3    H245871   4.736   3.493   1.682 -0.4809 -0.5667 -1.9805
 7226TIP3   OH245872   2.899   3.750   9.681  0.5013 -0.3673  0.6649
 7226TIP3    H145873   2.889   3.845   9.685  0.9878 -0.3569  1.7832
 7226TIP3    H245874   2.971   3.736   9.619 -0.5027 -0.0837 -0.6024
 7227TIP3   OH245875   2.194   6.081   2.695  0.0678  0.1325  0.7707
 7227TIP3    H145876   2.284   6.085   2.663 -0.8297 -0.8553 -2.1854
 7227TIP3    H245877   2.194   6.011   2.760  1.7726  1.4807  2.3087
 7228TIP3   OH245878   2.978   4.155   7.985 -0.2455  0.3699  0.8135
 7228TIP3    H145879   3.033   4.127   8.058  1.2180 -0.4808 -0.5577
 7228TIP3    H245880   3.034   4.149   7.908 -1.7577  1.1622 -0.4223
 7229TIP3   OH245881   2.688   4.626   8.537  0.5661 -0.9994 -0.1615
 7229TIP3    H145882   2.694   4.696   8.601  1.1614  1.8115 -3.0370
 7229TIP3    H245883   2.595   4.619   8.516  0.6352 -0.0308 -0.8521
 7230TIP3   OH245884   3.295   4.013   8.439  0.3235  0.0662 -0.1781
 7230TIP3    H145885   3.378   3.965   8.445  0.7283  0.8263  0.3420
 7230TIP3    H245886   3.270   4.030   8.530  0.9398  2.1244 -0.3533
 7231TIP3   OH245887   2.465   2.541   8.127  0.9361 -0.7932 -0.0263
 7231TIP3    H145888   2.555   2.559   8.100  0.4644 -1.6817 -2.4688
 7231TIP3    H245889   2.470   2.455   8.169  1.0298 -1.6223 -1.6616
 7232TIP3   OH245890   7.264   0.542   0.560  0.1930 -0.1024 -0.0650
 7232TIP3    H145891   7.258   0.551   0.465 -1.0396 -1.3889 -0.1530
 7232TIP3    H245892   7.207   0.611   0.594  1.1384  0.7765 -0.2097
 7233TIP3   OH245893   1.534   3.367   8.453 -0.3134  0.4644 -0.1655
 7233TIP3    H145894   1.523   3.363   8.548 -0.2874  1.3862 -0.1182
 7233TIP3    H245895   1.447   3.344   8.419  0.0015 -1.1472  0.0403
 7234TIP3   OH245896   6.250   6.406   9.796  0.2087 -0.1288 -0.1270
 7234TIP3    H145897   6.220   6.347   9.865 -0.6565  1.6175  1.0379
 7234TIP3    H245898   6.264   6.348   9.721 -4.3554 -1.4374 -0.2772
 7235TIP3   OH245899   1.168   4.940   9.258  0.4819  0.5443 -0.1397
 7235TIP3    H145900   1.150   4.905   9.171 -2.0226 -1.8035  1.1908
 7235TIP3    H245901   1.248   4.993   9.246  0.1844  0.4346 -3.8237
 7236TIP3   OH245902   0.161   1.423   2.048 -0.0021 -0.0439  0.2305
 7236TIP3    H145903   0.114   1.498   2.011  0.6365 -0.2463 -1.0374
 7236TIP3    H245904   0.192   1.454   2.133  1.1948  1.5354 -0.7257
 7237TIP3   OH245905   2.110   0.412   9.822 -0.0434  0.1182 -0.0263
 7237TIP3    H145906   2.057   0.446   9.750  1.0815 -0.7675 -1.3188
 7237TIP3    H245907   2.055   0.345   9.863 -0.7131  0.6752  0.0184
 7238TIP3   OH245908   6.550   7.459   7.955  0.2262  1.0653 -0.1880
 7238TIP3    H145909   6.575   7.548   7.929 -1.8855  1.7611 -0.0557
 7238TIP3    H245910   6.456   7.455   7.938  0.1341 -0.8965  0.5519
 7239TIP3   OH245911   0.567   7.171   2.059  0.0700 -0.2659  0.1407
 7239TIP3    H145912   0.650   7.205   2.093 -0.6962 -0.3137  2.2262
 7239TIP3    H245913   0.547   7.226   1.983  1.3429  0.6164  0.4193
 7240TIP3   OH245914   2.121   0.861   2.298 -0.1291  0.5266 -0.5773
 7240TIP3    H145915   2.171   0.897   2.225  1.0006  1.1990  0.4883
 7240TIP3    H245916   2.079   0.937   2.337  1.6056  0.6465  1.1941
 7241TIP3   OH245917   2.659   6.082   0.490  0.0420 -0.0681 -0.0908
 7241TIP3    H145918   2.680   6.075   0.583 -1.4710  0.2449  0.2926
 7241TIP3    H245919   2.677   6.173   0.468 -1.6064  0.4190  0.4441
 7242TIP3   OH245920   4.886   4.809   9.411 -0.6579 -0.5215 -0.9112
 7242TIP3    H145921   4.870   4.740   9.474 -0.8571  1.7665  1.7363
 7242TIP3    H245922   4.981   4.809   9.398 -0.3553  0.2783  1.0682
 7243TIP3   OH245923   7.426   4.979   0.540  0.0426 -0.1458  0.0189
 7243TIP3    H145924   7.462   5.020   0.461  0.8923  2.0167  1.4164
 7243TIP3    H245925   7.350   4.930   0.509  1.4521 -0.9977 -2.3856
 7244TIP3   OH245926   4.699   1.808   8.648 -0.3806  0.4095  0.3261
 7244TIP3    H145927   4.722   1.753   8.723 -0.4372 -1.0399 -0.6727
 7244TIP3    H245928   4.783   1.826   8.606 -0.4521  0.2725  0.1204
 7245TIP3   OH245929   0.221   4.115   9.345 -0.0432  0.5886  0.1119
 7245TIP3    H145930   0.204   4.179   9.414 -1.6499 -1.0465  1.3308
 7245TIP3    H245931   0.283   4.054   9.384  0.4195  0.6200 -0.5570
 7246TIP3   OH245932   3.453   5.289   7.640  0.3485 -0.4261  0.1215
 7246TIP3    H145933   3.426   5.197   7.637 -2.7959  0.3912 -0.1006
 7246TIP3    H245934   3.496   5.304   7.556  1.3325 -1.7782  0.3488
 7247TIP3   OH245935   6.699   1.547   8.120 -0.0451  0.1284  0.2132
 7247TIP3    H145936   6.605   1.528   8.124 -0.0837  0.3330  0.2571
 7247TIP3    H245937   6.706   1.623   8.063  0.1390 -0.1962 -0.2062
 7248TIP3   OH245938   7.307   5.780   9.557 -0.3222 -0.4069 -0.2804
 7248TIP3    H145939   7.271   5.840   9.492 -1.5173  0.2386  0.9355
 7248TIP3    H245940   7.339   5.705   9.506 -1.4971 -0.0614 -1.5794
 7249TIP3   OH245941   6.167   4.212   8.566 -0.4128 -0.2427  0.6900
 7249TIP3    H145942   6.255   4.214   8.603 -0.6940  0.1101  1.3600
 7249TIP3    H245943   6.173   4.263   8.486  0.2162 -1.0531  0.2008
 7250TIP3   OH245944   0.457   4.943   9.381  0.5987 -0.2423  0.5446
 7250TIP3    H145945   0.436   4.865   9.329  2.1389 -0.7960  0.7184
 7250TIP3    H245946   0.371   4.979   9.405 -0.1498 -2.0129  0.6648
 7251TIP3   OH245947   3.888   2.780   8.233 -0.3629 -0.2205 -0.3677
 7251TIP3    H145948   3.904   2.820   8.147  0.9373 -1.4203 -0.7259
 7251TIP3    H245949   3.830   2.706   8.214  0.7553 -1.1187 -0.4114
 7252TIP3   OH245950   0.117   6.287   1.951 -0.2063 -0.2490  0.1987
 7252TIP3    H145951   0.055   6.346   1.993 -0.2763 -1.0170  1.2193
 7252TIP3    H245952   0.085   6.200   1.973 -0.0049 -0.6695 -1.1365
 7253TIP3   OH245953   5.782   6.544   1.892 -0.0061 -0.4690  0.4441
 7253TIP3    H145954   5.796   6.632   1.856  0.5967 -0.1789  1.3516
 7253TIP3    H245955   5.754   6.559   1.982  0.1560 -1.2146  0.6271
 7254TIP3   OH245956   2.554   3.589   2.085  0.1678  0.0474  0.5047
 7254TIP3    H145957   2.643   3.623   2.094 -0.2770  1.0326  1.3112
 7254TIP3    H245958   2.506   3.656   2.037  0.0579 -0.8826 -0.7497
 7255TIP3   OH245959   2.125   1.629   9.777  0.4723  0.4140  0.3708
 7255TIP3    H145960   2.079   1.545   9.773  1.5192 -0.1578 -0.3695
 7255TIP3    H245961   2.131   1.649   9.870 -0.4700  0.0624  0.5171
 7256TIP3   OH245962   2.693   4.091   3.010  0.4671 -0.0812  0.4360
 7256TIP3    H145963   2.662   4.041   3.086  1.3225  0.1446  0.9459
 7256TIP3    H245964   2.616   4.138   2.980  0.2893  0.4636  1.6747
 7257TIP3   OH245965   5.329   0.284   0.069 -0.5641 -0.1366  0.4067
 7257TIP3    H145966   5.320   0.322   0.156  0.1547 -0.7179  0.7424
 7257TIP3    H245967   5.422   0.290   0.049 -0.6608 -0.3824 -0.1474
 7258TIP3   OH245968   1.808   3.660   2.068 -0.0477  0.1420  0.0830
 7258TIP3    H145969   1.727   3.610   2.070  0.3238 -0.4616  0.8135
 7258TIP3    H245970   1.864   3.614   2.006 -0.1685  0.4050 -0.2223
 7259TIP3   OH245971   5.818   2.812   8.251 -0.2454  0.0402 -0.2661
 7259TIP3    H145972   5.866   2.751   8.195  0.0885  1.3020 -1.3946
 7259TIP3    H245973   5.884   2.848   8.309 -0.1412  0.4949 -0.6623
 7260TIP3   OH245974   0.109   0.968   0.267 -0.3083  0.1048  0.0308
 7260TIP3    H145975   0.112   0.911   0.190 -1.3528 -0.4834  0.4039
 7260TIP3    H245976   0.068   1.048   0.236 -0.8470 -0.1798 -0.0195
 7261TIP3   OH245977   0.756   2.198   1.384 -0.1360  0.1092 -0.0708
 7261TIP3    H145978   0.720   2.266   1.441 -0.6855 -0.8513  0.7783
 7261TIP3    H245979   0.680   2.167   1.334 -0.0383 -0.3303  0.0454
 7262TIP3   OH245980   6.892   6.444   1.147 -0.3745 -0.3623  0.1812
 7262TIP3    H145981   6.934   6.382   1.206  3.4893  0.2289 -1.5956
 7262TIP3    H245982   6.868   6.518   1.203  0.8381 -0.8548  1.3980
 7263TIP3   OH245983   1.393   1.257   7.922 -0.0556  0.3278  0.3249
 7263TIP3    H145984   1.370   1.207   8.000 -1.4242  0.5121  0.0599
 7263TIP3    H245985   1.392   1.193   7.851  1.7288  0.0453  0.4914
 7264TIP3   OH245986   4.087   5.840   6.323  0.0564 -0.5697 -0.0401
 7264TIP3    H145987   4.052   5.870   6.239  0.0112  0.8467  0.4594
 7264TIP3    H245988   4.068   5.746   6.325 -2.5633 -0.1226 -0.3593
 7265TIP3   OH245989   5.210   6.488   1.010 -0.2403  0.3900 -0.3076
 7265TIP3    H145990   5.266   6.434   1.066 -0.4740 -2.0372 -2.2502
 7265TIP3    H245991   5.203   6.571   1.057  0.7977 -0.9560  2.4806
 7266TIP3   OH245992   1.292   0.460   8.946  0.5295 -0.6012  0.0091
 7266TIP3    H145993   1.373   0.511   8.957 -0.0228 -0.1662  2.9399
 7266TIP3    H245994   1.291   0.401   9.022 -0.8132 -2.2576 -1.2136
 7267TIP3   OH245995   6.318   0.412   1.523 -0.3902 -0.2295 -0.3135
 7267TIP3    H145996   6.403   0.440   1.557 -1.0492  0.1467  1.0996
 7267TIP3    H245997   6.258   0.422   1.597 -1.9117  0.6253 -1.6031
 7268TIP3   OH245998   2.997   5.482  10.000  0.0589  0.2846 -0.1623
 7268TIP3    H145999   2.981   5.391   9.974  0.2008  0.8835 -2.5522
 7268TIP3    H246000   2.913   5.512  10.034  0.0167 -0.7175  0.6788
 7269TIP3   OH246001   1.366   4.703   1.282  0.2918 -0.5767 -0.0277
 7269TIP3    H146002   1.336   4.749   1.361  2.2650 -1.8256  1.5283
 7269TIP3    H246003   1.330   4.615   1.290 -0.2755 -0.4604 -1.0553
 7270TIP3   OH246004   4.096   1.289   8.558 -0.3218  0.1100 -0.0381
 7270TIP3    H146005   4.089   1.365   8.500  1.4835 -1.1629 -2.0905
 7270TIP3    H246006   4.190   1.276   8.569 -0.5979 -1.6077  0.5984
 7271TIP3   OH246007   3.660   4.655   0.202  0.1385  0.0118 -0.3945
 7271TIP3    H146008   3.647   4.666   0.296  0.7856  0.8385 -0.3845
 7271TIP3    H246009   3.740   4.705   0.183  0.5718 -0.9584 -1.2129
 7272TIP3   OH246010   3.058   0.727   8.812 -0.5033 -0.2013  0.0241
 7272TIP3    H146011   3.148   0.745   8.840 -0.7865  0.3191  0.6333
 7272TIP3    H246012   3.049   0.773   8.729  0.0457 -0.9410 -0.4538
 7273TIP3   OH246013   7.350   5.241   9.981 -0.8715  0.0860  0.0794
 7273TIP3    H146014   7.340   5.202  10.068 -2.9445  0.2059 -0.0603
 7273TIP3    H246015   7.311   5.328   9.989  1.7848  1.4242 -0.1790
 7274TIP3   OH246016   3.984   5.782   9.854  0.2249  0.9207  0.5879
 7274TIP3    H146017   4.080   5.785   9.849  0.1363  1.9081 -2.3196
 7274TIP3    H246018   3.960   5.867   9.892  0.4739  0.6198  1.4452
 7275TIP3   OH246019   5.466   2.060   9.398  0.1437  0.1609  0.0038
 7275TIP3    H146020   5.491   2.137   9.347  2.4806 -0.1379  0.5963
 7275TIP3    H246021   5.544   2.004   9.398 -0.5390 -0.8991  1.9815
 7276TIP3   OH246022   3.891   7.220   0.858 -0.7406 -0.1029 -0.2964
 7276TIP3    H146023   3.905   7.286   0.790 -0.1011  0.7593  0.6534
 7276TIP3    H246024   3.966   7.161   0.849 -1.4369 -0.8654 -1.3039
 7277TIP3   OH246025   2.580   4.113   9.641 -0.2031 -0.3180  0.1970
 7277TIP3    H146026   2.588   4.180   9.709 -0.4818 -0.2681  0.1809
 7277TIP3    H246027   2.488   4.117   9.614 -0.4577 -1.3316  0.8325
 7278TIP3   OH246028   5.032   3.067   9.728  0.1317  0.3336  0.4712
 7278TIP3    H146029   5.081   3.056   9.647  0.3026  1.3575  0.4223
 7278TIP3    H246030   5.026   2.979   9.765 -1.3923 -0.4771 -1.4690
 7279TIP3   OH246031   6.483   7.502   2.006  0.0310 -0.3002  0.0053
 7279TIP3    H146032   6.397   7.519   1.968 -0.1483 -0.8467  0.1608
 7279TIP3    H246033   6.544   7.518   1.934 -0.2613 -0.7062 -0.3317
 7280TIP3   OH246034   1.855   2.102   8.248 -0.2802 -0.1800 -0.7002
 7280TIP3    H146035   1.802   2.036   8.203 -1.3621  0.2819 -0.1251
 7280TIP3    H246036   1.927   2.052   8.287 -1.7174 -1.2262  0.7192
 7281TIP3   OH246037   6.229   6.951   0.076 -0.1418 -0.0326  0.0204
 7281TIP3    H146038   6.162   7.009   0.110 -0.1035  0.9210 -1.4235
 7281TIP3    H246039   6.188   6.909  -0.000  0.1680 -1.1531  0.4483
 7282TIP3   OH246040   3.644   5.357   7.450  0.0001  0.1981 -0.1552
 7282TIP3    H146041   3.636   5.290   7.381  3.6846  0.2051 -0.7889
 7282TIP3    H246042   3.604   5.435   7.412 -0.8068 -0.5840 -0.9873
 7283TIP3   OH246043   2.468   3.103   7.652 -0.0480 -0.5676  0.7114
 7283TIP3    H146044   2.444   3.105   7.744 -1.5540 -0.7967  0.3553
 7283TIP3    H246045   2.476   3.195   7.627 -1.7940 -0.4108  0.5802
 7284TIP3   OH246046   2.649   7.569   1.555 -0.1179 -0.3474 -0.3741
 7284TIP3    H146047   2.568   7.617   1.535 -0.3153 -0.8038 -0.7162
 7284TIP3    H246048   2.635   7.483   1.515  0.4216 -0.5262 -0.1813
 7285TIP3   OH246049   6.228   0.472   1.747  0.5876  0.0512 -0.3787
 7285TIP3    H146050   6.217   0.567   1.758 -2.9532 -0.4559  1.9947
 7285TIP3    H246051   6.285   0.446   1.820 -0.7123  0.0648  0.6710
 7286TIP3   OH246052   6.768   4.202   1.434 -0.0177  0.2432  0.3451
 7286TIP3    H146053   6.800   4.184   1.523 -1.1488 -1.9512  0.3663
 7286TIP3    H246054   6.691   4.257   1.448 -0.5704 -0.6274  0.7823
 7287TIP3   OH246055   0.871   0.419   7.029 -0.3215  0.6866  0.2466
 7287TIP3    H146056   0.901   0.481   7.097 -1.5205 -0.7187  2.1566
 7287TIP3    H246057   0.920   0.339   7.047 -0.6859  0.2809 -0.5454
 7288TIP3   OH246058   2.304   6.218   0.593 -0.1716 -0.1752 -0.2288
 7288TIP3    H146059   2.348   6.177   0.518  0.4396  0.2493 -0.1079
 7288TIP3    H246060   2.233   6.270   0.554  0.5182  0.5296 -0.5707
 7289TIP3   OH246061   4.969   2.492   1.132  0.2613  0.0983  0.5164
 7289TIP3    H146062   4.900   2.520   1.191 -1.4063 -1.0694 -0.7790
 7289TIP3    H246063   5.029   2.442   1.187 -2.3487 -2.8113  1.0215
 7290TIP3   OH246064   3.874   3.928   7.793  0.0840  0.0506  0.1101
 7290TIP3    H146065   3.918   3.874   7.727 -0.7934  0.5846 -0.9333
 7290TIP3    H246066   3.898   3.888   7.876  0.0781 -1.4765 -0.5997
 7291TIP3   OH246067   2.450   5.395   9.429  0.2817  0.1354  0.2597
 7291TIP3    H146068   2.467   5.476   9.477 -0.4639  0.1800  0.4583
 7291TIP3    H246069   2.524   5.338   9.450  1.6921  1.3320 -1.1725
 7292TIP3   OH246070   4.020   5.741   7.335  0.5936 -0.0781  0.2240
 7292TIP3    H146071   3.936   5.732   7.379  0.3418 -0.9028 -0.4093
 7292TIP3    H246072   4.000   5.782   7.252  0.6924 -0.9654 -0.2571
 7293TIP3   OH246073   4.988   5.411   8.482 -0.2052  0.1740  0.3893
 7293TIP3    H146074   5.056   5.347   8.463 -0.2685  0.7388 -2.0927
 7293TIP3    H246075   4.908   5.359   8.490  0.2093 -0.3194  1.5689
 7294TIP3   OH246076   2.992   2.236   2.648  0.1967 -0.0631  0.3710
 7294TIP3    H146077   3.050   2.160   2.639  0.3291  0.1509 -0.7278
 7294TIP3    H246078   3.005   2.266   2.738 -0.4531 -1.8117  1.1055
 7295TIP3   OH246079   1.673   3.487   9.170 -0.2068 -0.7671  0.4355
 7295TIP3    H146080   1.671   3.580   9.147 -0.5227 -0.7621  0.4882
 7295TIP3    H246081   1.761   3.458   9.144  0.2194 -0.2452  1.2672
 7296TIP3   OH246082   0.402   5.479   8.267 -0.2430  0.4431 -0.9831
 7296TIP3    H146083   0.365   5.545   8.209 -1.2335  1.9788  1.2758
 7296TIP3    H246084   0.328   5.446   8.318  0.7804  0.2355  0.4410
 7297TIP3   OH246085   1.180   5.286   1.458 -0.6995 -0.0974 -0.2770
 7297TIP3    H146086   1.113   5.275   1.391 -0.2331  0.5728 -0.8767
 7297TIP3    H246087   1.252   5.229   1.428 -0.4083  0.3666 -0.4609
 7298TIP3   OH246088   4.899   6.220   6.946 -0.2354 -0.4746 -0.0978
 7298TIP3    H146089   4.842   6.157   6.990 -1.9225  1.6906  0.9944
 7298TIP3    H246090   4.987   6.199   6.978 -1.2047  0.1019  3.3095
 7299TIP3   OH246091   0.440   3.261   8.870  0.4473  0.3764 -0.0973
 7299TIP3    H146092   0.442   3.341   8.922 -0.7719 -0.4473  1.2967
 7299TIP3    H246093   0.391   3.283   8.791  1.0898  1.2689 -0.2580
 7300TIP3   OH246094   3.249   6.674   1.590 -0.5597 -0.1063  0.1237
 7300TIP3    H146095   3.156   6.690   1.604 -0.3633  0.3765  0.9361
 7300TIP3    H246096   3.266   6.704   1.500 -0.9623  0.8109  0.3486
 7301TIP3   OH246097   1.074   4.915   8.323 -0.0698 -0.0506  0.5707
 7301TIP3    H146098   1.082   4.973   8.399  0.1115  0.1447  0.4042
 7301TIP3    H246099   1.083   4.827   8.359 -0.5417  0.0104  0.8524
 7302TIP3   OH246100   3.225   0.503   1.005  0.8526  0.1621  0.1002
 7302TIP3    H146101   3.234   0.568   0.936 -2.8103 -1.1525 -1.9331
 7302TIP3    H246102   3.131   0.504   1.027  0.8738 -3.3213  1.0189
 7303TIP3   OH246103   6.180   2.711   0.774 -0.4091 -0.5626  0.5746
 7303TIP3    H146104   6.203   2.757   0.855  1.6002 -1.5165  0.5998
 7303TIP3    H246105   6.101   2.662   0.797 -0.9568  0.6445  1.3712
 7304TIP3   OH246106   5.474   6.647   2.541  0.1884 -0.2414  0.0834
 7304TIP3    H146107   5.538   6.666   2.609 -1.2371 -0.5904  1.5875
 7304TIP3    H246108   5.489   6.555   2.519 -0.0379 -0.4335  0.7140
 7305TIP3   OH246109   0.854   2.454   9.803  0.0540  0.2181 -0.3279
 7305TIP3    H146110   0.851   2.412   9.717  2.2631 -1.1814  0.2043
 7305TIP3    H246111   0.836   2.383   9.864 -2.0398  1.3034  0.4369
 7306TIP3   OH246112   1.472   7.170   2.786  0.6147 -0.2805  0.2622
 7306TIP3    H146113   1.547   7.183   2.728 -0.2396  1.0567 -0.5956
 7306TIP3    H246114   1.505   7.110   2.854  1.6635 -1.8567 -1.5256
 7307TIP3   OH246115   0.886   3.708   9.706 -0.4369 -0.4688 -0.0470
 7307TIP3    H146116   0.978   3.732   9.718 -0.1056 -0.9806 -1.3964
 7307TIP3    H246117   0.889   3.628   9.654 -1.6759  0.7984 -2.2123
 7308TIP3   OH246118   2.372   7.627   9.200  0.1185  0.1998  0.0095
 7308TIP3    H146119   2.403   7.641   9.111  4.2275  1.3771  1.3991
 7308TIP3    H246120   2.331   7.541   9.198 -0.3144  0.3648 -3.0164
 7309TIP3   OH246121   7.614   1.012   9.690 -0.0032 -0.0497 -0.3535
 7309TIP3    H146122   7.622   1.026   9.784  1.4310 -0.8824 -0.3299
 7309TIP3    H246123   7.673   1.076   9.651 -1.5125  1.1490 -0.7943
 7310TIP3   OH246124   1.052   0.588   8.197  0.7709  0.0852  0.1538
 7310TIP3    H146125   1.020   0.515   8.251  0.0342  0.9723  0.9734
 7310TIP3    H246126   0.972   0.628   8.162  1.2130 -0.0150 -0.9866
 7311TIP3   OH246127   3.313   5.509   1.562  0.0177 -0.2145  0.6409
 7311TIP3    H146128   3.240   5.499   1.623 -1.2677 -0.0962 -0.7952
 7311TIP3    H246129   3.293   5.448   1.491 -0.8115  2.5503 -1.6928
 7312TIP3   OH246130   3.733   0.360   8.246 -0.0441  0.0097  0.7451
 7312TIP3    H146131   3.728   0.440   8.193  1.1606 -0.5919 -0.3393
 7312TIP3    H246132   3.748   0.391   8.335  3.0482  1.0392 -0.0060
 7313TIP3   OH246133   7.519   1.407   7.512 -0.1878 -0.6372  0.9685
 7313TIP3    H146134   7.433   1.365   7.507 -0.2355 -0.6514  1.8405
 7313TIP3    H246135   7.503   1.496   7.481 -0.3728 -0.8324  0.4782
 7314TIP3   OH246136   2.989   5.677   7.136  0.3186  0.5754  0.1579
 7314TIP3    H146137   2.988   5.706   7.045  0.5115  0.4452  0.1121
 7314TIP3    H246138   2.901   5.695   7.169 -0.1898 -0.6499 -0.4561
 7315TIP3   OH246139   4.094   7.511   2.999 -0.0237  0.5637 -0.8373
 7315TIP3    H146140   4.088   7.419   2.974 -0.8122  0.9043 -2.0158
 7315TIP3    H246141   4.004   7.537   3.018  0.3106  0.8664  0.3856
 7316TIP3   OH246142   4.326   7.577   1.044  0.2646 -0.6627 -0.5668
 7316TIP3    H146143   4.380   7.616   1.112 -0.8809 -1.2450  0.7242
 7316TIP3    H246144   4.389   7.536   0.984  1.2794 -0.9706  0.6600
 7317TIP3   OH246145   1.242   7.540   7.224 -0.8328 -0.5407  0.1586
 7317TIP3    H146146   1.294   7.594   7.164 -1.6947 -0.1873 -0.2960
 7317TIP3    H246147   1.306   7.488   7.272 -0.0071  0.5529  0.2757
 7318TIP3   OH246148   4.652   0.142   7.939 -0.4385 -0.2286  0.4022
 7318TIP3    H146149   4.742   0.158   7.969 -0.2822  0.2849 -0.3205
 7318TIP3    H246150   4.604   0.219   7.969 -0.3522  0.1270 -0.3400
 7319TIP3   OH246151   3.257   1.671   8.366 -0.2142 -0.2098  0.1519
 7319TIP3    H146152   3.245   1.731   8.292  0.1787  0.0522  0.3041
 7319TIP3    H246153   3.320   1.606   8.334 -1.3853 -1.1327 -0.3682
 7320TIP3   OH246154   1.092   1.899   8.634 -0.1205  0.3657  0.4004
 7320TIP3    H146155   1.125   1.814   8.662 -1.3281  0.2045  1.4572
 7320TIP3    H246156   1.133   1.962   8.695 -0.7133  0.3098  0.8680
 7321TIP3   OH246157   4.819   2.485   9.575  0.6100  0.2127 -0.1563
 7321TIP3    H146158   4.789   2.508   9.663 -0.0327 -0.0035 -0.3161
 7321TIP3    H246159   4.826   2.390   9.576  0.4660  0.1991 -0.3809
 7322TIP3   OH246160   4.259   5.373   9.823  0.2868 -0.7416 -0.7724
 7322TIP3    H146161   4.251   5.312   9.749  1.8386 -0.5059 -1.1826
 7322TIP3    H246162   4.354   5.383   9.834  0.1123  2.1231 -1.1629
 7323TIP3   OH246163   2.247   2.608   0.717 -0.0590  0.5521 -0.1246
 7323TIP3    H146164   2.198   2.527   0.732  2.5111 -1.2404 -0.7558
 7323TIP3    H246165   2.329   2.580   0.677  0.5035  3.6010 -1.4268
 7324TIP3   OH246166   5.930   1.043   9.266 -0.2740 -0.0257 -0.1596
 7324TIP3    H146167   5.886   1.112   9.216  1.8222  0.6985 -1.1238
 7324TIP3    H246168   5.931   0.967   9.207 -1.0132 -0.3326  0.2154
 7325TIP3   OH246169   1.795   6.522   7.393  0.0750  0.5609  0.1867
 7325TIP3    H146170   1.731   6.519   7.465  0.1114  0.2219  0.2073
 7325TIP3    H246171   1.816   6.614   7.384 -1.8449  0.9274 -1.0791
 7326TIP3   OH246172   5.276   0.090   9.119  0.5868 -0.2430 -0.0418
 7326TIP3    H146173   5.265   0.171   9.169  0.5192 -0.6897  0.6925
 7326TIP3    H246174   5.201   0.037   9.144 -0.5908  0.2962 -2.2068
 7327TIP3   OH246175   5.740   7.010   8.551  0.4961  0.0886 -0.0682
 7327TIP3    H146176   5.760   7.092   8.506  1.3372 -0.3771 -0.5819
 7327TIP3    H246177   5.647   7.015   8.569  0.8030  1.8681  1.3724
 7328TIP3   OH246178   1.620   7.365   1.683  0.5819  0.4516  0.1955
 7328TIP3    H146179   1.658   7.298   1.625  0.4919 -0.2676  0.9510
 7328TIP3    H246180   1.655   7.447   1.650 -0.0578  0.1387 -1.3595
 7329TIP3   OH246181   0.437   7.274   2.359 -0.4177  0.4821  0.4390
 7329TIP3    H146182   0.521   7.307   2.392 -0.2056 -0.9499  1.3992
 7329TIP3    H246183   0.455   7.183   2.335 -1.3274  0.6139 -0.8152
 7330TIP3   OH246184   4.509   4.380   9.928  0.6254  0.5219 -0.0755
 7330TIP3    H146185   4.490   4.444   9.859 -0.0819  0.2421 -0.1476
 7330TIP3    H246186   4.586   4.332   9.896  0.2427  0.3283 -0.7206
 7331TIP3   OH246187   4.283   4.104   8.367  0.1047  0.3694 -0.1206
 7331TIP3    H146188   4.276   4.025   8.314 -1.4212 -0.0770  0.6832
 7331TIP3    H246189   4.292   4.175   8.303  2.5506 -0.4892 -0.8371
 7332TIP3   OH246190   3.065   7.206   8.475  0.2046 -0.6285  0.0722
 7332TIP3    H146191   3.073   7.110   8.474  1.3030 -0.6564  2.7736
 7332TIP3    H246192   3.154   7.237   8.491 -0.5054  0.6646  1.8575
 7333TIP3   OH246193   0.054   1.987   0.069  0.2388  0.1246 -0.3614
 7333TIP3    H146194  -0.018   2.041   0.099 -1.0043 -1.0028 -1.1754
 7333TIP3    H246195   0.035   1.899   0.103  0.9833 -0.2872 -0.9478
 7334TIP3   OH246196   2.258   5.143   1.320 -0.6045  0.3733  0.3649
 7334TIP3    H146197   2.270   5.191   1.239  0.2517  1.0818  0.8881
 7334TIP3    H246198   2.201   5.199   1.373 -0.5018  0.2979  0.5563
 7335TIP3   OH246199   2.386   4.079   8.419 -0.3592  0.4941  0.5751
 7335TIP3    H146200   2.423   4.164   8.441 -0.5503  0.2548  1.8774
 7335TIP3    H246201   2.397   4.072   8.324  0.9215  1.3680  0.6399
 7336TIP3   OH246202   7.051   1.150   8.605 -0.3302  0.2559 -0.1894
 7336TIP3    H146203   7.107   1.214   8.563  0.0243 -0.4001 -0.7430
 7336TIP3    H246204   7.089   1.065   8.581 -2.6181 -0.2967 -2.1804
 7337TIP3   OH246205   2.755   2.413   2.830 -0.3060 -0.1410 -0.2645
 7337TIP3    H146206   2.850   2.421   2.835 -0.1613 -0.3532 -2.1928
 7337TIP3    H246207   2.723   2.500   2.855  0.4878  0.5182 -1.4346
 7338TIP3   OH246208   3.071   6.785   6.364 -0.2873 -0.3689 -0.2270
 7338TIP3    H146209   3.018   6.859   6.335 -0.6502 -0.9776 -1.1643
 7338TIP3    H246210   3.147   6.825   6.406 -0.2274  0.5540 -1.1597
 7339TIP3   OH246211   2.578   0.400   8.362  0.0104 -0.2364  0.2676
 7339TIP3    H146212   2.484   0.392   8.346  0.1542 -1.0269 -0.2549
 7339TIP3    H246213   2.586   0.475   8.421 -1.1816 -1.6728  2.4062
 7340TIP3   OH246214   5.538   7.643   8.045 -0.2509 -0.0786 -0.4847
 7340TIP3    H146215   5.495   7.597   7.973 -1.7485  0.9323 -0.2794
 7340TIP3    H246216   5.466   7.679   8.097  0.8166  2.1672 -0.4263
 7341TIP3   OH246217   4.231   2.585   1.045 -0.2127 -0.2939 -0.4979
 7341TIP3    H146218   4.272   2.626   0.969  1.4999 -0.6026  0.2210
 7341TIP3    H246219   4.288   2.608   1.119 -0.1393 -2.5016  0.2056
 7342TIP3   OH246220   4.000   0.026   9.824 -0.4642  0.3165 -0.1558
 7342TIP3    H146221   4.015   0.082   9.900  2.3159  0.1742 -0.5013
 7342TIP3    H246222   3.935   0.074   9.772 -2.3693  0.4658  2.1661
 7343TIP3   OH246223   7.591   3.536   1.605 -0.6072 -0.0568  0.4000
 7343TIP3    H146224   7.567   3.575   1.689 -2.2884 -0.7423  0.2710
 7343TIP3    H246225   7.557   3.598   1.540 -0.4904 -0.1920  0.2103
 7344TIP3   OH246226   2.388   4.293   9.135 -0.4399  0.1269  0.0157
 7344TIP3    H146227   2.410   4.386   9.140  1.1843 -0.2571  0.3363
 7344TIP3    H246228   2.472   4.248   9.125 -1.3025 -1.2154 -1.8565
 7345TIP3   OH246229   7.172   3.860   8.521 -0.3556  0.1637 -0.3582
 7345TIP3    H146230   7.208   3.776   8.492  3.4069  1.6238 -0.5045
 7345TIP3    H246231   7.233   3.889   8.589 -1.4971  2.8036 -0.3508
 7346TIP3   OH246232   5.880   0.772   7.692 -0.2696  0.4663 -0.1265
 7346TIP3    H146233   5.819   0.702   7.668 -0.9100  0.4177  1.5537
 7346TIP3    H246234   5.965   0.740   7.663 -0.2103 -1.9894  2.3304
 7347TIP3   OH246235   7.488   3.752   8.377  0.0365  1.0625  0.2445
 7347TIP3    H146236   7.502   3.797   8.293 -0.4941 -0.9353 -0.9770
 7347TIP3    H246237   7.572   3.712   8.396 -1.0646 -3.0093 -2.2397
 7348TIP3   OH246238   6.495   7.263   2.276 -0.1733  0.5762  0.3416
 7348TIP3    H146239   6.426   7.281   2.212 -0.0877 -0.8251 -0.1828
 7348TIP3    H246240   6.468   7.180   2.316  2.1537 -1.0523 -1.2507
 7349TIP3   OH246241   3.416   1.148   1.072 -0.3890  0.1066  0.2244
 7349TIP3    H146242   3.381   1.061   1.056 -1.8854  0.6893  0.1323
 7349TIP3    H246243   3.457   1.173   0.989 -0.7261 -0.1736 -0.0327
 7350TIP3   OH246244   1.240   3.720   7.684 -0.6170  0.2766 -0.3300
 7350TIP3    H146245   1.275   3.637   7.713 -1.4802 -0.3308 -0.9748
 7350TIP3    H246246   1.185   3.749   7.757 -2.4830 -1.0662 -1.1213
 7351TIP3   OH246247   3.530   5.166   2.498  0.2251  0.1048 -0.5946
 7351TIP3    H146248   3.456   5.206   2.545 -0.2198  0.2039 -1.3590
 7351TIP3    H246249   3.494   5.084   2.462  1.9907 -3.1375  4.0029
 7352TIP3   OH246250   5.771   3.950   2.514 -0.0823  0.1997  0.2297
 7352TIP3    H146251   5.682   3.978   2.536 -0.4459 -0.5465 -0.2346
 7352TIP3    H246252   5.828   4.017   2.551 -0.8059  0.3250  1.1333
 7353TIP3   OH246253   6.755   5.813   1.570 -0.0367 -0.3602  0.6152
 7353TIP3    H146254   6.762   5.829   1.664 -2.3078  0.7768  0.6402
 7353TIP3    H246255   6.661   5.806   1.553  0.2896 -0.0149 -1.6573
 7354TIP3   OH246256   1.329   7.108   8.757 -0.4608  0.1503 -0.6223
 7354TIP3    H146257   1.295   7.198   8.755 -3.1822 -0.6742  1.6039
 7354TIP3    H246258   1.344   7.087   8.665 -0.4653  2.6103 -1.2705
 7355TIP3   OH246259   0.098   3.880   0.398 -1.1042  0.1992 -0.1748
 7355TIP3    H146260   0.042   3.843   0.466 -0.8614 -2.2874 -1.2321
 7355TIP3    H246261   0.071   3.972   0.393 -2.8469 -0.1462  1.5346
 7356TIP3   OH246262   6.343   5.170   9.953  0.0366  0.1339 -0.4746
 7356TIP3    H146263   6.348   5.190  10.047  1.6929 -0.2104 -0.4482
 7356TIP3    H246264   6.356   5.075   9.948 -3.2036 -0.3997 -0.8974
 7357TIP3   OH246265   2.907   4.482   7.200 -0.5213  0.0922  0.2418
 7357TIP3    H146266   2.976   4.418   7.181  0.8128  1.6868 -0.5658
 7357TIP3    H246267   2.829   4.446   7.158  0.6544 -0.0895 -1.9361
 7358TIP3   OH246268   2.940   2.653   2.652 -0.3153  0.8853 -0.1697
 7358TIP3    H146269   2.855   2.689   2.677 -1.1938 -0.7567 -0.6364
 7358TIP3    H246270   2.990   2.650   2.734 -1.0932  0.8923  0.3198
 7359TIP3   OH246271   0.972   3.581   8.419 -0.2125  0.1979 -0.1304
 7359TIP3    H146272   1.004   3.581   8.510 -0.5862  1.6042  0.0205
 7359TIP3    H246273   0.911   3.507   8.415  0.1677 -0.1706  0.6276
 7360TIP3   OH246274   7.257   1.359   9.411  0.9701  0.1002  0.6181
 7360TIP3    H146275   7.243   1.444   9.369  1.1846  0.9525  2.1899
 7360TIP3    H246276   7.248   1.295   9.340  0.6647  1.4169 -0.5715
 7361TIP3   OH246277   4.889   4.808   7.681  0.5197  0.1381 -0.5879
 7361TIP3    H146278   4.881   4.904   7.676 -0.6854  0.0185 -1.3915
 7361TIP3    H246279   4.923   4.782   7.596  0.8439 -0.1518 -0.3714
 7362TIP3   OH246280   6.836   2.869   9.606 -0.0666 -0.4397 -0.1377
 7362TIP3    H146281   6.827   2.916   9.523  2.3754 -1.7239 -1.2349
 7362TIP3    H246282   6.801   2.782   9.588 -3.2241  0.3232  1.4653
 7363TIP3   OH246283   4.713   7.003   7.325  0.6183 -0.3445 -0.4161
 7363TIP3    H146284   4.678   6.938   7.386 -1.3451 -0.0435 -1.1291
 7363TIP3    H246285   4.786   7.043   7.372  0.6338 -1.7097  0.8000
 7364TIP3   OH246286   2.614   2.368   1.995  0.1358  0.5730  0.0277
 7364TIP3    H146287   2.597   2.426   2.070 -0.3600 -0.4369  0.7091
 7364TIP3    H246288   2.651   2.289   2.034 -3.9413 -1.7351 -0.2458
 7365TIP3   OH246289   4.795   6.144   8.007  0.1500 -0.4984  0.2140
 7365TIP3    H146290   4.886   6.174   8.001 -0.0751  0.3051  0.6809
 7365TIP3    H246291   4.743   6.224   7.998 -0.4386 -0.5458  2.5176
 7366TIP3   OH246292   5.313   1.895   2.061 -0.1063  0.0180  0.2546
 7366TIP3    H146293   5.284   1.819   2.112  0.7421 -1.2414 -1.0551
 7366TIP3    H246294   5.234   1.924   2.016 -1.5031  2.6636  3.8945
 7367TIP3   OH246295   4.382   3.612   1.156 -0.2631  0.0438 -0.0599
 7367TIP3    H146296   4.363   3.533   1.105  0.7987 -0.9050  0.9467
 7367TIP3    H246297   4.425   3.671   1.095 -0.6442 -0.3381 -0.7102
 7368TIP3   OH246298   6.072   5.455   9.186  0.0666 -0.0572  0.1254
 7368TIP3    H146299   6.117   5.370   9.192  0.9902  0.3824 -0.2918
 7368TIP3    H246300   6.014   5.446   9.110  1.9354  0.4301 -1.4692
 7369TIP3   OH246301   1.505   6.426   9.298  0.1341 -0.5373 -0.0812
 7369TIP3    H146302   1.414   6.454   9.283  0.1613 -0.8131 -0.7579
 7369TIP3    H246303   1.523   6.363   9.229  0.5372 -1.1952  0.6024
 7370TIP3   OH246304   6.470   7.632   1.430 -0.5790 -0.3056  0.1766
 7370TIP3    H146305   6.383   7.670   1.445 -1.1012 -0.8151 -1.4428
 7370TIP3    H246306   6.462   7.541   1.460 -0.6809 -0.4163 -0.1801
 7371TIP3   OH246307   7.527   5.720   1.035 -0.3020 -0.3127 -0.4370
 7371TIP3    H146308   7.443   5.677   1.018 -1.0052  1.2921 -1.2512
 7371TIP3    H246309   7.511   5.812   1.014  1.6396  0.0489 -0.4986
 7372TIP3   OH246310   7.636   2.226   0.205 -0.2740  0.0715  0.1042
 7372TIP3    H146311   7.578   2.301   0.193  1.3498  1.5549  0.9979
 7372TIP3    H246312   7.676   2.212   0.119 -3.3229 -2.3132 -1.1108
 7373TIP3   OH246313   0.842   7.043   9.952 -0.1350  0.7225  0.0915
 7373TIP3    H146314   0.898   6.998  10.015 -0.3732  0.4745  0.1294
 7373TIP3    H246315   0.755   7.039   9.991 -0.3389  0.2978 -0.3911
 7374TIP3   OH246316   0.741   2.903   8.122 -0.0124 -0.2251 -0.0185
 7374TIP3    H146317   0.826   2.865   8.144 -0.0806 -0.4502 -0.1379
 7374TIP3    H246318   0.754   2.943   8.036  0.3910  1.0932  0.6290
 7375TIP3   OH246319   1.894   5.831   9.091 -0.0865  0.0505  0.0290
 7375TIP3    H146320   1.807   5.858   9.120 -0.6778  0.0714 -1.6330
 7375TIP3    H246321   1.892   5.843   8.996  2.0642  0.9776  0.0423
 7376TIP3   OH246322   5.818   5.639   8.990  0.4081 -0.5511 -1.0579
 7376TIP3    H146323   5.888   5.576   8.977  0.7418 -0.5638  0.5427
 7376TIP3    H246324   5.862   5.715   9.030 -0.1538  0.2959 -2.0009
 7377TIP3   OH246325   6.117   6.881   8.094 -0.5861  0.2263  0.2042
 7377TIP3    H146326   6.034   6.919   8.122 -0.2680 -0.6873  2.7045
 7377TIP3    H246327   6.149   6.834   8.172  0.9466 -1.7425 -1.4935
 7378TIP3   OH246328   2.867   0.645   2.153 -0.0839 -0.4710  0.1204
 7378TIP3    H146329   2.928   0.718   2.141  0.6172 -0.3132  3.6736
 7378TIP3    H246330   2.780   0.686   2.152  0.1114 -0.0492 -0.6091
 7379TIP3   OH246331   0.075   3.326   8.849 -0.1266 -0.3138  0.3347
 7379TIP3    H146332   0.004   3.348   8.909  0.1153 -0.6423  0.7409
 7379TIP3    H246333   0.063   3.233   8.831 -0.8227 -0.0062 -0.9542
 7380TIP3   OH246334   2.764   1.721   2.599 -0.3508  0.2768 -0.2671
 7380TIP3    H146335   2.806   1.779   2.663  0.5149 -1.5982  0.9785
 7380TIP3    H246336   2.673   1.717   2.626 -0.4263  1.0653 -0.3908
 7381TIP3   OH246337   1.223   4.013   9.003  0.0746  0.4056  0.0347
 7381TIP3    H146338   1.210   4.105   8.979 -0.1412 -0.1244 -2.0608
 7381TIP3    H246339   1.317   4.006   9.020  0.3596  0.7499 -1.2417
 7382TIP3   OH246340   4.013   4.644   8.751 -0.1819  0.5446 -0.2192
 7382TIP3    H146341   3.924   4.657   8.784 -0.4130 -0.2810 -0.4898
 7382TIP3    H246342   4.065   4.710   8.797 -0.8235  0.6256  0.4178
 7383TIP3   OH246343   7.327   7.273   0.190  0.0480  0.2163 -0.0209
 7383TIP3    H146344   7.298   7.207   0.254 -1.4882  0.7833 -0.0802
 7383TIP3    H246345   7.345   7.223   0.110  1.5058 -0.4339  0.6787
 7384TIP3   OH246346   5.199   0.994   9.592  0.2397  0.3381  0.0424
 7384TIP3    H146347   5.181   1.077   9.636 -1.9054  0.3210 -0.6769
 7384TIP3    H246348   5.261   1.016   9.523  1.1247  0.9624  1.0012
 7385TIP3   OH246349   6.066   4.434   0.999  0.0155 -0.2367 -0.0653
 7385TIP3    H146350   6.119   4.469   1.070 -0.4955  0.4288 -0.0074
 7385TIP3    H246351   5.998   4.384   1.042  0.5998 -1.1270 -0.1415
 7386TIP3   OH246352   3.194   5.314   9.304 -0.1124  0.5587  0.5954
 7386TIP3    H146353   3.288   5.311   9.317 -0.0872 -1.0413  0.1876
 7386TIP3    H246354   3.181   5.376   9.233  0.8810 -1.2082 -1.2114
 7387TIP3   OH246355   3.904   2.646   9.403 -0.2186  0.4908 -0.3446
 7387TIP3    H146356   3.982   2.633   9.456 -0.7529 -3.1824 -0.1916
 7387TIP3    H246357   3.834   2.603   9.451 -2.0000  2.0798 -1.3581
 7388TIP3   OH246358   5.557   5.684   0.084  0.0435 -0.0008  0.0383
 7388TIP3    H146359   5.587   5.668   0.173  3.2441 -0.7498 -1.0026
 7388TIP3    H246360   5.611   5.625   0.030  0.8402  2.8808 -2.6459
 7389TIP3   OH246361   2.624   3.404   9.875 -0.5453  0.1015 -0.3986
 7389TIP3    H146362   2.598   3.484   9.921 -2.4581 -0.5088 -0.3139
 7389TIP3    H246363   2.661   3.434   9.792 -2.5031  1.1083 -0.9773
 7390TIP3   OH246364   2.206   6.512   8.295 -0.4332  0.8069 -0.1747
 7390TIP3    H146365   2.160   6.525   8.212 -2.3238  0.7580  0.8113
 7390TIP3    H246366   2.199   6.597   8.340  0.2430  0.7233  0.1060
 7391TIP3   OH246367   2.558   6.623   7.577 -0.4007  0.6185  0.1994
 7391TIP3    H146368   2.542   6.529   7.565 -1.4580  0.8136 -0.0524
 7391TIP3    H246369   2.488   6.665   7.528  0.2065  1.5516  0.1103
 7392TIP3   OH246370   1.488   5.345   1.415 -0.0539 -0.2606  0.2327
 7392TIP3    H146371   1.507   5.269   1.359  0.5292 -0.6161  0.8927
 7392TIP3    H246372   1.447   5.408   1.356  2.0353  0.0481 -0.9997
 7393TIP3   OH246373   3.809   6.223   7.484  0.2295  0.7092  0.2302
 7393TIP3    H146374   3.746   6.284   7.446 -2.0767 -2.2666 -1.0719
 7393TIP3    H246375   3.776   6.205   7.572 -0.5886 -0.5284 -0.3021
 7394TIP3   OH246376   3.898   4.170   1.804 -0.4693 -0.4333  0.4243
 7394TIP3    H146377   3.852   4.242   1.848 -0.1665 -0.0131  0.0614
 7394TIP3    H246378   3.940   4.121   1.875 -0.1774  0.1042  0.6240
 7395TIP3   OH246379   7.430   4.502   8.134  0.2150 -0.0937 -0.0044
 7395TIP3    H146380   7.428   4.413   8.170  3.4466 -0.8208 -1.2516
 7395TIP3    H246381   7.371   4.500   8.059 -0.5647 -0.8591  0.6167
 7396TIP3   OH246382   3.445   0.640   1.991  0.2775 -0.5769  0.1365
 7396TIP3    H146383   3.428   0.576   2.060 -0.2146 -0.0288  0.5377
 7396TIP3    H246384   3.471   0.719   2.037 -1.5901  0.2918 -0.1813
 7397TIP3   OH246385   2.878   7.119   1.483 -0.2524  0.6587  0.0020
 7397TIP3    H146386   2.798   7.086   1.523 -1.8330  4.1788  0.1563
 7397TIP3    H246387   2.916   7.176   1.549  0.8697  1.1854 -1.0519
 7398TIP3   OH246388   3.715   7.587   2.481 -0.3179 -0.6566 -0.3918
 7398TIP3    H146389   3.739   7.665   2.432  1.3921 -1.3569 -0.7524
 7398TIP3    H246390   3.643   7.549   2.430  1.2238 -1.2128 -2.2939
 7399TIP3   OH246391   1.299   5.480   0.071 -0.2634  0.2046 -0.0003
 7399TIP3    H146392   1.367   5.524   0.121  0.3288  0.3980 -0.9608
 7399TIP3    H246393   1.331   5.390   0.060 -0.6893 -0.0188  0.4958
 7400TIP3   OH246394   3.395   1.354   9.848  0.0965  0.1573 -0.2158
 7400TIP3    H146395   3.339   1.413   9.898  1.6916  0.7410  0.9762
 7400TIP3    H246396   3.484   1.377   9.874  0.8108 -3.2160  0.8307
 7401TIP3   OH246397   7.084   6.883   2.111  0.6382  0.3908 -0.3487
 7401TIP3    H146398   7.021   6.822   2.148  0.1400  0.2752 -1.3338
 7401TIP3    H246399   7.067   6.881   2.017 -0.1824  2.9146 -0.3266
 7402TIP3   OH246400   0.845   3.429   0.463  0.4724 -0.6722  0.4116
 7402TIP3    H146401   0.910   3.477   0.411 -0.0623  1.0153  1.2644
 7402TIP3    H246402   0.764   3.435   0.412 -0.2239  1.5584  1.6421
 7403TIP3   OH246403   5.193   0.390   1.025  0.0984  0.2608 -0.2466
 7403TIP3    H146404   5.107   0.420   1.055  0.1055  0.4725 -0.4315
 7403TIP3    H246405   5.190   0.295   1.034  0.4223  0.3826  1.2707
 7404TIP3   OH246406   1.101   1.264   2.278  0.0875  0.1636  0.3886
 7404TIP3    H146407   1.035   1.292   2.214 -0.0949  0.0219  0.5141
 7404TIP3    H246408   1.069   1.181   2.312  0.9465 -0.5174 -0.4328
 7405TIP3   OH246409   1.330   2.355   0.403  0.1505 -0.0573  0.1615
 7405TIP3    H146410   1.280   2.280   0.435  2.6346 -1.7913  0.2519
 7405TIP3    H246411   1.314   2.424   0.468 -1.1403 -0.9153  0.8014
 7406TIP3   OH246412   2.977   3.400   7.754  0.3205  0.1746 -0.2341
 7406TIP3    H146413   3.031   3.360   7.686 -0.4777  0.6946 -1.2108
 7406TIP3    H246414   2.965   3.330   7.819  1.0722 -0.3465 -0.6381
 7407TIP3   OH246415   2.553   1.410   0.976 -0.2283  0.0310 -0.6364
 7407TIP3    H146416   2.622   1.470   1.005  0.4710 -1.0928  0.1203
 7407TIP3    H246417   2.536   1.434   0.886 -0.2051  1.5783 -0.2475
 7408TIP3   OH246418   3.159   1.069   9.575 -0.0692 -0.0032 -0.4927
 7408TIP3    H146419   3.130   1.158   9.556  0.5199  0.5340  0.9839
 7408TIP3    H246420   3.231   1.054   9.513 -1.6444 -0.3670 -2.3455
 7409TIP3   OH246421   3.010   0.563   1.284  0.7021 -0.2512  0.4864
 7409TIP3    H146422   2.988   0.649   1.320 -2.4433 -2.0501  3.4614
 7409TIP3    H246423   3.055   0.517   1.355  0.6466 -1.7059 -0.3664
 7410TIP3   OH246424   5.811   7.345   9.966 -0.2069  0.8626 -0.1923
 7410TIP3    H146425   5.845   7.418  10.017  1.9396 -0.1736 -0.0429
 7410TIP3    H246426   5.773   7.286  10.031  0.6956  0.4935  0.0087
 7411TIP3   OH246427   3.722   3.136   9.668 -0.1673  0.3166  0.1712
 7411TIP3    H146428   3.811   3.172   9.671  0.4894 -1.1399 -0.7252
 7411TIP3    H246429   3.734   3.041   9.675 -1.8344  0.1936  2.4693
 7412TIP3   OH246430   3.126   5.848   9.040 -0.3328  0.0678 -0.0125
 7412TIP3    H146431   3.091   5.807   8.960  0.3741  0.1166 -0.3507
 7412TIP3    H246432   3.220   5.856   9.024  0.2756 -2.2132  1.8143
 7413TIP3   OH246433   1.885   0.043   8.483  0.4302  0.0079  0.1233
 7413TIP3    H146434   1.791   0.022   8.488  0.5168 -0.3714  0.1875
 7413TIP3    H246435   1.887   0.138   8.470  0.0185 -0.0639 -0.5080
 7414TIP3   OH246436   5.302   5.136   8.739  0.1252 -0.4398 -0.3454
 7414TIP3    H146437   5.362   5.094   8.800  0.1773  1.2585  0.8257
 7414TIP3    H246438   5.298   5.227   8.767 -0.7809  0.1413 -2.1617
 7415TIP3   OH246439   1.086   1.591   7.835 -0.4379 -0.3745  0.6703
 7415TIP3    H146440   1.044   1.663   7.882  0.8199 -0.2690  1.6978
 7415TIP3    H246441   1.055   1.512   7.881 -1.6326 -0.4933 -0.3076
 7416TIP3   OH246442   0.223   5.783   2.497  0.7848 -0.3025  0.3483
 7416TIP3    H146443   0.297   5.729   2.527  0.1955 -0.1547  2.2110
 7416TIP3    H246444   0.155   5.720   2.474  0.8989 -0.4074  0.2948
 7417TIP3   OH246445   1.961   3.317   0.008 -0.5230  0.4128 -0.2632
 7417TIP3    H146446   1.959   3.410  -0.012 -0.1629  0.4061 -0.3356
 7417TIP3    H246447   2.038   3.306   0.064 -1.3336  0.3813  0.8719
 7418TIP3   OH246448   3.907   6.157   7.857 -0.0342 -0.5835  0.3175
 7418TIP3    H146449   3.847   6.131   7.787 -0.9477 -0.0395  0.8793
 7418TIP3    H246450   3.850   6.183   7.929  0.8657  0.2985  0.7381
 7419TIP3   OH246451   0.026   0.949   7.629 -0.1662  0.2927 -0.6449
 7419TIP3    H146452  -0.001   1.020   7.572  3.3547  1.7288 -0.7924
 7419TIP3    H246453   0.040   0.875   7.571  0.0110  0.7040 -1.1360
 7420TIP3   OH246454   7.262   3.673   0.235  0.1347  0.2227 -0.1060
 7420TIP3    H146455   7.233   3.598   0.183  1.0833 -0.3590  0.1775
 7420TIP3    H246456   7.234   3.750   0.185  1.9332 -0.2869 -2.0565
 7421TIP3   OH246457   7.500   3.985   0.282 -0.8161  0.3805 -0.0004
 7421TIP3    H146458   7.513   4.048   0.353 -1.6407  2.2526 -1.4058
 7421TIP3    H246459   7.412   4.006   0.248 -0.2964 -0.1692 -1.7916
 7422TIP3   OH246460   6.285   6.924   0.530 -0.1442 -0.0099  0.4888
 7422TIP3    H146461   6.343   6.968   0.592 -1.9099  3.0142  0.1364
 7422TIP3    H246462   6.216   6.886   0.584  0.3048 -0.6675  0.6206
 7423TIP3   OH246463   3.695   3.939   6.573  0.0340  0.5133  0.3411
 7423TIP3    H146464   3.654   3.871   6.627 -0.3822 -0.8436 -1.6019
 7423TIP3    H246465   3.768   3.970   6.627  0.3251 -1.5728  1.2573
 7424TIP3   OH246466   6.394   3.730   9.487  0.3088 -0.5515  0.0602
 7424TIP3    H146467   6.396   3.753   9.580  0.7781  0.8599 -0.2842
 7424TIP3    H246468   6.305   3.751   9.459  1.1344  2.6373 -0.6249
 7425TIP3   OH246469   0.274   0.809   8.840 -0.0283 -0.1797  0.6295
 7425TIP3    H146470   0.290   0.741   8.905  0.9715 -0.1177  0.4638
 7425TIP3    H246471   0.216   0.871   8.883 -1.3112 -1.3452  0.6362
 7426TIP3   OH246472   7.195   3.998   9.652 -0.1231 -0.2134 -0.2763
 7426TIP3    H146473   7.220   3.933   9.718  0.6088 -0.1617 -0.4948
 7426TIP3    H246474   7.261   3.988   9.583 -0.3929  0.3098 -0.6100
 7427TIP3   OH246475   0.084   5.955   8.278 -0.6037  0.6377  0.3399
 7427TIP3    H146476   0.085   6.050   8.290  1.0900  1.0464 -2.2965
 7427TIP3    H246477   0.127   5.941   8.194 -0.4451 -2.5238  0.8342
 7428TIP3   OH246478   1.446   7.066   3.037 -0.4427  0.5308  0.1556
 7428TIP3    H146479   1.413   6.984   3.072 -1.6795  0.7508 -0.4319
 7428TIP3    H246480   1.369   7.123   3.033  0.0979  1.2280 -0.8174
 7429TIP3   OH246481   4.853   6.435   9.511  0.0540 -0.2824  0.3590
 7429TIP3    H146482   4.917   6.439   9.440  0.7262 -0.7371  0.9286
 7429TIP3    H246483   4.892   6.485   9.582 -0.2307 -0.5456  0.7067
 7430TIP3   OH246484   7.388   4.003   1.043  0.4270 -0.1576 -0.0865
 7430TIP3    H146485   7.301   3.968   1.024 -0.1368  0.0985  1.7756
 7430TIP3    H246486   7.393   4.084   0.992  0.4981 -1.2817 -1.9498
 7431TIP3   OH246487   6.283   5.366   9.763  0.3165 -0.2773  0.6693
 7431TIP3    H146488   6.312   5.297   9.823 -1.9686 -2.2580 -0.3589
 7431TIP3    H246489   6.215   5.413   9.811  0.1404 -0.3373  0.4785
 7432TIP3   OH246490   0.744   5.815   6.896 -0.7023  0.0336 -0.5340
 7432TIP3    H146491   0.743   5.866   6.815  0.8384  0.0563 -0.5716
 7432TIP3    H246492   0.796   5.868   6.957 -1.0799 -0.4085  0.1818
 7433TIP3   OH246493   6.917   5.536   1.207  0.3641  0.7640 -0.0395
 7433TIP3    H146494   6.993   5.525   1.264  0.4403  0.6420 -0.1663
 7433TIP3    H246495   6.913   5.631   1.192  1.4599  0.6255 -1.3619
 7434TIP3   OH246496   2.855   0.105   0.207 -0.4157 -0.5038  0.2946
 7434TIP3    H146497   2.839   0.104   0.301 -1.4647  3.5646  0.3291
 7434TIP3    H246498   2.769   0.088   0.168 -0.6858  1.0695  0.1641
 7435TIP3   OH246499   2.743   2.047   9.484  1.0345  0.2615 -0.0567
 7435TIP3    H146500   2.808   2.027   9.551  0.2722 -0.7146  0.4128
 7435TIP3    H246501   2.677   1.977   9.492 -0.8095  1.9528  0.4246
 7436TIP3   OH246502   4.933   3.014   7.856  0.2449 -0.4939 -0.5531
 7436TIP3    H146503   4.846   3.033   7.893  0.5030  4.0677 -1.6654
 7436TIP3    H246504   4.916   2.950   7.787 -2.3717  0.5662 -1.0241
 7437TIP3   OH246505   5.605   4.502   8.825  0.1646 -0.5468 -0.0405
 7437TIP3    H146506   5.664   4.517   8.751  0.0205 -0.3350 -0.1145
 7437TIP3    H246507   5.588   4.590   8.860 -1.0982 -0.4619 -0.7882
 7438TIP3   OH246508   4.796   0.117   6.868  0.0774 -0.3506  0.4504
 7438TIP3    H146509   4.709   0.104   6.905 -0.1946 -1.3678 -0.5043
 7438TIP3    H246510   4.842   0.034   6.882  0.4965 -0.2224 -0.0826
 7439TIP3   OH246511   4.834   0.379   6.819 -0.4798  0.2653 -0.3855
 7439TIP3    H146512   4.749   0.386   6.863 -0.5961 -0.7066 -0.4238
 7439TIP3    H246513   4.842   0.286   6.799  0.2576  0.4689 -1.0658
 7440TIP3   OH246514   3.734   5.529   0.267  0.5676  0.2113  0.0028
 7440TIP3    H146515   3.676   5.587   0.316 -1.2307 -1.3116 -0.1922
 7440TIP3    H246516   3.816   5.577   0.261  0.7580  0.7382  4.0153
 7441TIP3   OH246517   4.479   2.680   9.346 -0.5397  0.1018 -0.2610
 7441TIP3    H146518   4.547   2.624   9.385 -0.6386 -0.5651 -1.0064
 7441TIP3    H246519   4.526   2.759   9.319 -0.4811  0.6021  1.2253
 7442TIP3   OH246520   7.313   7.624   8.595  0.2141 -0.0579  0.0872
 7442TIP3    H146521   7.280   7.614   8.684 -1.4505 -1.9922 -0.6532
 7442TIP3    H246522   7.240   7.662   8.546  1.3525  1.6760 -0.3597
 7443TIP3   OH246523   0.531   6.224   0.648  0.4411 -0.4176 -0.1430
 7443TIP3    H146524   0.611   6.185   0.685  0.4044  0.8006  1.3153
 7443TIP3    H246525   0.556   6.251   0.560  1.7852  0.3361  0.4396
 7444TIP3   OH246526   1.572   2.702   0.459 -0.3786  0.0812 -0.3469
 7444TIP3    H146527   1.493   2.750   0.436 -1.4488 -1.2320  0.4794
 7444TIP3    H246528   1.644   2.758   0.428 -1.5951  1.5987 -0.5298
 7445TIP3   OH246529   4.942   6.410   9.229  0.8878 -0.0328  0.4773
 7445TIP3    H146530   4.888   6.455   9.164 -0.4254 -2.0343  0.0858
 7445TIP3    H246531   5.032   6.421   9.198  0.2715 -1.4741 -2.1206
 7446TIP3   OH246532   2.262   2.517   6.751  0.4645 -0.4996 -0.1955
 7446TIP3    H146533   2.308   2.594   6.717 -1.8800  1.5878  1.0348
 7446TIP3    H246534   2.331   2.453   6.767  2.6977  1.7520 -0.1826
 7447TIP3   OH246535   2.693   1.812   0.654 -0.3082  0.0937 -0.0020
 7447TIP3    H146536   2.784   1.828   0.678 -0.0569  0.1370 -0.9397
 7447TIP3    H246537   2.656   1.899   0.639 -1.3487  0.3187  3.1602
 7448TIP3   OH246538   5.449   2.333   1.842  0.4021  0.3516 -0.8067
 7448TIP3    H146539   5.433   2.290   1.926 -0.4807  0.6251 -0.8227
 7448TIP3    H246540   5.403   2.279   1.778 -0.6699  1.2431 -0.8345
 7449TIP3   OH246541   1.654   1.728   1.545 -0.0012 -0.3205  0.0692
 7449TIP3    H146542   1.705   1.652   1.573  1.6536  1.3533  1.9176
 7449TIP3    H246543   1.575   1.726   1.600  0.2473 -0.4772  0.4244
 7450TIP3   OH246544   0.852   1.457   9.115 -0.1864  0.2183 -0.6293
 7450TIP3    H146545   0.849   1.519   9.188  1.1012 -1.0659  0.6068
 7450TIP3    H246546   0.795   1.385   9.144  2.9681 -1.9004  0.8110
 7451TIP3   OH246547   4.248   5.744   8.634 -0.2031 -0.1449 -0.3034
 7451TIP3    H146548   4.154   5.740   8.614 -0.1755  0.8524 -0.6834
 7451TIP3    H246549   4.286   5.675   8.579 -1.0236 -2.6562  2.0534
 7452TIP3   OH246550   6.994   3.190   8.706 -0.4666  0.2538 -0.1648
 7452TIP3    H146551   6.909   3.197   8.748 -0.6490 -0.1025 -0.4637
 7452TIP3    H246552   6.997   3.262   8.644 -0.1308  0.8799  0.5607
 7453TIP3   OH246553   0.103   4.444   8.570 -0.1895 -0.0306 -0.1414
 7453TIP3    H146554   0.101   4.348   8.568 -1.9951 -0.0313  0.3108
 7453TIP3    H246555   0.011   4.470   8.570  0.2658  1.7405 -1.1767
 7454TIP3   OH246556   4.669   2.951   9.956  0.3832  0.0934  0.2830
 7454TIP3    H146557   4.701   2.898   9.883 -1.0959 -0.8708  0.2790
 7454TIP3    H246558   4.734   3.020   9.967  2.6817 -1.9993  0.6074
 7455TIP3   OH246559   0.392   2.891   9.102  0.0720 -0.6356 -0.2906
 7455TIP3    H146560   0.437   2.959   9.152 -0.9241 -1.3219  1.6062
 7455TIP3    H246561   0.337   2.939   9.040 -0.4206  0.3155  0.8503
 7456TIP3   OH246562   6.130   1.951   1.944  0.3875 -0.5392 -0.5194
 7456TIP3    H146563   6.104   1.890   2.013  2.2835  1.0785  1.7902
 7456TIP3    H246564   6.193   1.902   1.892  2.0975 -0.6261  1.4641
 7457TIP3   OH246565   0.289   2.719   0.798 -0.6250 -0.5295  0.1194
 7457TIP3    H146566   0.258   2.742   0.710  0.4069  1.8097  0.3150
 7457TIP3    H246567   0.256   2.789   0.854  1.7825  0.0235  0.9501
 7458TIP3   OH246568   0.319   1.726   9.797 -0.4362  0.1608  0.0265
 7458TIP3    H146569   0.288   1.810   9.829 -0.3462 -0.4155  1.7613
 7458TIP3    H246570   0.412   1.724   9.820 -0.3958 -0.3493 -0.1619
 7459TIP3   OH246571   1.066   6.933   8.052 -0.1772 -0.3186  0.2091
 7459TIP3    H146572   1.061   6.895   8.140  0.0208  1.3390  0.9917
 7459TIP3    H246573   1.038   7.024   8.064  1.6341  0.4706 -1.0768
 7460TIP3   OH246574   2.131   3.327   9.546  0.0725 -0.2067  0.0898
 7460TIP3    H146575   2.075   3.300   9.619  0.4487 -1.0470  0.0724
 7460TIP3    H246576   2.211   3.275   9.556 -0.0834 -0.7405 -1.2266
 7461TIP3   OH246577   4.310   6.253   8.745 -0.9432  0.2685  0.6541
 7461TIP3    H146578   4.235   6.273   8.688 -0.2150 -2.1917 -1.3877
 7461TIP3    H246579   4.283   6.174   8.793  0.9282 -2.0202 -1.7283
 7462TIP3   OH246580   5.416   0.471   1.231 -0.3245  0.2094 -0.1571
 7462TIP3    H146581   5.472   0.503   1.161 -0.8370  1.6642  0.0581
 7462TIP3    H246582   5.340   0.434   1.186 -0.7990  1.4208 -0.3903
 7463TIP3   OH246583   6.934   6.761   8.550  0.0476  0.0297 -0.2427
 7463TIP3    H146584   7.029   6.748   8.546  0.3954  1.7692  1.0211
 7463TIP3    H246585   6.913   6.812   8.472  0.4361  1.0061  0.2752
 7464TIP3   OH246586   3.862   5.971   1.858  0.5592 -0.1483  0.1957
 7464TIP3    H146587   3.818   5.893   1.891 -0.2309 -0.7257 -2.0460
 7464TIP3    H246588   3.946   5.940   1.826  0.7834  0.1581  0.4802
 7465TIP3   OH246589   5.393   7.047   8.109 -0.4317  0.8041  0.1470
 7465TIP3    H146590   5.437   7.119   8.064 -0.9023  0.8384 -0.2768
 7465TIP3    H246591   5.435   7.042   8.195  0.3190  0.8952 -0.2119
 7466TIP3   OH246592   6.955   7.084   9.924  0.5762  0.4667  0.3337
 7466TIP3    H146593   6.888   7.143   9.959 -2.0122 -1.4158 -1.0922
 7466TIP3    H246594   6.950   7.007   9.981  1.5548  0.3028  0.2062
 7467TIP3   OH246595   2.666   3.796   8.211  0.6784 -0.4529 -0.0868
 7467TIP3    H146596   2.579   3.757   8.209 -0.3701  1.5861  1.7524
 7467TIP3    H246597   2.718   3.736   8.265 -0.2742 -0.4885  0.8285
 7468TIP3   OH246598   7.642   3.801   0.613 -0.2595  0.0337  0.4908
 7468TIP3    H146599   7.576   3.866   0.638 -1.4944 -1.5633  1.5194
 7468TIP3    H246600   7.677   3.769   0.696 -0.6113 -1.5404  0.0655
 7469TIP3   OH246601   7.252   2.485   1.645  0.3623  0.3949  0.4931
 7469TIP3    H146602   7.324   2.422   1.653  0.6642  0.8330  1.4362
 7469TIP3    H246603   7.174   2.437   1.674  0.4052  0.1447  0.1967
 7470TIP3   OH246604   0.898   0.077   0.983  0.3190 -0.4320  0.6039
 7470TIP3    H146605   0.812   0.106   1.014  0.2328  0.0610 -0.0810
 7470TIP3    H246606   0.954   0.084   1.061 -0.4057 -1.4700  1.2473
 7471TIP3   OH246607   0.727   3.813   7.618  0.0072  0.2098  0.5088
 7471TIP3    H146608   0.727   3.908   7.607  0.4095  0.3969  1.9575
 7471TIP3    H246609   0.634   3.791   7.629  0.1120  0.8567  3.1991
 7472TIP3   OH246610   2.340   7.386   7.308  0.3906  0.2623  0.1703
 7472TIP3    H146611   2.276   7.362   7.375 -1.8174  1.7495 -1.2804
 7472TIP3    H246612   2.352   7.307   7.257 -0.2472 -0.0535  0.4947
 7473TIP3   OH246613   2.484   0.294   0.449  0.1214  0.2346 -0.0837
 7473TIP3    H146614   2.468   0.269   0.358 -0.9175  0.2832  0.0698
 7473TIP3    H246615   2.532   0.219   0.486 -0.1066 -0.1137 -0.4774
 7474TIP3   OH246616   2.528   0.380   2.852  0.4811  0.2947  0.2403
 7474TIP3    H146617   2.537   0.327   2.932 -0.3212  0.8014  0.6685
 7474TIP3    H246618   2.573   0.328   2.785  4.1887  1.3703  1.6481
 7475TIP3   OH246619   0.713   1.827   2.034  0.3424 -0.4008 -0.4776
 7475TIP3    H146620   0.700   1.835   2.129 -1.5064  0.0955 -0.7213
 7475TIP3    H246621   0.703   1.916   2.001  2.0379 -0.4020 -1.0580
 7476TIP3   OH246622   6.544   4.366   1.387 -0.0878  0.4081 -0.3278
 7476TIP3    H146623   6.503   4.392   1.304 -0.6092 -0.1747 -0.2560
 7476TIP3    H246624   6.556   4.449   1.434 -1.0682  0.6111 -0.4101
 7477TIP3   OH246625   6.433   6.734   9.530  0.1780 -0.1801  0.1444
 7477TIP3    H146626   6.344   6.714   9.501  0.3949 -0.6870 -0.1907
 7477TIP3    H246627   6.422   6.770   9.618 -0.4707  1.1177 -0.4438
 7478TIP3   OH246628   5.468   7.487   1.949  0.6573  0.7429  0.2536
 7478TIP3    H146629   5.513   7.562   1.911 -1.0226  1.6657 -0.0365
 7478TIP3    H246630   5.375   7.509   1.942 -0.0869 -2.3439 -2.0031
 7479TIP3   OH246631   2.142   7.254   0.566  0.7194 -0.0006 -0.1074
 7479TIP3    H146632   2.216   7.288   0.516  0.8834 -0.4532 -0.1795
 7479TIP3    H246633   2.166   7.268   0.658  0.2472  1.1859 -0.1496
 7480TIP3   OH246634   7.086   0.149   2.112 -0.1886 -0.0007 -0.1330
 7480TIP3    H146635   7.005   0.156   2.162 -1.5619  0.3070 -2.2560
 7480TIP3    H246636   7.116   0.059   2.127 -2.0081 -0.7674 -0.8365
 7481TIP3   OH246637   1.957   1.968   8.906  0.1680  0.7208 -0.0563
 7481TIP3    H146638   1.938   2.041   8.965  1.0082 -1.1111  2.6905
 7481TIP3    H246639   1.873   1.923   8.895 -0.2163  1.6540 -1.2433
 7482TIP3   OH246640   0.400   6.444   1.675 -0.2266  0.4144 -0.3700
 7482TIP3    H146641   0.380   6.366   1.625  3.6075 -0.4618 -0.8824
 7482TIP3    H246642   0.482   6.477   1.638  0.2973  2.5007  2.2411
 7483TIP3   OH246643   5.826   1.176   0.279  0.5077 -0.2116  0.4665
 7483TIP3    H146644   5.835   1.260   0.324  2.9067 -0.7243  1.0999
 7483TIP3    H246645   5.824   1.198   0.186  0.5297  0.5867  0.6512
 7484TIP3   OH246646   7.469   1.640   1.917  0.5262  0.1229 -0.0347
 7484TIP3    H146647   7.433   1.625   1.830 -1.0522 -0.0784  0.6082
 7484TIP3    H246648   7.466   1.554   1.959  2.1209  0.0334 -0.0562
 7485TIP3   OH246649   5.775   3.017   1.135  0.4236  0.8514  0.2671
 7485TIP3    H146650   5.766   2.941   1.193  1.0914  0.7214  0.2034
 7485TIP3    H246651   5.864   3.047   1.149 -0.1914  2.3713  1.2001
 7486TIP3   OH246652   4.295   1.203   2.849 -0.3491 -0.1244 -0.5360
 7486TIP3    H146653   4.329   1.114   2.842 -1.0796 -0.4739  0.1612
 7486TIP3    H246654   4.348   1.254   2.788 -0.0416 -1.0705 -1.0815
 7487TIP3   OH246655   2.083   6.083   2.283  0.4716 -0.0110  0.0072
 7487TIP3    H146656   2.169   6.100   2.319 -0.2859  1.6414  1.1454
 7487TIP3    H246657   2.027   6.153   2.318 -1.4050 -1.2108 -0.4308
 7488TIP3   OH246658   6.819   2.096   9.446 -0.2059  0.2763  0.2066
 7488TIP3    H146659   6.786   2.006   9.453  2.4932 -0.7298  1.1833
 7488TIP3    H246660   6.871   2.095   9.365  3.4046 -0.4348  2.3403
 7489TIP3   OH246661   0.812   4.319   1.811 -0.5820 -0.1509 -0.0920
 7489TIP3    H146662   0.758   4.241   1.799 -0.5887 -0.4459  1.6546
 7489TIP3    H246663   0.749   4.392   1.810 -0.7898 -0.3280  0.1022
 7490TIP3   OH246664   0.661   1.732   7.256  0.3847  0.1562 -0.2575
 7490TIP3    H146665   0.737   1.676   7.269  2.0629  2.2008 -0.7016
 7490TIP3    H246666   0.591   1.672   7.229  1.9815 -1.7330 -0.4083
 7491TIP3   OH246667   4.363   3.412   8.718 -0.3498 -0.0860  0.2236
 7491TIP3    H146668   4.371   3.317   8.713 -0.2640 -0.0235 -1.6470
 7491TIP3    H246669   4.274   3.430   8.689 -0.0188  0.4527 -0.4796
 7492TIP3   OH246670   2.663   7.449   0.042  0.4479 -0.1978 -0.0108
 7492TIP3    H146671   2.609   7.518   0.004  1.1076  0.1092 -0.4125
 7492TIP3    H246672   2.716   7.417  -0.030  1.3839  0.0727  0.5343
 7493TIP3   OH246673   5.952   2.365   1.572 -0.1776 -0.0233  0.0077
 7493TIP3    H146674   6.028   2.421   1.563 -1.8647  2.4637  0.1959
 7493TIP3    H246675   5.931   2.366   1.665 -0.6151 -0.4126 -0.0779
 7494TIP3   OH246676   6.202   5.196   0.469  0.0442  0.0014  0.1857
 7494TIP3    H146677   6.148   5.239   0.535 -2.2987 -2.3002 -0.0689
 7494TIP3    H246678   6.190   5.248   0.390  2.0102  2.1482  1.1578
 7495TIP3   OH246679   0.563   2.221   9.646  0.7836 -0.0887 -0.1361
 7495TIP3    H146680   0.587   2.314   9.636  0.9888 -0.2963 -1.9209
 7495TIP3    H246681   0.632   2.185   9.702  0.0200  1.0698  1.6227
 7496TIP3   OH246682   6.553   4.759   7.811  0.1508  0.3739 -0.1184
 7496TIP3    H146683   6.518   4.685   7.861 -0.8896  0.8021 -0.1817
 7496TIP3    H246684   6.557   4.831   7.874 -0.1953  0.6398 -0.3923
 7497TIP3   OH246685   2.418   7.134   8.399 -0.2449  0.1963 -0.5064
 7497TIP3    H146686   2.452   7.156   8.313 -0.1192  0.8552 -0.2970
 7497TIP3    H246687   2.483   7.170   8.460 -2.2509  3.3385 -0.0222
 7498TIP3   OH246688   0.576   5.182   9.343  0.1425 -0.2071  0.3867
 7498TIP3    H146689   0.516   5.107   9.340 -0.8832  0.5467  1.0384
 7498TIP3    H246690   0.549   5.238   9.270 -0.2105  0.3093  0.8984
 7499TIP3   OH246691   2.901   3.352   2.074 -0.5830  0.0230 -0.2563
 7499TIP3    H146692   2.883   3.442   2.045  1.7618  0.0682 -1.8410
 7499TIP3    H246693   2.993   3.354   2.103 -0.3322 -1.9555 -0.7692
 7500TIP3   OH246694   6.149   1.771   0.270 -0.8107 -0.8052  0.9546
 7500TIP3    H146695   6.090   1.746   0.198 -0.6919 -1.7863  1.1738
 7500TIP3    H246696   6.118   1.720   0.345  0.2425 -1.2602  1.0983
 7501TIP3   OH246697   6.689   6.652   8.878 -0.0755 -0.5109  0.7450
 7501TIP3    H146698   6.749   6.578   8.891  1.0603  0.4817  1.4787
 7501TIP3    H246699   6.675   6.686   8.967 -1.0642 -0.2071  0.4815
 7502TIP3   OH246700   5.733   2.522   0.818 -0.2758  0.3077  0.1696
 7502TIP3    H146701   5.650   2.567   0.833  0.6141  2.6024 -1.2018
 7502TIP3    H246702   5.740   2.517   0.723  0.6878 -0.8512  0.2811
 7503TIP3   OH246703   4.583   6.650   7.450 -0.6014  0.1390 -0.2595
 7503TIP3    H146704   4.488   6.644   7.438 -0.5753 -1.9656  0.0758
 7503TIP3    H246705   4.619   6.633   7.362 -0.5684 -2.5276  0.1659
 7504TIP3   OH246706   6.213   4.924   8.190  0.2845  0.2390  0.6880
 7504TIP3    H146707   6.281   4.982   8.156  0.5944 -0.3224  0.3297
 7504TIP3    H246708   6.149   4.918   8.119 -0.3006  1.0239  1.1510
 7505TIP3   OH246709   2.384   1.408   9.936 -0.1370 -0.2051 -0.0064
 7505TIP3    H146710   2.289   1.408   9.946 -0.3306 -0.8744 -1.5519
 7505TIP3    H246711   2.401   1.342   9.869  1.0965  2.3277 -2.3630
 7506TIP3   OH246712   6.423   2.932   1.605  0.6367 -0.3342 -0.5025
 7506TIP3    H146713   6.511   2.914   1.572  0.4139  0.1492 -1.3942
 7506TIP3    H246714   6.370   2.859   1.572  0.7894 -0.8777  0.4348
 7507TIP3   OH246715   4.309   0.558   0.058 -0.5599 -0.0140 -0.3309
 7507TIP3    H146716   4.381   0.548   0.120 -0.4957 -0.7227 -0.5045
 7507TIP3    H246717   4.311   0.650   0.032  2.7214 -0.6736 -3.1938
 7508TIP3   OH246718   5.132   1.527   0.343 -0.1910 -0.1413 -0.0549
 7508TIP3    H146719   5.094   1.472   0.275  0.6474  0.0658 -0.7065
 7508TIP3    H246720   5.133   1.471   0.421  2.1525 -1.6877 -1.0733
 7509TIP3   OH246721   6.678   4.482   8.317 -0.1159 -0.0833  1.2644
 7509TIP3    H146722   6.734   4.511   8.245 -0.3358 -0.7227  0.8275
 7509TIP3    H246723   6.627   4.410   8.280 -2.1428  1.2594  1.2437
 7510TIP3   OH246724   5.322   5.502   2.005  0.4104 -0.6376 -0.1412
 7510TIP3    H146725   5.397   5.545   2.046  0.5469  0.6116 -1.5828
 7510TIP3    H246726   5.285   5.446   2.073  0.6851  1.2251  1.6438
 7511TIP3   OH246727   3.657   7.407   2.747  0.4679  0.0141 -0.1955
 7511TIP3    H146728   3.731   7.423   2.689  1.2522 -0.9973  0.4889
 7511TIP3    H246729   3.590   7.369   2.691  0.9046 -0.1638 -0.6039
 7512TIP3   OH246730   1.385   3.451   8.088 -0.0616  0.3665  0.3681
 7512TIP3    H146731   1.469   3.466   8.131  0.3244  1.0253 -0.5841
 7512TIP3    H246732   1.358   3.538   8.058 -1.2850  0.2340  1.0027
 7513TIP3   OH246733   3.570   1.442   8.535 -0.3135  0.2007 -0.8556
 7513TIP3    H146734   3.586   1.373   8.600 -0.5578  0.3720 -0.6131
 7513TIP3    H246735   3.525   1.511   8.583  2.0192  1.5826 -0.4892
 7514TIP3   OH246736   0.005   0.720   9.708  0.2416  0.2796 -0.3084
 7514TIP3    H146737  -0.040   0.804   9.713  0.7655  0.6478 -1.5234
 7514TIP3    H246738   0.095   0.742   9.686  0.1594 -0.6416 -1.6772
 7515TIP3   OH246739   3.029   2.813   8.986 -0.0993 -0.0958 -0.1916
 7515TIP3    H146740   3.119   2.810   9.016 -0.0599 -2.4618 -0.3717
 7515TIP3    H246741   3.031   2.776   8.898 -1.2325 -0.1249 -0.2299
 7516TIP3   OH246742   6.231   4.084   1.486 -0.2638  0.5216 -0.7351
 7516TIP3    H146743   6.201   3.998   1.513 -0.7021  0.5470 -1.1396
 7516TIP3    H246744   6.327   4.079   1.492 -0.2819 -0.0269 -0.8702
 7517TIP3   OH246745   7.013   5.033   9.592  0.2653  0.6842 -0.1125
 7517TIP3    H146746   7.093   5.082   9.575  0.7658  0.2176  0.8128
 7517TIP3    H246747   7.026   4.950   9.546  1.6538 -0.6101  2.4068
 7518TIP3   OH246748   0.402   7.292   0.079  0.1638  0.1216 -0.1592
 7518TIP3    H146749   0.441   7.207   0.060  0.0130 -0.1118  0.5269
 7518TIP3    H246750   0.395   7.335  -0.006  0.3827 -0.4903 -0.4953
 7519TIP3   OH246751   1.629   1.535   0.331 -0.2506 -0.1545  0.0488
 7519TIP3    H146752   1.577   1.585   0.394  0.3538  0.7145 -0.1323
 7519TIP3    H246753   1.641   1.449   0.372  1.8600  1.0236  2.0800
 7520TIP3   OH246754   1.633   1.854   0.049 -0.3618 -0.1661  0.0879
 7520TIP3    H146755   1.552   1.901   0.035  0.4092  1.1999  0.0883
 7520TIP3    H246756   1.692   1.884  -0.020 -0.0048 -1.5466 -0.2528
 7521TIP3   OH246757   6.071   6.807   0.693 -0.3371  0.2917  0.1727
 7521TIP3    H146758   5.983   6.769   0.691 -0.7598  1.2395  0.0598
 7521TIP3    H246759   6.060   6.889   0.741  1.1604 -1.1689  3.3242
 7522TIP3   OH246760   0.990   2.792   9.013 -0.0930 -0.1991  0.1088
 7522TIP3    H146761   1.013   2.884   8.997  0.3048 -0.5424 -1.5621
 7522TIP3    H246762   0.903   2.782   8.975 -0.0171 -0.5659  0.0243
 7523TIP3   OH246763   2.540   2.744   7.655 -0.0358 -0.4299 -0.5547
 7523TIP3    H146764   2.509   2.785   7.736 -1.6692 -0.6707 -1.0398
 7523TIP3    H246765   2.601   2.809   7.618  3.0809 -1.4779  2.2443
 7524TIP3   OH246766   1.914   3.389   9.151  0.0166 -0.0113 -0.1473
 7524TIP3    H146767   1.988   3.437   9.189  0.1993 -0.6603  0.3302
 7524TIP3    H246768   1.928   3.298   9.177  0.5478 -0.6179 -2.4229
 7525TIP3   OH246769   0.800   6.608   0.335  0.1555 -0.1748 -0.6212
 7525TIP3    H146770   0.794   6.658   0.253  0.4412  0.2815 -0.3617
 7525TIP3    H246771   0.714   6.620   0.376 -0.0129 -0.4595 -0.8813
 7526TIP3   OH246772   2.808   3.276   0.044  0.6239  0.4275  0.2301
 7526TIP3    H146773   2.884   3.327   0.018  0.8628 -0.5693 -1.1698
 7526TIP3    H246774   2.737   3.310  -0.010  0.8208 -0.7710 -0.8284
 7527TIP3   OH246775   3.742   2.173   7.067 -0.1901 -0.5137 -0.1016
 7527TIP3    H146776   3.675   2.122   7.112  1.0048 -1.7250  0.3838
 7527TIP3    H246777   3.708   2.187   6.979 -1.3002 -0.6298  0.3026
 7528TIP3   OH246778   0.537   3.007   0.551  0.0792  0.7601 -0.0872
 7528TIP3    H146779   0.560   3.100   0.553 -0.6788  0.9610 -0.2715
 7528TIP3    H246780   0.608   2.964   0.598  1.2774  1.2370 -1.3684
 7529TIP3   OH246781   2.577   4.534   7.029 -0.2931  0.1896 -0.2291
 7529TIP3    H146782   2.613   4.614   7.066 -1.5187  0.2680  0.8344
 7529TIP3    H246783   2.559   4.478   7.105  1.4005 -1.5032 -0.9707
 7530TIP3   OH246784   1.210   4.884   0.805 -0.7456 -0.4613  0.0296
 7530TIP3    H146785   1.251   4.809   0.848 -0.2707  0.6421  1.5777
 7530TIP3    H246786   1.117   4.873   0.821 -0.6350 -0.4781  0.6807
 7531TIP3   OH246787   2.528   5.594   9.606 -0.3146  0.1592 -0.0974
 7531TIP3    H146788   2.477   5.595   9.687 -1.5048 -0.9648 -0.7853
 7531TIP3    H246789   2.617   5.575   9.634 -0.6857 -0.0534  0.9690
 7532TIP3   OH246790   3.763   7.196   1.125  0.3757 -0.1696 -0.5518
 7532TIP3    H146791   3.817   7.206   1.046  0.9366 -1.2656 -0.3312
 7532TIP3    H246792   3.788   7.111   1.160 -0.7236 -0.2134  0.1716
 7533TIP3   OH246793   4.049   5.199   8.313  0.3528 -0.4028  0.2875
 7533TIP3    H146794   4.036   5.237   8.226  0.5383  0.6889  0.7325
 7533TIP3    H246795   3.970   5.222   8.361 -0.5943 -2.5572 -0.0977
 7534TIP3   OH246796   1.634   5.795   9.818  0.1186 -0.9532 -0.3478
 7534TIP3    H146797   1.716   5.843   9.805 -0.2792 -0.6024 -1.7243
 7534TIP3    H246798   1.637   5.724   9.753 -0.7896 -0.7561 -0.6161
 7535TIP3   OH246799   5.483   1.095   8.285 -0.7192  0.4370  0.2175
 7535TIP3    H146800   5.440   1.158   8.343  0.6880  1.2907  0.3955
 7535TIP3    H246801   5.475   1.132   8.198 -0.7653  0.3520  0.1857
 7536TIP3   OH246802   0.547   6.669   0.510  0.4776  0.3787  0.1147
 7536TIP3    H146803   0.465   6.718   0.511  0.3566  0.2819 -1.5202
 7536TIP3    H246804   0.530   6.593   0.564  0.1214  1.2824  1.3258
 7537TIP3   OH246805   6.300   6.180   8.901  0.1995 -0.4730 -0.3505
 7537TIP3    H146806   6.364   6.121   8.861 -0.8768 -2.7268  1.0294
 7537TIP3    H246807   6.340   6.207   8.983 -0.0017 -0.6549 -0.1925
 7538TIP3   OH246808   6.522   1.895   1.669 -0.3168  0.1608 -0.2850
 7538TIP3    H146809   6.610   1.920   1.643 -0.0449  1.2383  1.4783
 7538TIP3    H246810   6.466   1.966   1.637 -0.3363  0.2107 -0.1401
 7539TIP3   OH246811   2.362   7.388   9.595  0.4918  0.3649 -0.0549
 7539TIP3    H146812   2.448   7.421   9.622  0.5593 -0.0601  0.2676
 7539TIP3    H246813   2.309   7.466   9.583  0.0181  0.6070  2.7509
 7540TIP3   OH246814   2.612   7.543   7.669  0.1775 -0.4366 -0.0772
 7540TIP3    H146815   2.622   7.616   7.608 -0.1267  0.0336  0.4269
 7540TIP3    H246816   2.580   7.471   7.614  0.3651 -0.1591 -0.5598
 7541TIP3   OH246817   0.612   5.840   8.801 -0.3825  0.2438 -0.0315
 7541TIP3    H146818   0.681   5.880   8.748 -0.0189  0.0534  0.2870
 7541TIP3    H246819   0.633   5.866   8.891 -2.2691  2.4339 -0.1543
 7542TIP3   OH246820   3.424   2.156   0.104 -0.3924 -0.0416 -0.8529
 7542TIP3    H146821   3.344   2.206   0.088  0.3870  1.6325  0.2315
 7542TIP3    H246822   3.492   2.202   0.055  0.0600 -1.0575 -1.2211
 7543TIP3   OH246823   2.987   1.725   0.926 -0.2491 -0.8770  0.2822
 7543TIP3    H146824   2.958   1.763   1.009  0.3791  1.5892 -0.5515
 7543TIP3    H246825   3.077   1.697   0.943 -0.0226 -0.1145  0.3716
 7544TIP3   OH246826   2.275   2.002   2.440 -0.8153  0.2826 -0.2409
 7544TIP3    H146827   2.200   2.054   2.470  0.4506  1.8531  0.3684
 7544TIP3    H246828   2.347   2.028   2.498  0.7799  0.5477 -2.1981
 7545TIP3   OH246829   7.514   2.897   0.299  0.8341 -0.1723 -0.3117
 7545TIP3    H146830   7.604   2.926   0.289  1.1499 -1.0189 -0.0769
 7545TIP3    H246831   7.482   2.885   0.209  0.4845  1.4452 -0.4359
 7546TIP3   OH246832   2.491   5.574   7.436 -0.2215 -0.1363  0.6030
 7546TIP3    H146833   2.461   5.548   7.348  0.2238 -1.9196  0.9413
 7546TIP3    H246834   2.412   5.605   7.480 -0.5421  0.3130 -0.2668
 7547TIP3   OH246835   4.462   3.947   0.701  0.7211  0.2246  0.4098
 7547TIP3    H146836   4.489   4.008   0.633  0.5326 -1.1671 -0.9776
 7547TIP3    H246837   4.474   3.860   0.662  1.0384 -0.6579  2.3207
 7548TIP3   OH246838   1.236   2.290   0.788  0.1036  0.3902  0.5004
 7548TIP3    H146839   1.324   2.319   0.809  0.9456 -2.0411  0.6244
 7548TIP3    H246840   1.186   2.305   0.869  0.8950  0.0411  1.0654
 7549TIP3   OH246841   7.512   0.080   9.863 -0.4809 -0.3552 -0.3347
 7549TIP3    H146842   7.519   0.173   9.839  0.9361 -0.4755 -0.5067
 7549TIP3    H246843   7.462   0.040   9.792  0.2801  0.0125 -1.1009
 7550TIP3   OH246844   2.552   7.353   1.350 -0.2556  0.1631 -0.2188
 7550TIP3    H146845   2.513   7.269   1.372 -0.1216  0.4377  1.1622
 7550TIP3    H246846   2.625   7.331   1.292  0.8962 -0.8789  1.5177
 7551TIP3   OH246847   5.233   6.538   8.264  0.0658  0.3433 -0.7649
 7551TIP3    H146848   5.214   6.482   8.188 -0.0407 -0.8076  0.0908
 7551TIP3    H246849   5.328   6.531   8.275  0.2512  1.4408 -1.4743
 7552TIP3   OH246850   3.552   4.340   0.564 -0.5853  0.0183 -0.0162
 7552TIP3    H146851   3.573   4.308   0.652 -0.0186 -2.8387 -1.0767
 7552TIP3    H246852   3.465   4.305   0.546  0.3178 -1.6497 -1.4706
 7553TIP3   OH246853   5.076   7.571   7.279 -0.1042 -0.1919 -0.4790
 7553TIP3    H146854   5.157   7.579   7.227  1.0633 -0.4450  1.2184
 7553TIP3    H246855   5.089   7.491   7.331 -1.4932 -0.2710 -0.2295
 7554TIP3   OH246856   5.176   0.755   8.098 -0.1454 -0.2346  0.0096
 7554TIP3    H146857   5.193   0.847   8.080  1.0101  0.0327  2.1949
 7554TIP3    H246858   5.137   0.722   8.017 -0.5611  2.1414 -0.8353
 7555TIP3   OH246859   7.039   6.238   1.270  0.2038  0.5168  0.1603
 7555TIP3    H146860   7.128   6.265   1.296 -0.0822  1.2787  0.3875
 7555TIP3    H246861   7.052   6.157   1.222  0.8937 -0.1816  1.4768
 7556TIP3   OH246862   6.444   4.966   0.177 -0.2580  0.4950  0.1548
 7556TIP3    H146863   6.402   4.882   0.194  0.6516 -0.1222 -0.5315
 7556TIP3    H246864   6.454   5.006   0.264  0.0308 -0.4646  0.5769
 7557TIP3   OH246865   4.180   5.783   1.292 -0.2124 -0.1084 -1.0379
 7557TIP3    H146866   4.258   5.787   1.347 -0.8224 -1.2651 -0.0479
 7557TIP3    H246867   4.135   5.866   1.309  1.4034  1.1855 -2.6405
 7558TIP3   OH246868   1.708   0.277   0.255 -0.4744  0.3296 -0.6183
 7558TIP3    H146869   1.692   0.182   0.258 -1.6339  0.5165 -0.2075
 7558TIP3    H246870   1.688   0.307   0.344 -0.9068  1.0617 -0.9529
 7559TIP3   OH246871   4.476   7.519   8.023 -0.5374  0.2930  0.0505
 7559TIP3    H146872   4.564   7.480   8.021 -0.8391 -0.3380 -1.6158
 7559TIP3    H246873   4.493   7.614   8.023  0.1755  0.2269 -2.4229
 7560TIP3   OH246874   0.681   5.373   0.933 -0.1671  0.3370 -0.1025
 7560TIP3    H146875   0.714   5.454   0.972  0.9219  0.1120 -0.4944
 7560TIP3    H246876   0.719   5.304   0.988  0.1879  0.0644 -0.6753
 7561TIP3   OH246877   5.124   0.328   0.495 -0.5674 -0.2786  0.1852
 7561TIP3    H146878   5.044   0.317   0.445 -0.9280  2.1266  0.0966
 7561TIP3    H246879   5.190   0.354   0.430  0.2257 -1.8658  0.3089
 7562TIP3   OH246880   7.678   5.643   1.266  0.0485  0.1480 -0.1452
 7562TIP3    H146881   7.677   5.564   1.319 -0.2186  0.7232  0.7341
 7562TIP3    H246882   7.591   5.647   1.227  0.1655 -0.1467 -0.4461
 7563TIP3   OH246883   3.582   3.445   7.855  0.0369  0.0846 -0.3336
 7563TIP3    H146884   3.622   3.512   7.799 -1.7325  1.1786 -0.3683
 7563TIP3    H246885   3.600   3.474   7.944 -1.0675  0.8716 -0.3442
 7564TIP3   OH246886   5.203   0.061   7.781  0.1701  0.7295 -0.1074
 7564TIP3    H146887   5.235   0.151   7.781 -0.4185  0.9520  1.1124
 7564TIP3    H246888   5.254   0.018   7.712  0.1478  2.0872 -1.0147
 7565TIP3   OH246889   4.887   5.304   1.082 -0.1249 -0.1601  0.3047
 7565TIP3    H146890   4.850   5.364   1.148  2.3310  0.1045  1.5748
 7565TIP3    H246891   4.929   5.236   1.134  0.4389 -0.8817 -1.0650
 7566TIP3   OH246892   0.193   7.210   1.404  0.2295 -0.0905 -0.2312
 7566TIP3    H146893   0.209   7.121   1.372  1.6549  0.5334 -1.4057
 7566TIP3    H246894   0.233   7.212   1.491 -0.3047 -0.7426  0.0375
 7567TIP3   OH246895   2.825   6.839   6.955  0.2533 -0.2366  0.2850
 7567TIP3    H146896   2.797   6.892   6.881  0.6123 -0.6519 -0.1554
 7567TIP3    H246897   2.832   6.901   7.028  2.0162  0.6045 -0.5346
 7568TIP3   OH246898   2.264   4.388   0.491  0.2905 -0.2208 -0.6554
 7568TIP3    H146899   2.204   4.377   0.565 -0.7633 -0.6188 -1.5417
 7568TIP3    H246900   2.342   4.339   0.516  0.6907  1.1488  0.9693
 7569TIP3   OH246901   0.708   3.636   9.918 -0.2184 -0.3302 -0.3922
 7569TIP3    H146902   0.780   3.669   9.865  0.2536  0.3878  0.6610
 7569TIP3    H246903   0.636   3.696   9.901  0.6552  1.4126  1.5661
 7570TIP3   OH246904   2.259   2.474   9.921  0.3276  0.1274  0.1325
 7570TIP3    H146905   2.306   2.534   9.979 -0.9668 -0.8387  2.3116
 7570TIP3    H246906   2.285   2.387   9.950 -1.2250 -0.3957  0.0663
 7571TIP3   OH246907   6.619   6.666   7.831 -0.2329 -0.1422  0.6466
 7571TIP3    H146908   6.701   6.714   7.840 -0.0199 -0.6250  1.3297
 7571TIP3    H246909   6.646   6.574   7.824 -0.7791 -0.4965  2.6625
 7572TIP3   OH246910   4.208   0.140   9.107 -0.2234  0.1721  0.0007
 7572TIP3    H146911   4.279   0.199   9.132 -0.4852  0.0154  1.1883
 7572TIP3    H246912   4.129   0.196   9.108 -0.2460  0.1515 -0.4486
 7573TIP3   OH246913   2.919   7.148   9.551 -0.4580 -0.4396  0.2653
 7573TIP3    H146914   2.982   7.204   9.506  2.2293 -2.1027  1.6449
 7573TIP3    H246915   2.973   7.078   9.590 -3.2546 -2.3205  1.0928
 7574TIP3   OH246916   7.549   6.509   8.401 -0.5686 -0.2553  0.5623
 7574TIP3    H146917   7.455   6.526   8.412 -0.5160  0.2472  0.2874
 7574TIP3    H246918   7.563   6.423   8.441 -1.3346 -0.8223 -0.3554
 7575TIP3   OH246919   1.143   7.336   0.111  0.0027 -0.0942  0.0595
 7575TIP3    H146920   1.154   7.350   0.205  0.3027  0.4222 -0.0493
 7575TIP3    H246921   1.232   7.332   0.076 -0.1157  0.5300 -0.3207
 7576TIP3   OH246922   2.224   4.763   8.810  0.5077 -0.2070 -0.3430
 7576TIP3    H146923   2.309   4.725   8.787  0.9261  1.2947 -1.4723
 7576TIP3    H246924   2.177   4.769   8.726 -0.4264 -0.3142  0.1550
 7577TIP3   OH246925   2.862   1.252   7.575 -0.1200 -0.6838 -0.0479
 7577TIP3    H146926   2.826   1.196   7.644  0.9018 -2.9165 -1.2053
 7577TIP3    H246927   2.888   1.190   7.506  0.6656  1.2983 -1.6105
 7578TIP3   OH246928   1.816   0.818   9.302  0.7721  0.1199  0.0492
 7578TIP3    H146929   1.796   0.741   9.355  1.3213 -0.4666 -0.5791
 7578TIP3    H246930   1.772   0.800   9.218 -0.4898  1.2472  0.4333
 7579TIP3   OH246931   0.043   1.913   9.630  0.1391 -0.0236  0.3116
 7579TIP3    H146932   0.119   1.932   9.685  0.2712 -0.2667  0.2116
 7579TIP3    H246933  -0.032   1.948   9.679 -0.1730 -2.9600  2.1736
 7580TIP3   OH246934   2.272   4.227   2.029 -0.3272  0.0512 -0.3534
 7580TIP3    H146935   2.207   4.295   2.047  2.4702  2.4250  1.6615
 7580TIP3    H246936   2.265   4.167   2.104 -1.4297 -0.8512 -1.1345
 7581TIP3   OH246937   1.785   5.585   2.816  0.3778 -0.1100 -0.2358
 7581TIP3    H146938   1.829   5.644   2.876 -0.5005  1.1498 -0.7914
 7581TIP3    H246939   1.753   5.641   2.746 -2.0229 -0.9326  0.0962
 7582TIP3   OH246940   6.442   3.388   0.217  0.0615  0.4667  0.6759
 7582TIP3    H146941   6.427   3.386   0.311  0.2630  0.0513  0.7007
 7582TIP3    H246942   6.401   3.470   0.188 -0.2473  0.4586  1.0803
 7583TIP3   OH246943   7.115   7.504   8.229  0.0156 -0.6007  0.4217
 7583TIP3    H146944   7.182   7.437   8.239 -0.4663 -1.1314  0.1378
 7583TIP3    H246945   7.071   7.482   8.147 -1.3380 -1.0197  1.2294
 7584TIP3   OH246946   3.938   7.211   9.084  0.7379  0.7629  0.6404
 7584TIP3    H146947   4.005   7.148   9.112  0.7354  0.7556  0.6305
 7584TIP3    H246948   3.921   7.188   8.992  0.3877  0.4689  0.7752
 7585TIP3   OH246949   2.471   6.793   1.026 -0.2670 -0.1170  0.0424
 7585TIP3    H146950   2.381   6.762   1.022 -0.0672 -0.9877  1.5446
 7585TIP3    H246951   2.486   6.835   0.941 -1.8473 -0.5684 -0.4915
 7586TIP3   OH246952   4.556   5.907   0.101 -0.9737  0.1730  0.1825
 7586TIP3    H146953   4.560   5.848   0.025 -0.5941 -0.3644  0.6181
 7586TIP3    H246954   4.585   5.854   0.175  1.0403  1.3684  0.3064
 7587TIP3   OH246955   4.593   7.676   0.003  0.1165 -0.3012 -0.2021
 7587TIP3    H146956   4.663   7.723   0.047  0.5937 -1.1811  0.0041
 7587TIP3    H246957   4.542   7.744  -0.042 -1.5567  0.9211  3.2188
 7588TIP3   OH246958   4.829   6.747   1.079 -0.3820  0.9761 -0.4269
 7588TIP3    H146959   4.757   6.685   1.069  0.2148 -0.0529  1.3261
 7588TIP3    H246960   4.904   6.704   1.038  0.7633 -0.9131  3.2126
 7589TIP3   OH246961   4.179   0.577   9.418 -0.5674 -0.3550 -0.0965
 7589TIP3    H146962   4.210   0.656   9.463  0.3129 -1.4329  1.2840
 7589TIP3    H246963   4.089   0.598   9.393 -0.4546  0.9772  0.5202
 7590TIP3   OH246964   5.857   0.838   9.429 -0.1987  0.3230 -0.0478
 7590TIP3    H146965   5.907   0.917   9.409  1.3715  0.0186  2.1925
 7590TIP3    H246966   5.784   0.869   9.484 -0.0067  0.3158  0.2151
 7591TIP3   OH246967   5.749   5.897   9.589 -0.1457  0.0496 -0.5270
 7591TIP3    H146968   5.748   5.811   9.547 -0.4100 -0.5274  0.6322
 7591TIP3    H246969   5.660   5.910   9.620  0.5374 -0.5404  1.8203
 7592TIP3   OH246970   3.193   4.794   1.324 -0.0867  0.4653  0.8007
 7592TIP3    H146971   3.150   4.845   1.393  0.6537  0.6268  1.1532
 7592TIP3    H246972   3.121   4.753   1.277 -0.6221  0.5843  1.4913
 7593TIP3   OH246973   3.811   5.558   8.348 -0.1156 -0.5100  0.3957
 7593TIP3    H146974   3.718   5.579   8.340 -0.2098 -1.1657 -0.4132
 7593TIP3    H246975   3.816   5.466   8.324  0.7921 -0.3867  0.0893
 7594TIP3   OH246976   2.388   4.932   9.249 -0.1795 -0.1785  0.2583
 7594TIP3    H146977   2.293   4.919   9.248 -0.2385 -0.1620  2.0452
 7594TIP3    H246978   2.417   4.905   9.162 -2.0121  1.4389 -0.9510
 7595TIP3   OH246979   3.446   6.374   6.807 -0.4320 -0.1577 -0.0682
 7595TIP3    H146980   3.409   6.462   6.803 -0.2043 -0.0832 -0.6373
 7595TIP3    H246981   3.499   6.366   6.727  1.2438 -0.0665  0.9966
 7596TIP3   OH246982   5.996   1.876   1.255 -0.0048 -0.1661  0.1428
 7596TIP3    H146983   6.051   1.821   1.199 -0.7116  0.4433 -1.1817
 7596TIP3    H246984   6.043   1.960   1.259 -1.4451  0.8401 -2.1654
 7597TIP3   OH246985   1.535   4.172   0.534  0.0545  0.2188 -0.5175
 7597TIP3    H146986   1.448   4.211   0.541 -0.3554 -0.7516 -0.0888
 7597TIP3    H246987   1.519   4.079   0.519  1.0121  0.2135 -1.6940
 7598TIP3   OH246988   5.589   0.950   9.559 -0.4959  0.3694  0.5756
 7598TIP3    H146989   5.611   0.891   9.632  0.6403  0.7473  0.5511
 7598TIP3    H246990   5.572   1.034   9.601 -0.5207  0.4154  0.4714
 7599TIP3   OH246991   2.978   0.305   7.562 -0.4790  0.0329  1.2431
 7599TIP3    H146992   2.913   0.340   7.501 -0.0360 -0.8189  0.2536
 7599TIP3    H246993   2.988   0.374   7.628  0.2967  1.7816 -0.5755
 7600TIP3   OH246994   6.031   6.101   1.705  0.0468  0.2023 -0.6067
 7600TIP3    H146995   6.030   6.192   1.674  0.3246  1.0171  1.6103
 7600TIP3    H246996   5.978   6.102   1.785 -1.0211 -1.8922 -1.2248
 7601TIP3   OH246997   2.393   4.378   1.856  0.2185 -0.0569 -0.4125
 7601TIP3    H146998   2.357   4.303   1.903 -0.1318  0.3614 -0.0040
 7601TIP3    H246999   2.317   4.418   1.813 -0.0448  1.4346  1.2905
 7602TIP3   OH247000   7.370   0.068   9.051  0.7703  0.2954  0.1208
 7602TIP3    H147001   7.421   0.141   9.088  0.6499  0.9260 -0.9233
 7602TIP3    H247002   7.344   0.016   9.127  1.5039  0.9189  0.8199
 7603TIP3   OH247003   5.935   2.713   8.845 -0.4611  0.3016 -0.0622
 7603TIP3    H147004   5.882   2.768   8.787  2.5920  0.5939 -2.8239
 7603TIP3    H247005   5.931   2.626   8.805  0.3396  0.1124  0.2538
 7604TIP3   OH247006   6.606   1.502   7.713  0.3547 -0.1290  0.2170
 7604TIP3    H147007   6.681   1.559   7.701  0.3781  0.8379  3.8771
 7604TIP3    H247008   6.532   1.552   7.677  0.7211  1.2271  1.2812
 7605TIP3   OH247009   1.322   0.791   1.941  0.2337 -0.5300 -0.7086
 7605TIP3    H147010   1.386   0.856   1.912  0.4471  1.0111  2.7282
 7605TIP3    H247011   1.372   0.731   1.996 -0.5980 -1.6223 -1.1073
 7606TIP3   OH247012   2.917   4.333   6.817  0.3184  0.5969 -0.2980
 7606TIP3    H147013   2.963   4.272   6.759  0.4024  0.0765  0.3038
 7606TIP3    H247014   2.964   4.328   6.900 -0.4411  0.5171  0.1432
 7607TIP3   OH247015   5.697   6.873   0.577 -0.2157 -0.2839  0.2452
 7607TIP3    H147016   5.710   6.900   0.668 -0.6168 -0.8120  0.4646
 7607TIP3    H247017   5.665   6.952   0.533  0.5114  0.1261  0.4316
 7608TIP3   OH247018   3.394   4.231   9.477  0.0834  0.1132  0.4881
 7608TIP3    H147019   3.481   4.248   9.512  0.5135  0.7818 -0.8509
 7608TIP3    H247020   3.409   4.199   9.389 -1.0290  2.5393 -0.6965
 7609TIP3   OH247021   2.064   6.449   8.859  0.4071  0.4245 -0.1449
 7609TIP3    H147022   2.157   6.464   8.845  1.1349 -0.8308  2.7281
 7609TIP3    H247023   2.054   6.441   8.954 -2.1927 -2.0284 -0.4695
 7610TIP3   OH247024   2.656   5.598   9.042  0.4196  0.3320  0.4046
 7610TIP3    H147025   2.573   5.638   9.018  1.0509  1.4442 -0.0270
 7610TIP3    H247026   2.681   5.548   8.964 -0.2198 -0.6742  0.8296
 7611TIP3   OH247027   4.383   7.141   0.054  0.2491 -0.0131 -0.3555
 7611TIP3    H147028   4.321   7.195   0.103  0.0293 -1.0523  0.5580
 7611TIP3    H247029   4.467   7.159   0.096  0.2255 -0.1425 -0.2513
 7612TIP3   OH247030   4.287   2.481   2.448  0.5025 -0.1036  0.0219
 7612TIP3    H147031   4.275   2.404   2.503 -0.2274 -0.2304 -0.2968
 7612TIP3    H247032   4.250   2.553   2.499 -2.0264 -0.5266 -1.0430
 7613TIP3   OH247033   3.490   5.381   6.090 -0.0245 -0.2619  0.0955
 7613TIP3    H147034   3.479   5.354   5.999  1.9819  0.9829 -0.5806
 7613TIP3    H247035   3.502   5.299   6.138 -0.7138 -0.9135 -0.7966
 7614TIP3   OH247036   2.061   6.439   1.305  0.6330 -0.2896  0.1214
 7614TIP3    H147037   2.036   6.438   1.397  0.4946  0.8417  0.1059
 7614TIP3    H247038   1.986   6.399   1.260  0.4514 -0.3045  0.4339
 7615TIP3   OH247039   0.089   7.644   1.085  0.2359 -1.0456 -0.3452
 7615TIP3    H147040   0.079   7.553   1.115 -1.5611 -0.5519  0.6389
 7615TIP3    H247041   0.149   7.683   1.149 -0.7938 -0.9442  0.5759
 7616TIP3   OH247042   4.261   2.915   1.452 -0.0751  0.0670 -0.0880
 7616TIP3    H147043   4.269   2.832   1.499  1.1533 -0.0992 -0.5465
 7616TIP3    H247044   4.203   2.968   1.506  1.8789  0.1934  2.0857
 7617TIP3   OH247045   5.555   6.947   8.976 -0.3564 -0.5039  0.3834
 7617TIP3    H147046   5.609   6.882   8.931 -1.1690 -1.1545  0.3125
 7617TIP3    H247047   5.477   6.955   8.921  0.4582  1.8422 -0.5426
 7618TIP3   OH247048   6.266   4.418   8.392 -0.2179  0.1572  0.5472
 7618TIP3    H147049   6.330   4.363   8.345 -0.8189  0.8749 -1.1754
 7618TIP3    H247050   6.312   4.500   8.408 -0.8501  0.9036 -1.2458
 7619TIP3   OH247051   4.558   7.007   1.152 -0.1655 -0.0716  0.0139
 7619TIP3    H147052   4.495   6.980   1.084  0.4526  0.9755 -1.0127
 7619TIP3    H247053   4.611   6.929   1.168 -1.5114 -0.8900  0.6901
 7620TIP3   OH247054   4.645   0.257   7.638 -0.4748 -0.4749 -0.6101
 7620TIP3    H147055   4.564   0.210   7.620 -0.7914  0.6622 -2.4452
 7620TIP3    H247056   4.659   0.247   7.732 -2.8716 -0.4928 -0.2063
 7621TIP3   OH247057   2.640   4.808   9.740  0.0911  0.0370 -0.0642
 7621TIP3    H147058   2.664   4.746   9.671 -0.1229 -1.1945  0.9371
 7621TIP3    H247059   2.551   4.782   9.766 -0.0598  0.8618  0.2778
 7622TIP3   OH247060   0.316   5.304   1.463  0.7873 -0.2967 -0.4771
 7622TIP3    H147061   0.344   5.327   1.552 -0.4713  0.7236 -0.3100
 7622TIP3    H247062   0.301   5.388   1.420  1.3409 -0.7844 -1.6538
 7623TIP3   OH247063   1.828   3.491   8.322 -0.4823  0.6958  0.5279
 7623TIP3    H147064   1.899   3.555   8.321 -0.5749  0.7998 -0.0195
 7623TIP3    H247065   1.852   3.429   8.391  1.0743 -0.3122 -0.8449
 7624TIP3   OH247066   3.427   4.952   2.366 -0.2697 -0.1013  0.1392
 7624TIP3    H147067   3.404   4.871   2.412 -1.3813 -1.1358 -2.0803
 7624TIP3    H247068   3.357   4.963   2.301  0.1586  2.3635  0.0118
 7625TIP3   OH247069   0.799   4.352   2.100  0.3613 -0.1964 -0.3432
 7625TIP3    H147070   0.819   4.442   2.127  0.8243 -0.1214 -0.8931
 7625TIP3    H247071   0.794   4.357   2.004 -1.4906 -0.3984 -0.2885
 7626TIP3   OH247072   5.839   6.366   8.703 -0.6307  0.2386  0.3098
 7626TIP3    H147073   5.867   6.394   8.616 -1.3070  0.1134  0.0446
 7626TIP3    H247074   5.753   6.326   8.689  0.3808 -2.1981  0.6476
 7627TIP3   OH247075   4.371   7.597   2.902  0.4970 -0.6728  0.6338
 7627TIP3    H147076   4.286   7.581   2.943  0.1666  1.3731  0.8257
 7627TIP3    H247077   4.367   7.688   2.872  2.3427 -0.7743 -0.0426
 7628TIP3   OH247078   6.617   7.301   9.314  0.0954 -0.0209 -0.3854
 7628TIP3    H147079   6.573   7.237   9.370 -0.4308  0.5974 -0.0685
 7628TIP3    H247080   6.602   7.270   9.225  0.3989 -0.6759 -0.2123
 7629TIP3   OH247081   2.430   4.085   0.236 -0.6316 -0.4042 -0.1817
 7629TIP3    H147082   2.507   4.139   0.251 -1.4285  0.9145 -0.6921
 7629TIP3    H247083   2.413   4.045   0.321 -0.9759  1.4627  0.6881
 7630TIP3   OH247084   1.576   5.781   1.412  0.1794 -0.1083 -0.0035
 7630TIP3    H147085   1.628   5.816   1.484 -1.8501 -0.6957  1.8303
 7630TIP3    H247086   1.511   5.726   1.454 -1.0162 -0.5618 -2.3154
 7631TIP3   OH247087   3.629   6.518   1.141 -0.0734  0.1922 -0.3002
 7631TIP3    H147088   3.671   6.435   1.162  0.2899  0.0083 -1.6881
 7631TIP3    H247089   3.539   6.507   1.171  0.0625 -0.5778 -0.1550
 7632TIP3   OH247090   5.376   5.733   2.440 -0.4266  0.2675  0.0301
 7632TIP3    H147091   5.374   5.818   2.484  0.6408  0.4977 -0.3242
 7632TIP3    H247092   5.307   5.682   2.482  0.7787  0.3495  2.2685
 7633TIP3   OH247093   5.402   6.500   0.391  0.0514 -0.3232 -0.4089
 7633TIP3    H147094   5.317   6.521   0.430 -0.3183 -0.4888 -1.1160
 7633TIP3    H247095   5.385   6.493   0.297  1.1349  1.0684 -0.7379
 7634TIP3   OH247096   5.109   2.418   1.763 -1.2788 -0.0208  0.3483
 7634TIP3    H147097   5.031   2.375   1.729 -0.4789 -1.5419  0.3730
 7634TIP3    H247098   5.086   2.441   1.853 -2.1369  0.7268 -0.0525
 7635TIP3   OH247099   3.347   1.855   0.116 -0.0274 -0.4000 -0.0339
 7635TIP3    H147100   3.355   1.948   0.095  0.9280 -0.5955 -0.6142
 7635TIP3    H247101   3.271   1.850   0.174  0.4990  0.8611  0.8092
 7636TIP3   OH247102   2.910   6.691   0.976  0.4123  0.4765 -0.0726
 7636TIP3    H147103   2.845   6.697   1.046  0.1922 -2.1098  0.0184
 7636TIP3    H247104   2.858   6.681   0.896  0.6873  0.6231 -0.2699
 7637TIP3   OH247105   1.739   5.571   8.936 -0.1565  0.2699  0.0781
 7637TIP3    H147106   1.700   5.497   8.982 -0.5571  0.3208 -0.1727
 7637TIP3    H247107   1.676   5.642   8.945 -1.0010 -0.1600 -1.8471
 7638TIP3   OH247108   6.687   1.138   9.164  0.2676 -0.5735 -0.5135
 7638TIP3    H147109   6.642   1.117   9.246 -0.2396 -1.5817 -1.0252
 7638TIP3    H247110   6.617   1.167   9.106  0.7884  1.3837 -0.2276
 7639TIP3   OH247111   7.676   0.072   9.303 -0.4472  0.0329  0.3620
 7639TIP3    H147112   7.634   0.099   9.222 -2.0982  1.3408  1.5888
 7639TIP3    H247113   7.692   0.154   9.350  2.2891 -0.5178  0.5688
 7640TIP3   OH247114   2.048   5.618   9.677 -0.2089 -0.1025  0.3310
 7640TIP3    H147115   1.956   5.634   9.698 -0.3931 -0.5471 -0.1173
 7640TIP3    H247116   2.070   5.686   9.614 -0.1921  0.0894  0.5443
 7641TIP3   OH247117   0.013   3.308   1.801  0.1110  0.2955  0.7366
 7641TIP3    H147118  -0.036   3.339   1.725 -1.2473  0.3381  1.6001
 7641TIP3    H247119   0.093   3.360   1.801  0.6752 -0.4915 -1.2918
 7642TIP3   OH247120   5.043   6.558   0.018 -0.4687  0.2673  0.4065
 7642TIP3    H147121   4.974   6.514  -0.031  0.1482  0.8271 -1.0519
 7642TIP3    H247122   5.062   6.636  -0.034 -1.2882  2.1034  2.7091
 7643TIP3   OH247123   3.048   3.256   0.893 -0.2523  0.4530 -0.2065
 7643TIP3    H147124   3.003   3.285   0.972  2.1337  0.0372  1.3976
 7643TIP3    H247125   3.135   3.296   0.898  1.0421 -2.0159 -0.9891
 7644TIP3   OH247126   0.473   1.977   2.463 -0.1119 -0.0218  0.2735
 7644TIP3    H147127   0.483   2.071   2.480 -0.8877  0.1735 -0.2953
 7644TIP3    H247128   0.387   1.969   2.422 -0.2574 -1.0475  0.7476
 7645TIP3   OH247129   3.267   3.269   9.737 -0.3614 -0.0086  0.2182
 7645TIP3    H147130   3.183   3.224   9.745 -0.3157  0.0997  1.6810
 7645TIP3    H247131   3.245   3.360   9.721 -0.5161 -0.0293  0.3147
 7646TIP3   OH247132   6.333   1.918   9.326  0.4916  0.0944  0.3193
 7646TIP3    H147133   6.350   2.008   9.298 -1.6778  0.3832 -0.2801
 7646TIP3    H247134   6.330   1.868   9.244  0.5093 -0.2823  0.5473
 7647TIP3   OH247135   3.200   4.236   1.464 -0.2299 -0.2282  0.0969
 7647TIP3    H147136   3.136   4.171   1.436  0.0305 -0.7032  0.5735
 7647TIP3    H247137   3.285   4.195   1.446 -0.0588  0.3109 -0.3360
 7648TIP3   OH247138   0.548   6.386   8.451  0.0612  0.3169  0.1800
 7648TIP3    H147139   0.484   6.316   8.465  1.7824 -1.8482 -2.0041
 7648TIP3    H247140   0.592   6.363   8.369  1.9821  3.0064  0.3200
 7649TIP3   OH247141   1.505   1.757   2.640 -0.1622 -0.1209  0.2536
 7649TIP3    H147142   1.451   1.830   2.670  1.4150  1.7168 -1.0862
 7649TIP3    H247143   1.562   1.737   2.714  1.0845  1.7860 -0.0945
 7650TIP3   OH247144   0.547   4.570   1.443 -0.3663  0.4818 -0.0878
 7650TIP3    H147145   0.472   4.628   1.459 -0.6043  0.5240 -1.3000
 7650TIP3    H247146   0.523   4.519   1.366  1.1964  1.1069 -1.0505
 7651TIP3   OH247147   5.801   6.160   0.149 -0.1132  0.2576 -0.6183
 7651TIP3    H147148   5.819   6.168   0.055  1.0964 -0.8020 -0.4971
 7651TIP3    H247149   5.723   6.214   0.162  0.7888  1.9780 -1.8681
 7652TIP3   OH247150   3.561   2.939   2.361 -0.0717  0.4414 -0.8473
 7652TIP3    H147151   3.571   2.904   2.450  1.0169 -2.0063 -1.8294
 7652TIP3    H247152   3.630   3.005   2.353  0.8427 -0.4335 -0.3542
 7653TIP3   OH247153   2.669   4.304   0.729 -0.1254  0.1101 -0.3466
 7653TIP3    H147154   2.752   4.329   0.769 -0.2908 -0.2639  0.2589
 7653TIP3    H247155   2.650   4.373   0.666  0.5448  0.3010 -0.3419
 7654TIP3   OH247156   1.383   3.492   7.748 -0.5689  0.5415 -0.0153
 7654TIP3    H147157   1.391   3.519   7.839 -1.0981 -0.6128  0.3854
 7654TIP3    H247158   1.446   3.420   7.738  0.8561  1.8442 -1.0829
 7655TIP3   OH247159   7.031   5.800   9.899  0.2182  0.0535  0.1693
 7655TIP3    H147160   7.013   5.726   9.841  0.0853 -1.6598  2.2885
 7655TIP3    H247161   6.945   5.826   9.932  0.2596  1.2269 -0.5701
 7656TIP3   OH247162   0.066   5.991   0.858  1.2472  0.2591 -0.9567
 7656TIP3    H147163   0.048   5.953   0.772 -0.5858  1.1129 -0.9899
 7656TIP3    H247164   0.121   6.068   0.839  3.9164 -1.5190 -0.9880
 7657TIP3   OH247165   2.986   0.495   9.828 -0.0760  0.4320 -0.2242
 7657TIP3    H147166   2.907   0.450   9.797 -0.8609  0.4191  1.6617
 7657TIP3    H247167   2.955   0.579   9.860  0.7753  0.6718 -0.0046
 7658TIP3   OH247168   0.316   4.008   0.736 -0.5323 -0.2414  0.3129
 7658TIP3    H147169   0.280   3.961   0.811 -0.2882 -0.7263  0.1299
 7658TIP3    H247170   0.240   4.050   0.695 -0.8605 -1.0606  0.0655
 7659TIP3   OH247171   3.522   2.494   9.131 -0.4832  0.1331 -0.0106
 7659TIP3    H147172   3.600   2.492   9.186 -0.2326  0.9118 -0.3241
 7659TIP3    H247173   3.449   2.498   9.193 -0.1872  1.4424  0.2786
 7660TIP3   OH247174   4.334   1.291   7.549  0.3996 -0.0250 -0.5189
 7660TIP3    H147175   4.246   1.321   7.570  0.7200  1.9771 -1.7233
 7660TIP3    H247176   4.391   1.346   7.604  0.9433 -0.3175 -0.7805
 7661TIP3   OH247177   5.362   1.276   8.988 -0.5998  0.3314  0.2677
 7661TIP3    H147178   5.419   1.340   9.030 -0.3616  0.6375 -0.5098
 7661TIP3    H247179   5.397   1.191   9.017 -0.7024  0.5316  1.0165
 7662TIP3   OH247180   5.179   6.827   0.140 -0.7177 -0.0953  0.4124
 7662TIP3    H147181   5.221   6.804   0.057  0.3518 -0.0858  0.9327
 7662TIP3    H247182   5.154   6.919   0.130 -1.0878 -0.2539 -0.1015
 7663TIP3   OH247183   2.723   4.721   0.144 -0.3220 -0.1088  0.0692
 7663TIP3    H147184   2.753   4.777   0.216  0.1225 -0.4901  0.1832
 7663TIP3    H247185   2.641   4.762   0.115  0.6771  1.4362 -0.7726
 7664TIP3   OH247186   1.327   1.587   9.411 -0.1580  0.0135 -0.6801
 7664TIP3    H147187   1.366   1.675   9.403  0.2311 -0.2073 -1.2857
 7664TIP3    H247188   1.401   1.527   9.403 -0.4424 -0.3731 -0.4195
 7665TIP3   OH247189   3.863   0.979   2.525 -0.0578 -0.5349 -0.4123
 7665TIP3    H147190   3.828   0.918   2.589 -1.4557 -1.4682 -1.9652
 7665TIP3    H247191   3.814   1.060   2.539  1.7618  0.2822  1.6188
 7666TIP3   OH247192   3.560   6.738   2.350  0.4805 -0.2525  0.4344
 7666TIP3    H147193   3.479   6.769   2.309  1.0749 -0.0534 -0.6334
 7666TIP3    H247194   3.593   6.671   2.289  1.4913  0.1900  0.4695
 7667TIP3   OH247195   1.479   0.952   1.669 -0.6722  0.1372  0.2663
 7667TIP3    H147196   1.531   1.006   1.730 -0.5729  0.9463 -0.5116
 7667TIP3    H247197   1.536   0.939   1.594 -0.9533 -0.4977  0.1585
 7668TIP3   OH247198   3.151   4.100   9.526 -0.0510 -0.0781 -0.3789
 7668TIP3    H147199   3.235   4.146   9.529  0.6319 -1.1572 -1.7301
 7668TIP3    H247200   3.124   4.092   9.618 -0.4025  3.2619 -0.0527
 7669TIP3   OH247201   2.170   1.788   6.770 -0.1365  0.2115 -0.3634
 7669TIP3    H147202   2.151   1.852   6.702  1.4087  0.4800 -0.5807
 7669TIP3    H247203   2.088   1.739   6.781 -0.5429  0.4436 -2.1115
 7670TIP3   OH247204   7.227   1.610   9.304  0.4389  0.3812 -0.0324
 7670TIP3    H147205   7.160   1.650   9.249  0.9555  1.2994 -0.0252
 7670TIP3    H247206   7.301   1.671   9.299 -0.1688  1.6268  3.2884
 7671TIP3   OH247207   4.397   0.391   8.363 -0.1910  1.0344 -0.1334
 7671TIP3    H147208   4.420   0.310   8.319  1.1946  1.6768 -0.6477
 7671TIP3    H247209   4.476   0.445   8.357 -1.1721  2.5357 -0.0798
 7672TIP3   OH247210   2.599   2.335   9.269  0.1910 -0.5165  0.2363
 7672TIP3    H147211   2.541   2.408   9.245  0.6626 -0.7319 -1.6378
 7672TIP3    H247212   2.656   2.372   9.337  0.3819  0.8533 -0.6289
 7673TIP3   OH247213   2.917   6.915   2.053 -0.2242  0.5160  0.5937
 7673TIP3    H147214   2.931   7.006   2.080  0.0969  1.5502 -2.6853
 7673TIP3    H247215   2.832   6.916   2.009  0.0722 -0.6250 -0.0288
 7674TIP3   OH247216   7.250   3.823   9.867 -0.3113 -0.1423  0.4289
 7674TIP3    H147217   7.159   3.794   9.867 -0.5477  0.5548  1.2501
 7674TIP3    H247218   7.300   3.746   9.841 -0.9754 -1.1154  1.9168
 7675TIP3   OH247219   1.929   5.358   1.961  0.0432 -0.1288 -0.1187
 7675TIP3    H147220   1.948   5.406   2.041  0.3581 -0.1952 -0.1543
 7675TIP3    H247221   2.010   5.361   1.911  0.5164 -1.8787  0.4752
 7676TIP3   OH247222   1.946   5.968   1.206 -0.4269 -0.2883  0.0910
 7676TIP3    H147223   1.979   6.010   1.285  1.1815 -2.1741  0.4867
 7676TIP3    H247224   1.985   6.018   1.134 -0.0026 -0.0141  0.5058
 7677TIP3   OH247225   3.362   0.516   1.558 -0.1607 -0.0893  0.0699
 7677TIP3    H147226   3.324   0.570   1.489 -1.0527 -1.3413 -0.4757
 7677TIP3    H247227   3.400   0.441   1.512  2.8730  0.9703  0.6170
 7678TIP3   OH247228   1.465   4.334   7.870 -0.4680  0.0074  0.6605
 7678TIP3    H147229   1.464   4.392   7.946 -0.0198  0.3143  0.4359
 7678TIP3    H247230   1.526   4.375   7.809 -0.8855 -0.1930  0.0991
 7679TIP3   OH247231   0.363   0.384   0.487  0.1143 -0.2677  0.7327
 7679TIP3    H147232   0.363   0.293   0.459 -1.5221  0.1790 -0.9269
 7679TIP3    H247233   0.363   0.434   0.406 -0.2268  1.2073  1.5971
 7680TIP3   OH247234   1.847   3.175   6.749  0.2509 -0.4928 -0.0669
 7680TIP3    H147235   1.825   3.086   6.722 -1.9152 -0.2981  0.8184
 7680TIP3    H247236   1.886   3.215   6.672 -2.8180 -0.9077 -1.9985
 7681TIP3   OH247237   0.312   5.939   9.067 -0.3417  0.7296 -0.3580
 7681TIP3    H147238   0.228   5.983   9.080 -1.7752 -1.5046 -1.3510
 7681TIP3    H247239   0.344   5.920   9.155 -1.1024  1.1938  0.0268
 7682TIP3   OH247240   4.293   1.271   1.358 -0.0227  0.3147 -0.0105
 7682TIP3    H147241   4.351   1.244   1.287  1.3714  2.2247  0.3150
 7682TIP3    H247242   4.298   1.200   1.422  1.4788  0.1324 -0.2982
 7683TIP3   OH247243   6.190   1.822   0.688  0.1996  0.0028  0.3185
 7683TIP3    H147244   6.195   1.757   0.618  0.2553 -0.2915  0.5906
 7683TIP3    H247245   6.105   1.864   0.676  0.7701  0.8978 -0.7353
 7684TIP3   OH247246   3.132   3.061   2.056  0.7026 -0.2715  0.1011
 7684TIP3    H147247   3.118   3.155   2.055  1.5391 -0.1367  0.3540
 7684TIP3    H247248   3.083   3.028   1.980 -2.0950 -0.0295  1.6584
 7685TIP3   OH247249   1.045   3.422   9.963 -0.0492  0.3372 -0.7049
 7685TIP3    H147250   1.061   3.509  10.002  0.8413 -0.3499  0.5402
 7685TIP3    H247251   1.125   3.403   9.913 -1.0942  1.1138 -2.7955
 7686TIP3   OH247252   2.653   0.601   7.447  0.2375  0.1806  0.6066
 7686TIP3    H147253   2.739   0.617   7.484  0.3166  1.3634 -0.0436
 7686TIP3    H247254   2.659   0.632   7.356 -0.2904 -1.5560 -0.0698
 7687TIP3   OH247255   1.634   3.102   8.214  0.4306 -0.7214 -0.6096
 7687TIP3    H147256   1.586   3.045   8.275 -1.7675  0.0858 -1.4953
 7687TIP3    H247257   1.723   3.066   8.214 -0.3092 -2.7701  0.5466
 7688TIP3   OH247258   7.015   5.407   0.096 -0.1973  0.3936 -0.1233
 7688TIP3    H147259   7.000   5.446   0.182  0.2349 -1.4304  0.8108
 7688TIP3    H247260   6.932   5.365   0.074  0.0149 -0.0326 -0.1140
 7689TIP3   OH247261   3.657   6.274   8.783 -0.1532  0.4972  0.4144
 7689TIP3    H147262   3.741   6.259   8.740 -1.3054  0.0531 -1.8435
 7689TIP3    H247263   3.667   6.235   8.870  2.5853  2.1939  0.9985
 7690TIP3   OH247264   2.469   7.177   6.383 -0.1040  0.0359  0.0001
 7690TIP3    H147265   2.435   7.119   6.452 -1.0970  0.8849  0.2584
 7690TIP3    H247266   2.523   7.120   6.329 -1.3024 -1.2193  0.0481
 7691TIP3   OH247267   7.035   0.059   0.453  0.5159 -0.2584 -0.5962
 7691TIP3    H147268   6.976  -0.010   0.484 -0.3361 -0.0488 -1.6895
 7691TIP3    H247269   7.082   0.088   0.531 -0.7039 -0.5578  0.2594
 7692TIP3   OH247270   5.419   0.606   9.641 -0.1055 -0.4399  0.8865
 7692TIP3    H147271   5.482   0.569   9.579  0.4127  2.6593 -0.5900
 7692TIP3    H247272   5.472   0.661   9.699 -1.0306 -0.7189  2.0343
 7693TIP3   OH247273   5.169   2.627   7.660 -0.3274 -0.2289  0.3553
 7693TIP3    H147274   5.247   2.682   7.659 -0.9162  0.6169 -0.1202
 7693TIP3    H247275   5.197   2.547   7.705  0.7562  0.1313  0.3589
 7694TIP3   OH247276   2.876   7.513   7.750  0.4393  0.3003 -0.1281
 7694TIP3    H147277   2.784   7.509   7.724  0.4557 -0.4829 -0.0936
 7694TIP3    H247278   2.923   7.474   7.676  0.9018  2.0942 -0.8321
 7695TIP3   OH247279   5.279   7.668   8.868 -0.0599  0.1564  0.1065
 7695TIP3    H147280   5.289   7.717   8.950  1.6726  0.3775 -0.1872
 7695TIP3    H247281   5.288   7.734   8.800 -0.1915 -0.2108 -0.2695
 7696TIP3   OH247282   3.066   6.611   7.655  0.0231 -0.3706 -0.0111
 7696TIP3    H147283   3.011   6.689   7.653 -0.2722 -0.5929 -0.6274
 7696TIP3    H247284   3.005   6.539   7.675  0.2098 -0.5178  0.0395
 7697TIP3   OH247285   1.210   4.884   2.046 -0.5066 -0.1282  0.2884
 7697TIP3    H147286   1.235   4.819   2.112  0.1941  2.5116  2.8338
 7697TIP3    H247287   1.122   4.912   2.072 -0.9281 -0.2278 -0.9637
 7698TIP3   OH247288   1.450   0.478   7.180  0.2678 -0.1888  0.5588
 7698TIP3    H147289   1.485   0.556   7.224 -0.4028  1.0365 -0.9898
 7698TIP3    H247290   1.384   0.444   7.241  1.7032 -0.5384  1.9849
 7699TIP3   OH247291   4.001   5.630   8.545  0.3640  0.1412 -0.4954
 7699TIP3    H147292   4.031   5.551   8.589  1.0802  0.2003 -0.8689
 7699TIP3    H247293   3.949   5.598   8.471 -1.2293  0.0434  0.6211
 7700TIP3   OH247294   2.215   3.972   2.138 -0.0202  0.3685 -0.0567
 7700TIP3    H147295   2.251   3.908   2.199  0.4984  1.6076  0.9944
 7700TIP3    H247296   2.122   3.951   2.133  0.2789 -0.9715 -0.4115
 7701TIP3   OH247297   5.980   6.111   1.149 -0.2051 -0.1382 -0.0962
 7701TIP3    H147298   6.015   6.076   1.067 -0.5464  0.0189 -0.3112
 7701TIP3    H247299   6.043   6.083   1.216 -0.8339 -1.7706 -0.1563
 7702TIP3   OH247300   7.665   5.382   0.408  0.5565  0.5851  0.3959
 7702TIP3    H147301   7.623   5.296   0.409  0.1879  0.7618  1.9979
 7702TIP3    H247302   7.638   5.424   0.490  1.5356  1.8437  0.1158
 7703TIP3   OH247303   2.794   0.162   8.254  0.0580  0.3874 -0.4418
 7703TIP3    H147304   2.809   0.068   8.241  1.2733  0.5277 -0.2087
 7703TIP3    H247305   2.699   0.170   8.263  0.0372 -1.0652  1.2900
 7704TIP3   OH247306   5.636   5.880   2.264  0.0793 -0.1343 -0.4506
 7704TIP3    H147307   5.584   5.857   2.186  1.2630 -0.9266 -1.0365
 7704TIP3    H247308   5.584   5.849   2.338 -0.4477 -0.5836 -1.0035
 7705TIP3   OH247309   7.403   2.380   0.170  0.7903 -0.6462  0.2003
 7705TIP3    H147310   7.427   2.437   0.243  0.1770 -0.2318  0.0796
 7705TIP3    H247311   7.318   2.344   0.195  0.1244  0.2357 -0.7281
 7706TIP3   OH247312   2.013   2.531   8.248  0.2379 -0.0305 -0.3059
 7706TIP3    H147313   2.043   2.581   8.324 -1.2367  0.5519 -0.0645
 7706TIP3    H247314   2.071   2.559   8.177  0.9327  0.2456  0.3470
 7707TIP3   OH247315   3.853   6.636   7.916  0.2249  0.1619  0.0270
 7707TIP3    H147316   3.767   6.618   7.878  0.7014 -0.7638 -0.6687
 7707TIP3    H247317   3.856   6.731   7.928 -0.7193  0.2436 -0.3547
 7708TIP3   OH247318   5.055   5.477   7.939  1.0741 -0.5314 -0.2394
 7708TIP3    H147319   4.974   5.461   7.987 -0.1160  1.0575 -1.5881
 7708TIP3    H247320   5.122   5.428   7.987 -0.5810 -1.5009  1.1934
 7709TIP3   OH247321   1.440   5.531   7.456  0.0916 -0.6154 -0.4904
 7709TIP3    H147322   1.357   5.489   7.435  0.2733 -0.6896 -1.0642
 7709TIP3    H247323   1.416   5.623   7.472 -0.4013 -1.0148  1.3993
 7710TIP3   OH247324   3.083   1.799   7.267  0.0719 -0.3074 -0.2993
 7710TIP3    H147325   3.140   1.742   7.217  0.3348 -0.2640 -0.0522
 7710TIP3    H247326   3.023   1.837   7.202  0.3833 -0.2809 -0.5709
 7711TIP3   OH247327   0.969   1.458   0.317  0.0360 -0.3741 -0.7245
 7711TIP3    H147328   0.985   1.405   0.395 -1.0087 -0.9257 -0.8620
 7711TIP3    H247329   0.990   1.400   0.244  3.0386  0.7978 -0.9001
 7712TIP3   OH247330   4.064   7.512   0.117  0.0721 -0.6333 -0.4141
 7712TIP3    H147331   4.154   7.516   0.087 -0.2366 -0.2491 -1.3440
 7712TIP3    H247332   4.016   7.471   0.044 -0.9601  1.7300 -1.1551
 7713TIP3   OH247333   7.133   4.159   7.840  0.1823  0.1187 -0.3864
 7713TIP3    H147334   7.172   4.123   7.920  1.1045  0.4074 -0.6959
 7713TIP3    H247335   7.059   4.101   7.821  0.1706 -0.1630  0.4759
 7714TIP3   OH247336   4.636   2.408   8.981 -0.8221 -0.3243  0.2357
 7714TIP3    H147337   4.574   2.415   9.053 -0.1275  0.1752  0.8022
 7714TIP3    H247338   4.719   2.439   9.018 -0.4579 -0.0413 -0.7789
 7715TIP3   OH247339   0.085   5.412   8.719  0.0736 -0.1963  0.2223
 7715TIP3    H147340   0.016   5.439   8.780 -1.7629  0.4208 -2.0075
 7715TIP3    H247341   0.128   5.339   8.763 -1.7290 -0.3435  1.8871
 7716TIP3   OH247342   1.091   1.017   9.680 -0.1123 -0.5069  0.4078
 7716TIP3    H147343   1.185   1.036   9.681 -0.5175  1.7513  1.4837
 7716TIP3    H247344   1.082   0.946   9.616  2.5399 -2.1049  1.5926
 7717TIP3   OH247345   4.216   3.372   9.234 -0.4865 -0.0432 -0.4444
 7717TIP3    H147346   4.202   3.306   9.166 -0.6581 -0.2410 -0.2167
 7717TIP3    H247347   4.274   3.437   9.193  1.1964 -1.2603 -0.0853
 7718TIP3   OH247348   5.845   3.327   1.005 -0.6740 -1.0716 -0.3369
 7718TIP3    H147349   5.804   3.247   1.038 -1.5161 -1.0050 -1.1850
 7718TIP3    H247350   5.796   3.348   0.926 -1.5456  1.1582  0.7033
 7719TIP3   OH247351   2.140   4.666   3.014  0.0914  0.0324  0.7057
 7719TIP3    H147352   2.144   4.571   3.024  0.6025 -0.0770 -0.4373
 7719TIP3    H247353   2.230   4.696   3.025  0.3534  0.1105 -1.3041
 7720TIP3   OH247354   1.504   5.251   2.876  0.0332  0.1090  0.5064
 7720TIP3    H147355   1.415   5.237   2.908 -0.3623  0.2306 -0.4983
 7720TIP3    H247356   1.556   5.184   2.920 -0.6086 -0.1474  0.8882
 7721TIP3   OH247357   1.302   4.864   0.067 -0.3448  0.0279 -0.5809
 7721TIP3    H147358   1.340   4.827  -0.013 -0.2742 -0.6614 -0.2340
 7721TIP3    H247359   1.320   4.958   0.060 -0.6151  0.0245 -1.5196
 7722TIP3   OH247360   4.761   2.792   8.372  0.0104  0.1801  0.2688
 7722TIP3    H147361   4.782   2.818   8.462 -0.6088  2.0258 -0.0745
 7722TIP3    H247362   4.728   2.703   8.379 -1.3080  0.7617  2.0647
 7723TIP3   OH247363   0.567   6.932   1.878 -0.0652 -0.0568  0.1528
 7723TIP3    H147364   0.543   6.916   1.969 -2.4847 -0.2716 -0.4559
 7723TIP3    H247365   0.515   7.009   1.853  0.8686  0.2460 -0.9547
 7724TIP3   OH247366   2.395   4.329   6.539  0.3754 -0.3039 -0.0701
 7724TIP3    H147367   2.380   4.249   6.488  0.1248  0.1728 -0.7630
 7724TIP3    H247368   2.315   4.380   6.528  0.4896 -0.0052  0.4583
 7725TIP3   OH247369   3.293   1.546   0.043 -0.3804 -0.1786  0.3615
 7725TIP3    H147370   3.256   1.631   0.023 -2.3821 -0.9280  0.6625
 7725TIP3    H247371   3.346   1.560   0.122  0.6888  1.0769 -0.5388
 7726TIP3   OH247372   0.141   6.494   1.745  0.1706  0.2928  0.0106
 7726TIP3    H147373   0.226   6.488   1.700  0.0884 -0.2680 -0.0740
 7726TIP3    H247374   0.143   6.423   1.809 -0.9194 -0.8189 -1.1422
 7727TIP3   OH247375   1.566   1.363   2.078 -0.0107  0.4778 -0.0744
 7727TIP3    H147376   1.647   1.398   2.115 -0.2999 -0.5820  1.7069
 7727TIP3    H247377   1.558   1.276   2.117 -0.8307 -0.3681 -2.0299
 7728TIP3   OH247378   3.905   4.299   1.078  0.2765 -0.0210  0.5968
 7728TIP3    H147379   3.810   4.290   1.065  0.4706 -0.6851 -0.5488
 7728TIP3    H247380   3.933   4.212   1.106  0.6562 -0.0432  0.1538
 7729TIP3   OH247381   1.706   6.132   7.584  0.0301 -0.4539  0.0657
 7729TIP3    H147382   1.675   6.046   7.610 -1.7337 -0.0927 -0.7318
 7729TIP3    H247383   1.786   6.115   7.533 -1.2036 -1.7801 -1.5381
 7730TIP3   OH247384   4.419   6.944   9.239  0.7938 -0.1203 -0.5131
 7730TIP3    H147385   4.362   6.877   9.276  1.2962 -0.3721 -0.1802
 7730TIP3    H247386   4.470   6.976   9.314  0.2943  0.9071 -0.5998
 7731TIP3   OH247387   1.338   2.873   9.648 -0.3892  0.6910  0.4380
 7731TIP3    H147388   1.300   2.824   9.575 -1.5160  2.2755 -0.0851
 7731TIP3    H247389   1.307   2.827   9.726  0.9083 -1.0784 -0.0275
 7732TIP3   OH247390   4.098   0.797   0.939  0.3937 -0.1284  0.4885
 7732TIP3    H147391   4.183   0.754   0.947 -0.1663 -1.2276  0.6818
 7732TIP3    H247392   4.048   0.743   0.878 -0.4450  0.0391  0.9998
 7733TIP3   OH247393   5.780   2.866   8.657  0.7067 -0.5351 -0.0508
 7733TIP3    H147394   5.862   2.915   8.658  1.1101 -1.0190  3.5414
 7733TIP3    H247395   5.719   2.922   8.611  2.6388  0.5265 -1.4538
 7734TIP3   OH247396   0.741   6.007   0.458  0.1820 -0.3067 -0.3203
 7734TIP3    H147397   0.649   5.981   0.461 -0.1790  0.9599  1.9754
 7734TIP3    H247398   0.769   5.987   0.369 -2.0054 -1.7088 -0.7609
 7735TIP3   OH247399   2.256   5.369   8.134 -0.0310 -0.5938  0.1954
 7735TIP3    H147400   2.288   5.390   8.221  2.8889 -0.8998 -0.6970
 7735TIP3    H247401   2.236   5.454   8.094  0.3524 -0.3399  0.5510
 7736TIP3   OH247402   3.651   2.912   7.729  0.8589  0.0997  0.1801
 7736TIP3    H147403   3.625   3.004   7.725 -1.9701 -0.6747 -1.2535
 7736TIP3    H247404   3.704   2.898   7.651  3.2133  0.9343  1.5174
 7737TIP3   OH247405   7.023   0.422   8.217 -0.3014  0.0864 -0.4122
 7737TIP3    H147406   7.051   0.506   8.180 -1.4192  0.3554 -0.6877
 7737TIP3    H247407   6.928   0.424   8.212 -0.3838 -0.8238  0.4332
 7738TIP3   OH247408   5.081   2.159   1.618  0.1830  0.7944 -0.3944
 7738TIP3    H147409   5.005   2.199   1.575  0.0996  0.0421 -0.9665
 7738TIP3    H247410   5.139   2.136   1.546 -0.0830 -0.7473 -0.1535
 7739TIP3   OH247411   6.977   3.680   9.766 -0.0216 -0.1056  0.2829
 7739TIP3    H147412   6.900   3.736   9.753  0.2468  0.1835 -0.0953
 7739TIP3    H247413   6.965   3.642   9.852  0.6809  1.9875  1.3745
 7740TIP3   OH247414   5.191   5.738   7.407  0.1333  0.3357  0.0389
 7740TIP3    H147415   5.226   5.822   7.379 -1.1551 -0.1540 -3.6183
 7740TIP3    H247416   5.109   5.759   7.451  0.6583  1.0401  0.7007
 7741TIP3   OH247417   4.650   3.038   8.913 -0.1537  0.0124 -0.1751
 7741TIP3    H147418   4.566   3.027   8.959  0.4666 -2.4008  0.5257
 7741TIP3    H247419   4.716   3.028   8.982  0.7613 -2.0985 -1.2587
 7742TIP3   OH247420   6.318   2.677   0.136 -0.0884 -0.1380 -0.5490
 7742TIP3    H147421   6.263   2.670   0.057 -2.2595  0.6016  0.8131
 7742TIP3    H247422   6.369   2.596   0.137  1.0890  0.4395 -3.4382
 7743TIP3   OH247423   6.565   0.796   1.290 -0.1260 -0.3339  0.1379
 7743TIP3    H147424   6.629   0.768   1.226 -0.8236 -1.2027 -0.2096
 7743TIP3    H247425   6.515   0.865   1.247  0.6694  0.4593  0.4699
 7744TIP3   OH247426   2.549   3.174   7.943 -0.1542  0.2068 -0.0356
 7744TIP3    H147427   2.581   3.254   7.987  0.4455  0.9593 -1.7627
 7744TIP3    H247428   2.623   3.114   7.948 -0.9996 -0.7668  2.3313
 7745TIP3   OH247429   6.851   6.093   1.055 -0.0412 -0.0325  0.0870
 7745TIP3    H147430   6.847   6.189   1.062  2.0911 -0.0018  1.6907
 7745TIP3    H247431   6.934   6.076   1.009 -0.1970 -1.1369  0.1896
 7746TIP3   OH247432   6.216   2.850   8.231  0.3860 -1.1386  0.0850
 7746TIP3    H147433   6.303   2.881   8.206 -0.0675 -0.9710 -1.3947
 7746TIP3    H247434   6.157   2.892   8.169 -1.0574  0.5683  2.4493
 7747TIP3   OH247435   3.246   3.667   8.619 -0.0191  0.1295 -0.3424
 7747TIP3    H147436   3.217   3.601   8.682 -0.6754  1.0008  0.2919
 7747TIP3    H247437   3.292   3.617   8.551 -0.3135 -0.9470  0.2301
 7748TIP3   OH247438   7.455   6.547   9.921  0.2542 -0.1031  0.0085
 7748TIP3    H147439   7.408   6.470   9.890  0.8686 -0.8222  0.8080
 7748TIP3    H247440   7.450   6.610   9.849 -0.9430 -0.5821 -0.3431
 7749TIP3   OH247441   2.327   1.537   2.103 -0.2727 -0.5504 -0.3365
 7749TIP3    H147442   2.266   1.602   2.069 -1.3988  0.3380  2.9330
 7749TIP3    H247443   2.277   1.455   2.105 -1.1227 -0.0341  1.4321
 7750TIP3   OH247444   5.758   6.591   2.159 -0.4021  0.5251 -0.2226
 7750TIP3    H147445   5.759   6.675   2.205 -0.7996  0.1453  0.5074
 7750TIP3    H247446   5.757   6.526   2.229  0.2755 -0.0986 -0.7776
 7751TIP3   OH247447   6.260   5.058   0.920  0.4339  0.3489  0.8094
 7751TIP3    H147448   6.208   4.985   0.954  1.5910 -1.1002 -0.3846
 7751TIP3    H247449   6.296   5.101   0.997  1.7475 -1.8787  1.5136
 7752TIP3   OH247450   2.765   1.831   1.339  0.1782 -0.6102  0.3308
 7752TIP3    H147451   2.835   1.824   1.404  1.4413 -2.3333 -1.1047
 7752TIP3    H247452   2.807   1.805   1.256 -1.1145  2.3978 -1.4084
 7753TIP3   OH247453   2.116   1.726   2.006 -0.4679  0.1870 -0.3695
 7753TIP3    H147454   2.051   1.714   1.937  0.6190 -0.6038 -1.2888
 7753TIP3    H247455   2.164   1.805   1.980  1.0848 -1.0714 -1.5116
 7754TIP3   OH247456   1.804   5.375   1.440 -0.0614 -0.5127 -0.5148
 7754TIP3    H147457   1.842   5.294   1.474  0.9977 -0.0801 -0.6229
 7754TIP3    H247458   1.709   5.360   1.442  0.1296 -1.9154 -0.9737
 7755TIP3   OH247459   5.514   2.622   8.621 -0.3530  0.3846  0.1221
 7755TIP3    H147460   5.545   2.642   8.709 -1.0961 -2.2127  1.0818
 7755TIP3    H247461   5.517   2.705   8.574  3.7799  1.1748  1.3797
 7756TIP3   OH247462   7.246   7.421   8.870  0.6192  0.0941 -0.1734
 7756TIP3    H147463   7.228   7.515   8.868 -2.1608 -0.3124  1.0729
 7756TIP3    H247464   7.221   7.393   8.958  2.2431 -1.7202 -0.2045
 7757TIP3   OH247465   3.278   7.067   1.212  0.2055 -0.1225 -0.4343
 7757TIP3    H147466   3.207   7.057   1.147 -0.0933 -2.5782  0.1505
 7757TIP3    H247467   3.347   7.114   1.165 -0.2459 -1.2575 -2.3550
 7758TIP3   OH247468   2.125   0.447   3.191 -0.7028 -0.3606 -0.1284
 7758TIP3    H147469   2.180   0.375   3.220 -0.4175 -0.3013 -0.5161
 7758TIP3    H247470   2.049   0.444   3.249 -0.3703 -0.5423  0.3106
 7759TIP3   OH247471   6.012   4.469   8.350  0.3785  0.3261 -0.1944
 7759TIP3    H147472   6.100   4.439   8.372  0.4213  0.5378 -0.0763
 7759TIP3    H247473   6.021   4.563   8.336  0.0964  0.4235  0.2384
 7760TIP3   OH247474   7.373   0.516   1.190  0.0005  0.1740 -0.0532
 7760TIP3    H147475   7.387   0.424   1.167 -0.2320 -0.0336  0.6159
 7760TIP3    H247476   7.393   0.520   1.283 -4.4146 -0.2163  1.1600
 7761TIP3   OH247477   6.136   1.434   1.428  0.6535  0.1311  0.2051
 7761TIP3    H147478   6.045   1.442   1.400  1.2522  0.6349 -1.8085
 7761TIP3    H247479   6.132   1.421   1.522 -1.4357  1.4420  0.3495
 7762TIP3   OH247480   2.540   0.118   7.033  0.5447  0.1636 -0.6618
 7762TIP3    H147481   2.543   0.049   7.100  0.3170 -1.2040 -2.0229
 7762TIP3    H247482   2.629   0.153   7.031  0.3608  0.8154  0.9307
 7763TIP3   OH247483   5.197   3.597   9.701 -0.0095  0.3000  0.4311
 7763TIP3    H147484   5.241   3.653   9.637  0.1772  0.4324  0.6718
 7763TIP3    H247485   5.267   3.569   9.760 -0.0485 -0.4136  0.1554
 7764TIP3   OH247486   3.316   7.241   8.570 -0.0744  0.4594 -0.2598
 7764TIP3    H147487   3.351   7.152   8.573 -1.2867 -0.0198  0.1264
 7764TIP3    H247488   3.301   7.265   8.661 -0.5466  0.7350 -0.4041
 7765TIP3   OH247489   4.287   3.631   9.005  0.0993  0.2552  0.2937
 7765TIP3    H147490   4.219   3.597   8.947 -0.3007 -1.5200  1.7115
 7765TIP3    H247491   4.369   3.601   8.966 -0.0579  0.5169 -0.2438
 7766TIP3   OH247492   6.631   5.025   1.828  0.2944  0.0772  0.0333
 7766TIP3    H147493   6.722   5.003   1.849  0.1458 -0.1800  0.4229
 7766TIP3    H247494   6.581   4.993   1.903  0.0127  1.2835  0.3847
 7767TIP3   OH247495   3.385   4.736   9.961  0.1812 -0.2583  0.1169
 7767TIP3    H147496   3.292   4.758   9.966  0.1219 -0.3290 -0.5851
 7767TIP3    H247497   3.397   4.667  10.027 -0.3069 -0.4070  0.0552
 7768TIP3   OH247498   4.808   0.262   1.002  0.6274  0.0924 -0.0989
 7768TIP3    H147499   4.750   0.234   1.073  1.5613 -0.3159  0.5317
 7768TIP3    H247500   4.750   0.295   0.934 -0.3061  0.1992  0.7349
 7769TIP3   OH247501   3.284   4.785   2.180 -0.3865  0.2281 -0.2825
 7769TIP3    H147502   3.371   4.789   2.141 -0.3056  0.4843 -0.0735
 7769TIP3    H247503   3.249   4.701   2.150 -0.8308  0.9679 -1.9864
 7770TIP3   OH247504   7.506   3.148   8.162  0.0674  0.4786  0.4040
 7770TIP3    H147505   7.495   3.239   8.192 -3.3542 -0.2507  1.9498
 7770TIP3    H247506   7.509   3.154   8.067 -1.9230  2.2141  0.3650
 7771TIP3   OH247507   1.059   7.133   1.381  0.2263 -0.0088  0.0712
 7771TIP3    H147508   1.064   7.042   1.354  0.4840  0.1400 -0.3994
 7771TIP3    H247509   1.084   7.132   1.473  1.4371 -0.2676 -0.2450
 7772TIP3   OH247510   1.722   4.334   8.534  0.4331 -0.2112  0.3509
 7772TIP3    H147511   1.681   4.300   8.455  0.9311 -0.8341  0.3516
 7772TIP3    H247512   1.799   4.381   8.502  0.1704  0.2537  0.4044
 7773TIP3   OH247513   2.631   4.316   1.338 -0.3066  0.7753  0.5503
 7773TIP3    H147514   2.583   4.326   1.420 -1.4190 -0.6166  0.1275
 7773TIP3    H247515   2.598   4.234   1.301 -0.5663  1.8390 -1.7649
 7774TIP3   OH247516   6.788   2.028   1.950 -0.1841  0.0085  0.5321
 7774TIP3    H147517   6.701   1.991   1.933 -0.3319  0.9225 -0.7651
 7774TIP3    H247518   6.772   2.097   2.015 -0.2902 -0.3697  0.9181
 7775TIP3   OH247519   4.836   7.359   2.551  0.3355  0.7591  0.1449
 7775TIP3    H147520   4.862   7.387   2.639 -1.1897  0.7311  0.6506
 7775TIP3    H247521   4.871   7.426   2.493  2.3845  0.1553  0.6279
 7776TIP3   OH247522   6.020   4.237   9.739  0.0714 -0.2285 -0.2013
 7776TIP3    H147523   6.055   4.324   9.758 -1.4911  0.2926  0.5197
 7776TIP3    H247524   6.025   4.190   9.822 -2.7780  0.5961  0.5708
 7777TIP3   OH247525   4.397   0.933   1.041  0.0341 -0.2752  0.2162
 7777TIP3    H147526   4.317   0.976   1.072  0.8890 -0.3475  2.7592
 7777TIP3    H247527   4.374   0.840   1.039 -0.2713 -0.1961 -0.2130
 7778TIP3   OH247528   2.511   4.290   8.831 -0.1240  0.0707 -0.0112
 7778TIP3    H147529   2.588   4.345   8.845 -0.6294  0.4382  1.5015
 7778TIP3    H247530   2.510   4.230   8.906 -0.7823 -0.5579 -0.5096
 7779TIP3   OH247531   4.908   3.801   7.813 -0.3257 -0.2284 -0.5279
 7779TIP3    H147532   4.880   3.879   7.766  2.5205  1.2565 -0.0117
 7779TIP3    H247533   4.898   3.730   7.749 -4.5818  0.0948 -0.4751
 7780TIP3   OH247534   0.911   1.162   9.510  0.0986  1.1221  0.4744
 7780TIP3    H147535   0.944   1.147   9.422  0.2630 -0.6936  0.8046
 7780TIP3    H247536   0.981   1.129   9.567 -0.8850  0.2707  1.2334
 7781TIP3   OH247537   1.641   5.021   0.888 -0.0671 -0.1585  0.3009
 7781TIP3    H147538   1.660   4.996   0.979  0.6457  1.4336  0.6215
 7781TIP3    H247539   1.636   4.938   0.841  1.0499 -0.9515  1.5100
 7782TIP3   OH247540   3.360   3.908   0.670 -0.0194 -0.1485  0.5382
 7782TIP3    H147541   3.367   3.821   0.631  0.1290  0.4176 -0.7280
 7782TIP3    H247542   3.267   3.918   0.691 -0.0148 -0.6597  0.8229
 7783TIP3   OH247543   5.165   5.183   2.046  0.4547  0.4956  0.3698
 7783TIP3    H147544   5.190   5.124   2.117 -1.1094 -0.1285  0.4381
 7783TIP3    H247545   5.158   5.127   1.969 -1.1443  0.5429  0.4574
 7784TIP3   OH247546   4.696   1.135   7.984 -0.0800 -0.4208 -0.2882
 7784TIP3    H147547   4.648   1.174   7.911  0.8336  0.0724 -0.6478
 7784TIP3    H247548   4.740   1.060   7.945  0.2341 -0.2829 -0.2023
 7785TIP3   OH247549   7.590   5.796   9.517  0.8328 -0.7697 -0.5957
 7785TIP3    H147550   7.674   5.841   9.515  0.0343  0.7766 -1.3346
 7785TIP3    H247551   7.526   5.866   9.531 -0.5381 -1.5267 -2.5829
 7786TIP3   OH247552   2.962   5.402   1.957 -0.2323  0.4939 -0.3880
 7786TIP3    H147553   2.872   5.369   1.962 -0.7792  2.0220  0.9107
 7786TIP3    H247554   3.014   5.338   2.006 -0.8714  0.3477  0.1117
 7787TIP3   OH247555   3.084   4.996   9.384  0.4261  0.6619 -0.0242
 7787TIP3    H147556   3.174   5.009   9.414  0.7912  0.7474 -1.1015
 7787TIP3    H247557   3.093   4.941   9.307 -0.6493 -1.1647  1.0953
 7788TIP3   OH247558   2.700   6.564   9.032 -0.2569 -0.2980 -0.1286
 7788TIP3    H147559   2.705   6.611   8.949 -0.3777  1.1517  0.6492
 7788TIP3    H247560   2.628   6.501   9.019 -0.3564 -0.0093 -1.0746
 7789TIP3   OH247561   5.873   0.305   0.102 -0.1471 -0.0852 -0.3579
 7789TIP3    H147562   5.846   0.214   0.085  1.0599 -0.4475 -0.4063
 7789TIP3    H247563   5.950   0.318   0.047  0.7097  0.4164  0.9301
 7790TIP3   OH247564   2.562   5.029   1.963  0.1133  0.3135 -0.3040
 7790TIP3    H147565   2.558   4.938   1.992  2.0027  0.0675 -0.6985
 7790TIP3    H247566   2.506   5.032   1.886 -0.9545 -0.2037  0.4276
 7791TIP3   OH247567   2.910   3.458   1.100 -0.9941  0.4301  0.0362
 7791TIP3    H147568   2.828   3.445   1.052  0.1473  0.1069 -1.9399
 7791TIP3    H247569   2.906   3.396   1.172 -1.5046 -1.2740 -1.4016
 7792TIP3   OH247570   2.509   2.391   9.654  0.0766 -0.3431 -0.0032
 7792TIP3    H147571   2.514   2.486   9.662  1.1744 -0.4708  1.2223
 7792TIP3    H247572   2.416   2.373   9.637 -0.5405  0.8311  1.8384
 7793TIP3   OH247573   3.261   7.383   0.620  0.2540 -0.7320  0.2094
 7793TIP3    H147574   3.194   7.401   0.554  0.1075 -0.3539  0.4555
 7793TIP3    H247575   3.287   7.293   0.604  2.2653  0.1634 -2.1753
 7794TIP3   OH247576   2.913   3.733   0.970 -0.4298  0.7939  0.2758
 7794TIP3    H147577   2.926   3.638   0.965  0.8417  0.9365  0.3395
 7794TIP3    H247578   2.856   3.754   0.896  0.1326  0.1026 -0.3712
 7795TIP3   OH247579   6.697   5.264   8.905  0.0664 -0.2640  0.8986
 7795TIP3    H147580   6.634   5.198   8.931  0.2696 -1.3162 -1.0647
 7795TIP3    H247581   6.782   5.228   8.930  0.0634  0.0570  1.3814
 7796TIP3   OH247582   4.978   3.117   1.811 -0.9419 -0.0324 -0.5418
 7796TIP3    H147583   4.944   3.184   1.870  2.8077  1.8869 -0.2489
 7796TIP3    H247584   4.958   3.034   1.855 -1.4265  1.1448  1.6055
 7797TIP3   OH247585   1.957   3.744   8.324  0.2619 -0.2071 -0.2802
 7797TIP3    H147586   2.017   3.766   8.254  2.7998 -1.0820  1.4702
 7797TIP3    H247587   1.935   3.828   8.365  1.3300  0.0424 -0.1887
 7798TIP3   OH247588   5.023   1.123   0.325  0.4707  0.1747  0.0736
 7798TIP3    H147589   5.068   1.057   0.273 -0.3958 -0.7378  0.4363
 7798TIP3    H247590   4.943   1.141   0.276  0.7474  1.0346 -0.0685
 7799TIP3   OH247591   2.832   0.874   8.139  0.1554 -0.0086  0.1491
 7799TIP3    H147592   2.757   0.818   8.163 -0.4469  0.2634 -0.9868
 7799TIP3    H247593   2.799   0.963   8.147  1.1524  0.2241  2.0710
 7800TIP3   OH247594   3.503   0.858   2.139  0.1602 -0.4781 -0.0762
 7800TIP3    H147595   3.517   0.807   2.220  2.0723 -0.8959 -0.6047
 7800TIP3    H247596   3.575   0.921   2.139 -0.0401 -0.2360 -1.2796
 7801TIP3   OH247597   0.213   5.196   8.839 -0.7268  0.0301 -0.2235
 7801TIP3    H147598   0.300   5.168   8.867 -0.0936  1.1265 -1.0386
 7801TIP3    H247599   0.157   5.175   8.913 -0.0124 -1.8243 -0.1469
 7802TIP3   OH247600   1.593   6.231   8.262  0.8757  0.6222 -0.6702
 7802TIP3    H147601   1.592   6.136   8.261  0.6148  0.5982  0.6810
 7802TIP3    H247602   1.671   6.255   8.312  0.0858  1.0872  0.3697
 7803TIP3   OH247603   1.529   5.479   9.570 -0.3300 -0.3056 -0.0173
 7803TIP3    H147604   1.454   5.487   9.629  1.4659  2.3014  2.1936
 7803TIP3    H247605   1.531   5.563   9.524 -0.6730 -1.6553 -2.6642
 7804TIP3   OH247606   3.563   2.393   1.528 -0.3746 -0.1623 -0.1140
 7804TIP3    H147607   3.489   2.424   1.580 -2.2803 -2.7661 -1.0404
 7804TIP3    H247608   3.598   2.319   1.577 -0.3192 -0.8184 -1.1069
 7805TIP3   OH247609   0.811   7.668   9.940 -1.1212 -0.0416  0.1888
 7805TIP3    H147610   0.890   7.625   9.908 -0.5244 -1.2821  3.0138
 7805TIP3    H247611   0.834   7.761   9.945  0.4514 -0.4644  1.5956
 7806TIP3   OH247612   3.893   6.372   8.376  0.3965 -0.1219  0.4000
 7806TIP3    H147613   3.881   6.429   8.300  0.0670  0.3218  0.7867
 7806TIP3    H247614   3.805   6.343   8.398  0.4797 -0.1559  0.6885
 7807TIP3   OH247615   0.430   4.434   8.792  0.3760 -0.2112 -0.1247
 7807TIP3    H147616   0.374   4.511   8.778 -0.5021 -0.4337  1.8473
 7807TIP3    H247617   0.461   4.443   8.882  1.5170 -1.3922 -0.3812
 7808TIP3   OH247618   7.423   0.822   0.310  0.0560 -0.1623 -0.0853
 7808TIP3    H147619   7.393   0.768   0.383 -1.0139 -0.6798 -0.8737
 7808TIP3    H247620   7.454   0.903   0.350  1.7715 -1.3610  1.1405
 7809TIP3   OH247621   3.931   5.764   0.824 -0.4879  0.0286 -0.0229
 7809TIP3    H147622   3.904   5.740   0.913  2.3138 -0.2731  0.8538
 7809TIP3    H247623   3.944   5.680   0.780 -1.5841  0.1760 -0.6554
 7810TIP3   OH247624   6.119   5.733   9.182 -0.6444 -0.5634 -0.3963
 7810TIP3    H147625   6.085   5.645   9.194 -1.8990  0.0592  0.9382
 7810TIP3    H247626   6.047   5.781   9.142  0.1008 -0.1678 -1.3082
 7811TIP3   OH247627   4.539   2.227   1.908 -0.7818  0.0439  0.6514
 7811TIP3    H147628   4.465   2.174   1.937 -1.1025  0.2021  0.1314
 7811TIP3    H247629   4.610   2.164   1.893 -0.6087 -0.0412  1.7617
 7812TIP3   OH247630   0.694   0.423   0.046  0.0882  0.3118  0.5701
 7812TIP3    H147631   0.752   0.375  -0.014  0.6634  0.3281  1.1098
 7812TIP3    H247632   0.607   0.388   0.027 -0.1466  1.9586 -1.9738
 7813TIP3   OH247633   1.150   3.757   1.116  0.1099  0.0693  0.4765
 7813TIP3    H147634   1.134   3.727   1.026  1.4664 -1.7375  0.7765
 7813TIP3    H247635   1.168   3.851   1.107 -1.3632  0.2699 -0.9109
 7814TIP3   OH247636   2.159   0.156   7.785  0.3861  0.9189  0.5627
 7814TIP3    H147637   2.193   0.243   7.768  0.4254  0.7490 -0.2649
 7814TIP3    H247638   2.090   0.144   7.720  0.4976  0.2678  0.5536
 7815TIP3   OH247639   6.568   6.981   7.450  0.1439  0.9954 -0.1137
 7815TIP3    H147640   6.607   6.904   7.492 -0.1988  0.2996 -1.0275
 7815TIP3    H247641   6.607   7.055   7.495  1.6393  0.3011 -0.2069
 7816TIP3   OH247642   0.505   1.663   9.082 -0.0030  0.6985  0.3447
 7816TIP3    H147643   0.585   1.619   9.053 -0.3527 -0.9915  1.7598
 7816TIP3    H247644   0.478   1.716   9.007  0.0554 -2.0959 -1.8222
 7817TIP3   OH247645   6.066   3.968   0.990  0.6510 -0.0669  0.5536
 7817TIP3    H147646   6.018   4.039   1.033 -0.8298 -1.5367  1.4479
 7817TIP3    H247647   6.042   3.975   0.897 -0.3954 -0.0688  0.8144
 7818TIP3   OH247648   6.048   2.058   0.342  0.1774 -0.3555  0.1663
 7818TIP3    H147649   6.084   2.052   0.254  0.0263  0.5921  0.0323
 7818TIP3    H247650   6.122   2.037   0.399 -0.1260 -2.6765 -0.1959
 7819TIP3   OH247651   0.681   5.718   8.100  0.6712 -1.0610 -0.2376
 7819TIP3    H147652   0.688   5.805   8.060  2.2126 -1.0564 -0.0026
 7819TIP3    H247653   0.588   5.710   8.122  0.6747  1.0572  0.8828
 7820TIP3   OH247654   2.407   4.686   8.546  0.7745 -0.9025  0.4247
 7820TIP3    H147655   2.324   4.699   8.499  0.1519 -3.3605  0.7115
 7820TIP3    H247656   2.447   4.773   8.548 -0.6006 -0.1182 -1.9437
 7821TIP3   OH247657   6.717   4.346   9.856  0.3312 -0.0669  0.6180
 7821TIP3    H147658   6.637   4.393   9.832 -0.4924 -0.1292  2.9963
 7821TIP3    H247659   6.732   4.286   9.783 -1.2548  0.5867 -0.3058
 7822TIP3   OH247660   0.821   7.456   8.232 -0.4094 -0.0261 -0.5923
 7822TIP3    H147661   0.877   7.481   8.306 -0.5780  0.3060 -0.5760
 7822TIP3    H247662   0.848   7.515   8.161 -1.1981  0.5893 -0.3883
 7823TIP3   OH247663   4.330   6.707   7.942 -0.0171  0.1938 -0.2164
 7823TIP3    H147664   4.236   6.691   7.940  0.1973 -1.1295 -0.8985
 7823TIP3    H247665   4.338   6.800   7.962 -1.4148 -0.2198  3.0492
 7824TIP3   OH247666   6.997   6.077   7.926  0.0351 -0.2098 -0.5346
 7824TIP3    H147667   6.911   6.083   7.885 -0.4051 -0.8133  0.2573
 7824TIP3    H247668   7.048   6.149   7.889 -0.9797  0.4782 -0.6142
 7825TIP3   OH247669   7.540   1.442   0.682 -0.4827 -0.6097  0.6069
 7825TIP3    H147670   7.516   1.433   0.774 -0.8960  0.8859  0.6678
 7825TIP3    H247671   7.456   1.438   0.636 -0.4103  0.0201  0.4173
 7826TIP3   OH247672   3.382   5.658   1.930  0.2079 -0.4235 -0.4256
 7826TIP3    H147673   3.435   5.612   1.995 -0.4197  0.6292  0.8761
 7826TIP3    H247674   3.292   5.637   1.954 -0.0269 -0.3383 -1.2092
 7827TIP3   OH247675   6.865   2.707   8.585  0.2974 -0.0734 -0.4300
 7827TIP3    H147676   6.799   2.712   8.516 -0.2221 -0.8217 -0.0116
 7827TIP3    H247677   6.841   2.628   8.635  0.2524  0.8015  1.0045
 7828TIP3   OH247678   0.696   4.180   8.926 -0.1239 -0.5736 -0.2041
 7828TIP3    H147679   0.727   4.255   8.876 -2.1644  0.1133 -0.5097
 7828TIP3    H247680   0.763   4.167   8.993  2.1119 -0.7990 -2.3146
 7829TIP3   OH247681   7.542   3.442   8.534  0.4801  0.2070  0.1152
 7829TIP3    H147682   7.495   3.484   8.606 -2.2951 -0.5037 -1.1516
 7829TIP3    H247683   7.634   3.457   8.554 -0.2378  2.0792  2.5512
 7830TIP3   OH247684   3.265   2.594   9.278 -0.4096  0.1216 -0.3703
 7830TIP3    H147685   3.258   2.671   9.221  0.0218  0.6602  0.2901
 7830TIP3    H247686   3.259   2.630   9.367 -1.3589 -0.7371 -0.0660
 7831TIP3   OH247687   6.380   0.435   9.617  0.6874 -0.1079  0.0713
 7831TIP3    H147688   6.295   0.478   9.625  0.8464  0.8472 -2.4748
 7831TIP3    H247689   6.440   0.506   9.594  1.4736 -1.2534 -1.6127
 7832TIP3   OH247690   5.934   1.225   2.491  0.0859 -0.7506 -0.0507
 7832TIP3    H147691   5.942   1.144   2.441  1.0326 -1.5514  1.3275
 7832TIP3    H247692   5.992   1.212   2.567 -0.8598  0.6375  0.9533
 7833TIP3   OH247693   0.957   2.639   9.306 -0.1752  0.0802 -0.2198
 7833TIP3    H147694   0.870   2.663   9.273 -0.0221  0.2442 -0.5058
 7833TIP3    H247695   1.013   2.712   9.280  0.2502 -0.4897 -0.9122
 7834TIP3   OH247696   4.170   6.224   7.899 -0.3168  0.3408 -0.2788
 7834TIP3    H147697   4.192   6.292   7.835 -0.7874  0.9583  0.2138
 7834TIP3    H247698   4.088   6.186   7.867 -0.5524  0.6500 -0.0423
 7835TIP3   OH247699   4.797   3.448   0.479  0.3206 -0.8195  0.4017
 7835TIP3    H147700   4.748   3.512   0.428 -0.3216 -1.5377  0.0952
 7835TIP3    H247701   4.745   3.368   0.473  1.7197 -1.7167 -0.2525
 7836TIP3   OH247702   1.865   0.404   1.257 -0.4913  0.5538  0.0281
 7836TIP3    H147703   1.927   0.434   1.324 -0.5871 -1.0921  0.9065
 7836TIP3    H247704   1.800   0.474   1.252  1.5939  2.5336 -1.2394
 7837TIP3   OH247705   5.057   0.033   8.007 -0.5453  0.2393 -0.5476
 7837TIP3    H147706   5.005  -0.035   7.964 -0.5660 -0.0948 -0.0105
 7837TIP3    H247707   5.129   0.050   7.947 -1.3533  0.8282 -1.3835
 7838TIP3   OH247708   5.039   2.747   2.195  0.2230  0.2080 -0.0179
 7838TIP3    H147709   5.010   2.669   2.242  0.7789 -0.0870 -0.1639
 7838TIP3    H247710   5.134   2.738   2.188  0.2580  0.7466 -0.3044
 7839TIP3   OH247711   6.011   3.335   8.229 -0.1179 -0.3696  0.7199
 7839TIP3    H147712   6.059   3.254   8.249 -1.1438 -1.2820 -0.3845
 7839TIP3    H247713   5.935   3.333   8.287 -0.9452 -0.9800 -0.3597
 7840TIP3   OH247714   3.989   3.736   8.294 -0.1052  1.1047 -0.1629
 7840TIP3    H147715   3.902   3.765   8.322  0.0623  1.2155  0.2396
 7840TIP3    H247716   4.020   3.679   8.364 -0.7288 -0.6902 -1.2673
 7841TIP3   OH247717   0.843   2.661   8.773  0.1630  0.1685  0.1785
 7841TIP3    H147718   0.875   2.589   8.827 -1.3527  0.8678  2.1472
 7841TIP3    H247719   0.756   2.681   8.810 -0.3436  1.6232 -1.6574
 7842TIP3   OH247720   3.802   1.959   9.843  0.3959  0.4941  0.0647
 7842TIP3    H147721   3.855   1.961   9.922  2.4215  1.5291 -1.2243
 7842TIP3    H247722   3.828   1.878   9.799  0.3066  0.5996 -0.1843
 7843TIP3   OH247723   0.625   3.498   8.703  0.3153 -0.4755 -0.0414
 7843TIP3    H147724   0.571   3.552   8.761  0.9055 -0.7928  0.8151
 7843TIP3    H247725   0.645   3.420   8.754  0.7149 -0.8327 -0.7327
 7844TIP3   OH247726   3.536   2.294   8.949  0.5094 -0.2651 -0.2371
 7844TIP3    H147727   3.451   2.258   8.922  0.6281 -2.7527  2.2352
 7844TIP3    H247728   3.516   2.358   9.017  0.5244  1.8769 -2.1238
 7845TIP3   OH247729   5.495   4.004   8.898 -0.7758 -0.2137  0.0964
 7845TIP3    H147730   5.475   4.097   8.898  1.8152  0.4488 -1.3851
 7845TIP3    H247731   5.540   3.989   8.981 -1.0387 -0.0952  0.2595
 7846TIP3   OH247732   4.151   0.205   8.744  0.2000  0.9513  0.0050
 7846TIP3    H147733   4.114   0.267   8.806 -0.2234 -1.1407  1.9592
 7846TIP3    H247734   4.119   0.119   8.772  0.9519 -0.2388 -2.4193
 7847TIP3   OH247735   5.140   0.610   9.259  0.0929  0.2605  0.2333
 7847TIP3    H147736   5.233   0.585   9.259  0.2091  0.6777  0.2741
 7847TIP3    H247737   5.128   0.654   9.344 -0.4652 -0.9403  0.7987
 7848TIP3   OH247738   2.821   0.338   2.909  0.0372  0.2974  0.2703
 7848TIP3    H147739   2.778   0.257   2.879 -0.0244  0.6075 -0.4817
 7848TIP3    H247740   2.913   0.314   2.918  0.2960  0.5422 -1.4578
 7849TIP3   OH247741   1.841   5.148   8.537 -0.5810 -0.5084  0.2015
 7849TIP3    H147742   1.826   5.225   8.591  0.1207  0.2866 -0.6908
 7849TIP3    H247743   1.756   5.105   8.532 -1.0919  0.4598  0.3399
 7850TIP3   OH247744   1.656   2.046   0.890 -0.6415  0.2006 -1.0105
 7850TIP3    H147745   1.599   1.970   0.906  0.5229 -0.5654 -0.3358
 7850TIP3    H247746   1.713   2.050   0.967  0.5868  0.5971 -1.9065
 7851TIP3   OH247747   2.615   1.247   8.678 -0.1386 -0.0292 -0.0686
 7851TIP3    H147748   2.621   1.214   8.768  1.5795  1.2978  0.3362
 7851TIP3    H247749   2.569   1.330   8.686 -1.8801 -0.8687 -0.7363
 7852TIP3   OH247750   2.539   7.329   7.540 -0.1320 -0.0360  0.2746
 7852TIP3    H147751   2.562   7.262   7.476  0.6309  1.8458 -1.5197
 7852TIP3    H247752   2.464   7.291   7.588 -1.2975 -1.2062 -2.2709
 7853TIP3   OH247753   0.467   6.559   1.932 -0.2617 -0.7257 -0.8123
 7853TIP3    H147754   0.553   6.590   1.906 -0.0910 -0.9191 -0.4863
 7853TIP3    H247755   0.434   6.511   1.856  1.0265 -2.9461 -0.0432
 7854TIP3   OH247756   1.044   3.063   8.997 -0.6713 -0.2722  0.0757
 7854TIP3    H147757   1.079   3.087   8.911 -1.4762 -1.3612 -0.5877
 7854TIP3    H247758   1.053   3.142   9.050  0.0483  0.3506 -0.9468
 7855TIP3   OH247759   2.465   5.393   2.443 -0.0082  0.0905  0.5710
 7855TIP3    H147760   2.456   5.306   2.403 -2.1086  0.6302 -0.2976
 7855TIP3    H247761   2.408   5.389   2.520 -0.4679  0.8248  0.2750
 7856TIP3   OH247762   0.186   3.611   9.103 -0.2670 -0.2671 -0.1896
 7856TIP3    H147763   0.220   3.691   9.142 -0.2945 -0.3461 -0.0010
 7856TIP3    H247764   0.200   3.622   9.009  0.1160 -0.2278 -0.1266
 7857TIP3   OH247765   1.309   0.302   7.018  0.3114 -0.9560  0.3197
 7857TIP3    H147766   1.245   0.256   7.072 -0.7767  2.4008  2.1765
 7857TIP3    H247767   1.354   0.361   7.078  2.1430 -0.1073 -1.7286
 7858TIP3   OH247768   1.483   4.455   1.988 -0.0332  0.2167  0.5215
 7858TIP3    H147769   1.518   4.377   1.943 -0.5344  1.1140 -1.5502
 7858TIP3    H247770   1.457   4.423   2.074 -0.6392 -2.0214 -0.4139
 7859TIP3   OH247771   0.110   3.618   1.137 -0.2177 -0.4139 -0.1344
 7859TIP3    H147772   0.150   3.540   1.176 -0.6113 -1.0805 -1.0354
 7859TIP3    H247773   0.167   3.690   1.165  0.2946 -1.0479  0.5046
 7860TIP3   OH247774   6.149   4.642   9.140 -0.0706  0.8243 -0.4870
 7860TIP3    H147775   6.160   4.636   9.235  1.6989  0.4790 -0.6835
 7860TIP3    H247776   6.196   4.566   9.106  0.0966  1.4478 -1.6869
 7861TIP3   OH247777   3.676   7.067   1.613 -0.1666 -0.0738  0.0336
 7861TIP3    H147778   3.710   6.978   1.619 -1.8972 -0.6593  2.9082
 7861TIP3    H247779   3.599   7.068   1.669 -0.7366  3.0314 -0.5876
 7862TIP3   OH247780   5.034   4.199   2.457 -0.1117 -0.6895 -0.1283
 7862TIP3    H147781   4.978   4.215   2.534 -0.3945  2.0051 -0.7742
 7862TIP3    H247782   5.050   4.287   2.422 -0.9541 -1.8706 -3.8478
 7863TIP3   OH247783   7.305   6.329   1.763 -0.0401 -0.0775 -0.6833
 7863TIP3    H147784   7.282   6.246   1.722 -0.1070  0.1559 -1.1237
 7863TIP3    H247785   7.352   6.305   1.843 -0.4211 -0.5397 -0.5946
 7864TIP3   OH247786   2.527   5.873   9.782  0.1749 -0.0294  0.1354
 7864TIP3    H147787   2.598   5.860   9.718 -0.7074  0.5154 -0.9807
 7864TIP3    H247788   2.466   5.931   9.739  0.4185  1.8811  2.1835
 7865TIP3   OH247789   6.473   4.505   1.866 -0.3163  0.3682 -0.2221
 7865TIP3    H147790   6.535   4.479   1.934 -1.0780 -0.1454  0.3011
 7865TIP3    H247791   6.436   4.587   1.899 -1.1171 -0.1808  0.3026
 7866TIP3   OH247792   3.310   4.138   2.677 -0.2670  0.1758 -0.3147
 7866TIP3    H147793   3.313   4.223   2.633 -0.8887  0.6227  0.4873
 7866TIP3    H247794   3.357   4.079   2.618 -0.9816  0.7761 -1.5292
 7867TIP3   OH247795   3.090   5.766   7.526 -0.2907 -0.1593 -0.0423
 7867TIP3    H147796   3.080   5.730   7.614 -0.9842 -0.2192 -0.1347
 7867TIP3    H247797   3.179   5.800   7.523  0.3500 -1.7228  0.1012
 7868TIP3   OH247798   3.667   4.299   1.381  0.3569 -0.2574 -0.1717
 7868TIP3    H147799   3.665   4.390   1.352  0.8317  1.3367  4.1164
 7868TIP3    H247800   3.760   4.274   1.376  0.4685  0.0795  0.2130
 7869TIP3   OH247801   1.682   1.942   6.956 -0.6993 -0.1859  0.3885
 7869TIP3    H147802   1.648   1.881   6.891  1.4655 -2.2940  1.0857
 7869TIP3    H247803   1.648   2.027   6.930 -0.1547 -0.9537 -3.3603
 7870TIP3   OH247804   1.404   7.346   1.914  0.4458  0.3972  0.2863
 7870TIP3    H147805   1.461   7.339   1.837 -0.3074 -1.2558 -0.1553
 7870TIP3    H247806   1.429   7.271   1.969 -2.1847 -1.2145 -0.5628
 7871TIP3   OH247807   2.291   7.663   7.467  0.2069 -0.3138  0.0012
 7871TIP3    H147808   2.338   7.585   7.437 -0.3695 -0.2825 -1.0300
 7871TIP3    H247809   2.348   7.736   7.445  0.8696 -0.4488  1.2151
 7872TIP3   OH247810   2.165   6.431   7.968  0.2509  0.0502 -0.9260
 7872TIP3    H147811   2.174   6.344   8.008 -0.1011  0.3894 -0.0724
 7872TIP3    H247812   2.151   6.414   7.875  1.5610 -0.7617 -1.0112
 7873TIP3   OH247813   4.620   1.163   1.384  0.1207 -0.2884 -0.2122
 7873TIP3    H147814   4.589   1.191   1.298 -1.0176  2.0323  0.8556
 7873TIP3    H247815   4.587   1.074   1.394 -1.4709  0.1210 -1.4035
 7874TIP3   OH247816   7.403   0.133   9.524  0.2758 -0.1674 -0.0928
 7874TIP3    H147817   7.320   0.164   9.558  0.5313 -1.2349  1.6032
 7874TIP3    H247818   7.457   0.211   9.517  0.3626  0.0832  2.4915
 7875TIP3   OH247819   6.535   2.742   8.791 -0.4709 -0.3773 -0.1521
 7875TIP3    H147820   6.479   2.751   8.868  0.4969 -1.0866  0.6766
 7875TIP3    H247821   6.618   2.710   8.827  0.2927  0.1525 -1.3943
 7876TIP3   OH247822   2.430   4.927   1.343 -0.0786  0.2690 -0.3673
 7876TIP3    H147823   2.519   4.953   1.321 -0.7410  2.3112 -0.7833
 7876TIP3    H247824   2.374   4.994   1.304 -1.7207 -0.0462  1.2947
 7877TIP3   OH247825   4.216   6.527   6.961 -0.3402  0.0270 -0.1057
 7877TIP3    H147826   4.269   6.466   6.910  3.3525  2.7045  0.1248
 7877TIP3    H247827   4.255   6.526   7.048 -1.8670  0.8152  0.6344
 7878TIP3   OH247828   3.560   5.170   6.313 -0.1862 -0.4180  0.8383
 7878TIP3    H147829   3.480   5.133   6.350 -1.1968  1.0156  0.1953
 7878TIP3    H247830   3.629   5.147   6.376 -1.0710 -1.7599  1.3570
 7879TIP3   OH247831   1.250   0.205   8.042  0.3160  0.2800  0.2237
 7879TIP3    H147832   1.329   0.173   7.999 -0.2513  1.0749 -1.4833
 7879TIP3    H247833   1.268   0.298   8.058  0.0260  0.2771  0.5885
 7880TIP3   OH247834   4.257   6.192   7.300 -0.2655  0.0475  0.2127
 7880TIP3    H147835   4.207   6.239   7.367 -2.2243 -1.0463 -0.3894
 7880TIP3    H247836   4.238   6.100   7.317  0.2382 -0.3160 -1.0667
 7881TIP3   OH247837   2.643   4.143   2.069  0.0499  0.0286  0.1674
 7881TIP3    H147838   2.620   4.236   2.060  0.3411 -0.0014 -1.0494
 7881TIP3    H247839   2.609   4.102   1.990  1.2634 -0.6281 -0.0437
 7882TIP3   OH247840   3.023   4.402   2.726  0.6061 -0.1190 -0.4685
 7882TIP3    H147841   2.966   4.339   2.770  1.0606 -0.5402 -0.4805
 7882TIP3    H247842   2.962   4.463   2.684  0.0732  1.7756  2.7015
 7883TIP3   OH247843   2.634   1.935   7.108 -0.1521  0.5251  0.2244
 7883TIP3    H147844   2.663   1.957   7.020 -2.7896  2.5618 -0.2736
 7883TIP3    H247845   2.549   1.893   7.096 -0.4022  0.5047  1.7533
 7884TIP3   OH247846   2.162   2.583   1.367  0.3690 -0.3407 -0.0348
 7884TIP3    H147847   2.095   2.552   1.306 -1.8938  1.4179  1.3999
 7884TIP3    H247848   2.123   2.572   1.454  2.4456 -0.3508  0.9829
 7885TIP3   OH247849   3.679   2.103   2.245  0.0790  0.0473 -0.2434
 7885TIP3    H147850   3.692   2.183   2.296  1.5782 -0.8175  0.8178
 7885TIP3    H247851   3.749   2.044   2.275 -0.5648 -1.4137 -1.4875
 7886TIP3   OH247852   4.342   6.257   8.381 -0.1903 -0.1923 -0.3746
 7886TIP3    H147853   4.298   6.306   8.311  1.0355 -0.8998 -1.7186
 7886TIP3    H247854   4.305   6.169   8.376 -0.3687 -0.1519  0.1487
 7887TIP3   OH247855   6.637   0.299   1.009 -0.3649 -0.2580 -0.0478
 7887TIP3    H147856   6.680   0.360   0.949 -1.4853  1.3497  0.6913
 7887TIP3    H247857   6.546   0.331   1.013 -0.6070 -1.0661  1.5273
 7888TIP3   OH247858   7.228   0.094   1.645 -0.5286 -0.5318 -0.5596
 7888TIP3    H147859   7.163   0.108   1.577 -0.6116  0.6136 -0.2579
 7888TIP3    H247860   7.284   0.171   1.641 -1.0819  0.0099  1.2631
 7889TIP3   OH247861   6.083   3.330   9.735 -0.1291  1.0280  0.3482
 7889TIP3    H147862   6.036   3.247   9.737 -0.1453  1.0272 -0.0105
 7889TIP3    H247863   6.143   3.325   9.810 -2.0816  1.8613  2.0708
 7890TIP3   OH247864   5.086   6.584   0.593 -0.7970 -0.1401 -0.0281
 7890TIP3    H147865   5.107   6.585   0.499 -1.3109 -1.1419 -0.1655
 7890TIP3    H247866   5.166   6.552   0.635 -0.9411 -0.8076 -0.2437
 7891TIP3   OH247867   4.039   5.815   9.039  0.4477 -0.5032  0.4194
 7891TIP3    H147868   4.084   5.854   9.114 -2.2961  1.0635  1.3741
 7891TIP3    H247869   3.983   5.747   9.077  0.3771 -0.9598 -0.4746
 7892TIP3   OH247870   7.156   0.442   1.681 -0.1102  0.1339  0.0005
 7892TIP3    H147871   7.246   0.420   1.657 -0.3126 -0.2511 -0.4136
 7892TIP3    H247872   7.164   0.483   1.767  0.4051 -0.3957  0.2123
 7893TIP3   OH247873   6.463   3.306   8.192  0.5159 -0.2136 -0.1902
 7893TIP3    H147874   6.546   3.270   8.224  1.6200  2.3445  0.0598
 7893TIP3    H247875   6.480   3.328   8.100 -0.1769 -0.4550 -0.3829
 7894TIP3   OH247876   6.638   5.660   7.902 -0.2635  0.0798  0.0728
 7894TIP3    H147877   6.691   5.625   7.974 -2.4753 -0.1824  1.6824
 7894TIP3    H247878   6.642   5.755   7.914  0.0198  0.0714  0.0504
 7895TIP3   OH247879   2.191   0.410   1.964 -0.0361 -0.0297 -0.1985
 7895TIP3    H147880   2.249   0.487   1.963 -0.0820  0.0806  1.7211
 7895TIP3    H247881   2.113   0.440   2.011  0.4238 -1.5251  1.6161
 7896TIP3   OH247882   1.205   6.559   8.395 -0.3907 -0.2266 -0.5192
 7896TIP3    H147883   1.143   6.617   8.439 -0.0506  0.5803 -1.0816
 7896TIP3    H247884   1.159   6.530   8.316  0.2128  1.0281 -1.3677
 7897TIP3   OH247885   6.432   0.856   8.935 -0.8773 -0.0852 -0.8171
 7897TIP3    H147886   6.437   0.888   8.845 -2.0699 -1.2210 -1.3270
 7897TIP3    H247887   6.343   0.823   8.944 -0.3128 -1.4279  0.2875
 7898TIP3   OH247888   1.647   4.929   8.158  0.5634 -0.1290  0.0027
 7898TIP3    H147889   1.642   4.974   8.242 -0.8671 -0.6299  0.2123
 7898TIP3    H247890   1.736   4.945   8.128  1.4023 -0.6881  2.0259
 7899TIP3   OH247891   1.403   0.149   0.240 -0.0003  0.0184 -0.0956
 7899TIP3    H147892   1.496   0.127   0.247 -0.2216 -1.0186 -0.2739
 7899TIP3    H247893   1.358   0.064   0.238 -1.0737  0.4985  1.4858
 7900TIP3   OH247894   0.355   1.536   0.964  0.2178  0.4690 -0.1168
 7900TIP3    H147895   0.395   1.504   0.883  0.3610  0.4088 -0.0231
 7900TIP3    H247896   0.418   1.513   1.033 -0.7655 -1.2135  0.2854
 7901TIP3   OH247897   6.480   6.980   0.160 -0.3805 -0.2479  0.3825
 7901TIP3    H147898   6.461   7.036   0.235 -0.5636 -1.3904  1.2240
 7901TIP3    H247899   6.394   6.963   0.121 -0.4500 -0.7658  0.7496
 7902TIP3   OH247900   2.530   7.276   9.377 -0.1059 -0.1937 -0.3137
 7902TIP3    H147901   2.462   7.324   9.425 -2.2156 -1.6950 -1.6263
 7902TIP3    H247902   2.609   7.286   9.431 -1.3615  1.5503  1.3397
 7903TIP3   OH247903   2.173   4.922   1.021 -0.4080  0.3330 -0.5882
 7903TIP3    H147904   2.139   5.011   1.035 -0.8731 -0.0246  0.6320
 7903TIP3    H247905   2.159   4.906   0.928 -0.8868  1.3019 -0.6977
 7904TIP3   OH247906   2.034   1.099   2.349  0.0240  0.0191  0.2761
 7904TIP3    H147907   2.074   1.159   2.286 -1.9405 -0.0504 -1.1434
 7904TIP3    H247908   2.023   1.150   2.428  0.4665  0.8207 -0.1683
 7905TIP3   OH247909   7.357   7.540   0.201  0.1853  0.1334 -0.1194
 7905TIP3    H147910   7.414   7.535   0.125  0.6013 -0.8202  0.2412
 7905TIP3    H247911   7.324   7.451   0.213 -0.1759  0.3495  0.5880
 7906TIP3   OH247912   0.002   6.702   9.243  0.0687 -0.0244 -0.0176
 7906TIP3    H147913   0.092   6.693   9.212  0.3489  0.8295  0.5010
 7906TIP3    H247914  -0.035   6.614   9.236  0.7762 -0.2793 -0.7321
 7907TIP3   OH247915   1.450   3.878   8.738 -0.3630  0.6607  0.8239
 7907TIP3    H147916   1.514   3.886   8.667 -0.6638  0.6380  0.5476
 7907TIP3    H247917   1.482   3.805   8.791 -1.3891 -0.9252 -0.6338
 7908TIP3   OH247918   0.269   0.304   7.132 -0.4022  0.6403  0.6094
 7908TIP3    H147919   0.194   0.341   7.086  0.1822 -0.3058 -1.1736
 7908TIP3    H247920   0.345   0.336   7.083  0.3032  0.5127  1.5964
 7909TIP3   OH247921   5.289   6.202   7.870 -0.1298  0.0192  0.0386
 7909TIP3    H147922   5.266   6.158   7.788 -0.0741 -0.2757  0.1801
 7909TIP3    H247923   5.323   6.133   7.926 -1.6078 -0.0694  0.8620
 7910TIP3   OH247924   4.348   3.014   7.035 -0.3945 -0.0430  0.1680
 7910TIP3    H147925   4.403   2.989   6.962 -0.1528 -0.9178  0.6352
 7910TIP3    H247926   4.367   2.950   7.103 -1.1867  0.2874  0.7237
 7911TIP3   OH247927   3.823   4.085   9.679  0.0822  0.1003  0.0595
 7911TIP3    H147928   3.877   4.022   9.630 -0.0721 -0.7971  1.0198
 7911TIP3    H247929   3.864   4.170   9.662  0.3530 -0.2584 -1.1781
 7912TIP3   OH247930   7.573   6.318   0.974  0.1763 -0.2216 -0.0516
 7912TIP3    H147931   7.624   6.342   1.052 -2.0217  1.6367  0.9646
 7912TIP3    H247932   7.577   6.396   0.918 -0.3970 -0.5613 -0.5695
 7913TIP3   OH247933   0.096   0.119   7.344  0.0388  0.1158 -0.2875
 7913TIP3    H147934   0.130   0.177   7.277 -0.3485 -1.2673 -1.7432
 7913TIP3    H247935   0.164   0.052   7.355 -0.2379 -0.1022  0.1375
 7914TIP3   OH247936   2.438   0.204   1.988  0.1777 -0.5160  0.2506
 7914TIP3    H147937   2.495   0.159   1.926 -0.4299 -1.4119  0.3253
 7914TIP3    H247938   2.376   0.253   1.933 -0.5656 -1.5635  0.1065
 7915TIP3   OH247939   0.680   5.259   1.804  0.6687 -0.4200  0.8252
 7915TIP3    H147940   0.732   5.292   1.731  0.7479 -0.3050  0.9344
 7915TIP3    H247941   0.621   5.331   1.826  0.9130 -0.3081  1.1320
 7916TIP3   OH247942   5.086   3.082   8.083  0.2269 -0.0580 -0.1484
 7916TIP3    H147943   5.108   2.997   8.121 -3.7039 -1.7555 -1.1774
 7916TIP3    H247944   4.995   3.098   8.110 -0.4943  1.8505 -3.2152
 7917TIP3   OH247945   5.344   5.602   7.933  0.0467  0.4814 -0.1587
 7917TIP3    H147946   5.388   5.540   7.875  1.1072  1.5043 -0.4960
 7917TIP3    H247947   5.251   5.591   7.914  0.1627 -1.3983  0.2237
 7918TIP3   OH247948   5.226   2.065   1.394  0.1810 -0.3668  0.0795
 7918TIP3    H147949   5.192   1.989   1.441  1.6448 -2.0057 -1.3531
 7918TIP3    H247950   5.193   2.055   1.305  1.3272  0.0458 -0.4108
 7919TIP3   OH247951   7.099   4.584   9.412 -0.4267 -0.3121 -0.4331
 7919TIP3    H147952   7.023   4.527   9.424 -0.9769 -0.1797 -2.8316
 7919TIP3    H247953   7.164   4.529   9.368 -0.5968  0.5784 -1.8735
 7920TIP3   OH247954   7.047   0.600   2.054  0.9088  0.5341 -0.6504
 7920TIP3    H147955   6.992   0.669   2.092  1.2478  0.3006  0.2979
 7920TIP3    H247956   7.023   0.599   1.961 -0.4328  0.6820 -0.3365
 7921TIP3   OH247957   2.152   0.020   1.255 -0.3581 -0.8810  0.3253
 7921TIP3    H147958   2.230   0.029   1.309  0.7826  0.0431 -1.3571
 7921TIP3    H247959   2.145  -0.074   1.238  3.1406 -0.7704 -3.0948
 7922TIP3   OH247960   6.777   2.768   0.963  0.2193 -0.7579  0.1635
 7922TIP3    H147961   6.758   2.828   0.891 -1.5834 -0.8939  0.4675
 7922TIP3    H247962   6.823   2.822   1.028  0.4206 -0.2269 -0.4152
 7923TIP3   OH247963   0.791   4.755   7.968  0.0521  0.6352 -0.1818
 7923TIP3    H147964   0.818   4.836   8.012  0.3165  0.4199  0.0585
 7923TIP3    H247965   0.801   4.688   8.035 -0.8250  0.4997 -0.1697
 7924TIP3   OH247966   2.930   6.850   7.478 -0.5022  0.3544 -0.1494
 7924TIP3    H147967   2.969   6.770   7.444 -1.6707 -0.5605  0.5875
 7924TIP3    H247968   2.984   6.921   7.443  0.0698 -0.7105 -1.4601
 7925TIP3   OH247969   4.503   0.638   8.776  0.0814  0.2118  0.2161
 7925TIP3    H147970   4.457   0.561   8.745  1.1185 -1.3263  2.2688
 7925TIP3    H247971   4.594   0.610   8.785  0.5049  1.6968  0.9114
 7926TIP3   OH247972   2.146   5.825   2.855  0.3503  0.5910 -0.2279
 7926TIP3    H147973   2.060   5.800   2.889  0.7812  0.4006  0.7675
 7926TIP3    H247974   2.184   5.743   2.824  1.4310  0.0451  2.2799
 7927TIP3   OH247975   1.686   1.219   6.959 -0.2872  0.1371  0.0047
 7927TIP3    H147976   1.715   1.127   6.957 -0.4923  0.0753 -1.2061
 7927TIP3    H247977   1.610   1.219   7.018 -0.2438 -0.4615  0.0697
 7928TIP3   OH247978   5.089   0.276   1.769  0.2394 -0.1026  0.3870
 7928TIP3    H147979   5.051   0.361   1.743 -2.4451 -0.7872  1.6557
 7928TIP3    H247980   5.043   0.253   1.850  1.1507 -2.6179  0.2831
 7929TIP3   OH247981   7.108   1.422   9.631  0.1753  0.8125 -0.5029
 7929TIP3    H147982   7.050   1.346   9.633 -0.6714  1.4505 -0.1987
 7929TIP3    H247983   7.156   1.414   9.549  1.0601 -0.7374  0.1112
 7930TIP3   OH247984   4.223   4.750   9.728  0.6738  0.1077 -0.0471
 7930TIP3    H147985   4.154   4.736   9.663 -0.2618  1.4268  0.6062
 7930TIP3    H247986   4.192   4.706   9.807  1.3503 -0.6696 -0.2064
 7931TIP3   OH247987   4.410   7.226   8.410  0.0370 -0.1106 -0.2305
 7931TIP3    H147988   4.379   7.145   8.452  0.3386 -0.6590 -1.0468
 7931TIP3    H247989   4.436   7.282   8.483 -0.7180 -0.5253  0.3694
 7932TIP3   OH247990   7.051   2.004   0.468  0.3451  0.1231 -0.2376
 7932TIP3    H147991   7.015   1.927   0.510 -0.7535  0.0136 -1.3458
 7932TIP3    H247992   7.146   1.996   0.481  0.1263 -0.4944  1.1580
 7933TIP3   OH247993   5.595   5.152   9.880  1.2138  0.4708  0.1818
 7933TIP3    H147994   5.528   5.185   9.820 -0.7223  0.7438  2.3304
 7933TIP3    H247995   5.668   5.214   9.872  0.6593  0.9615 -1.2373
 7934TIP3   OH247996   4.171   0.680   8.604 -0.2597 -0.0811 -0.0824
 7934TIP3    H147997   4.082   0.676   8.639 -0.6951 -1.6549 -1.2828
 7934TIP3    H247998   4.205   0.591   8.613  1.4745  0.6369  0.9840
 7935TIP3   OH247999   5.098   1.606   8.429 -0.5165  0.5756 -0.0016
 7935TIP3    H148000   5.171   1.592   8.489 -0.6072 -0.6781 -0.1667
 7935TIP3    H248001   5.137   1.595   8.342 -1.1514 -1.5959 -0.0721
 7936TIP3   OH248002   3.971   2.830   1.415  0.1779  0.8257  0.2764
 7936TIP3    H148003   4.016   2.791   1.490  0.8548 -0.8434 -0.9430
 7936TIP3    H248004   3.880   2.837   1.443  0.4955  0.6436  1.4067
 7937TIP3   OH248005   5.967   0.286   0.958 -0.5390  0.2830  0.6108
 7937TIP3    H148006   5.884   0.241   0.944 -0.5616 -0.1036  1.8780
 7937TIP3    H248007   5.964   0.315   1.049  1.1256 -0.6305  1.0079
 7938TIP3   OH248008   5.219   0.844   1.153 -0.1743 -0.3102  0.5446
 7938TIP3    H148009   5.180   0.795   1.225 -0.2942 -1.2894 -0.1709
 7938TIP3    H248010   5.187   0.934   1.166 -3.6911 -1.2436 -0.6279
 7939TIP3   OH248011   6.572   5.732   0.884 -0.1841  0.3820 -0.0380
 7939TIP3    H148012   6.617   5.817   0.881 -0.2487  0.4374  0.4855
 7939TIP3    H248013   6.562   5.713   0.977  1.0885 -0.8631 -0.1139
 7940TIP3   OH248014   2.553   1.190   9.257  0.0944  0.5448 -0.4920
 7940TIP3    H148015   2.595   1.141   9.328 -0.3974  0.2459 -0.4021
 7940TIP3    H248016   2.488   1.129   9.221 -0.9418  1.3231  0.0127
 7941TIP3   OH248017   5.643   1.213   9.945 -0.3340  0.0130  0.3339
 7941TIP3    H148018   5.737   1.203   9.928 -0.5468 -1.1572 -0.2744
 7941TIP3    H248019   5.629   1.308   9.947  1.2091  0.2698  2.5266
 7942TIP3   OH248020   4.896   0.961   9.359 -0.4921  0.0889 -0.6049
 7942TIP3    H148021   4.865   0.958   9.269  3.0471 -0.1516 -1.9494
 7942TIP3    H248022   4.985   0.997   9.353  0.1176 -0.5638  2.7110
 7943TIP3   OH248023   3.962   2.492   1.591  0.4397 -0.0490 -0.3492
 7943TIP3    H148024   3.886   2.527   1.545 -0.6846 -1.0100  0.6971
 7943TIP3    H248025   3.959   2.398   1.574  1.8103 -0.0062 -0.8695
 7944TIP3   OH248026   7.586   7.443   9.044 -0.1411 -0.1427  0.1578
 7944TIP3    H148027   7.553   7.401   8.965  1.1513  0.4984 -0.7540
 7944TIP3    H248028   7.592   7.536   9.022 -0.7153  0.2071  1.3539
 7945TIP3   OH248029   1.085   7.626   0.232  0.0591  0.0262  0.0472
 7945TIP3    H148030   1.172   7.588   0.247 -0.7067 -1.0149  2.4381
 7945TIP3    H248031   1.027   7.575   0.289 -1.6959  2.3062  0.4534
 7946TIP3   OH248032   4.838   5.373   2.464 -0.0843  0.0559  1.0744
 7946TIP3    H148033   4.783   5.296   2.452 -0.5382  0.6435 -0.9680
 7946TIP3    H248034   4.868   5.367   2.555  0.2593 -2.7425  0.8586
 7947TIP3   OH248035   7.195   4.455   1.675  0.3727 -0.2473 -0.2399
 7947TIP3    H148036   7.210   4.545   1.703 -0.1637 -0.1712 -0.1993
 7947TIP3    H248037   7.157   4.463   1.587  3.1877 -0.4929 -1.6048
 7948TIP3   OH248038   2.861   2.621   7.476 -0.0877 -0.4648 -0.2997
 7948TIP3    H148039   2.911   2.543   7.453 -0.0834 -0.1745 -1.3414
 7948TIP3    H248040   2.770   2.599   7.453 -0.1090 -0.2321 -0.4520
 7949TIP3   OH248041   0.583   1.479   0.791 -0.0507  0.1143 -0.0720
 7949TIP3    H148042   0.584   1.569   0.824 -0.0114  0.5746 -1.3052
 7949TIP3    H248043   0.623   1.485   0.705 -1.1564 -0.8867 -0.6707
 7950TIP3   OH248044   0.649   4.049   2.286 -0.5782 -0.0710 -0.5016
 7950TIP3    H148045   0.642   4.044   2.382  0.5619  1.5184 -0.3119
 7950TIP3    H248046   0.713   4.117   2.270 -1.1720  0.0807 -2.4342
 7951TIP3   OH248047   4.641   2.179   8.122  0.3036 -0.6188 -0.0550
 7951TIP3    H148048   4.622   2.105   8.066  0.6815  0.3464 -1.5100
 7951TIP3    H248049   4.708   2.148   8.182  0.4339 -1.4504 -0.6215
 7952TIP3   OH248050   3.077   0.713   0.123  0.3928  0.2718 -0.1839
 7952TIP3    H148051   3.119   0.752   0.046  0.4044 -1.2331 -0.9805
 7952TIP3    H248052   3.071   0.620   0.102 -0.4379 -0.0289  1.2714
 7953TIP3   OH248053   4.472   7.406   0.909 -0.0404 -0.1790  0.4496
 7953TIP3    H148054   4.567   7.393   0.904  0.0669  0.6835 -0.0484
 7953TIP3    H248055   4.435   7.327   0.870  0.4608 -0.7026  1.0155
 7954TIP3   OH248056   1.809   2.017   9.830  0.2043  0.0697  0.4108
 7954TIP3    H148057   1.879   2.068   9.870  0.5596  2.1060 -2.5373
 7954TIP3    H248058   1.850   1.975   9.754 -1.2010 -0.7850  0.0810
 7955TIP3   OH248059   0.511   0.977   8.934  0.3997 -0.7244  0.1228
 7955TIP3    H148060   0.588   0.923   8.954 -0.1592 -2.2172 -1.5302
 7955TIP3    H248061   0.457   0.922   8.878 -0.4645  1.3888 -1.2372
 7956TIP3   OH248062   5.445   2.874   0.007  0.3856  0.6288  0.2118
 7956TIP3    H148063   5.401   2.922   0.076 -0.3000  0.4766 -0.1096
 7956TIP3    H248064   5.427   2.924  -0.073  1.5284  1.0424  0.1899
 7957TIP3   OH248065   2.618   5.477   2.189 -0.5277  0.3412  0.0125
 7957TIP3    H148066   2.586   5.424   2.262  1.8396  1.3676  1.9601
 7957TIP3    H248067   2.654   5.414   2.127 -0.5273 -0.4784  0.8207
 7958TIP3   OH248068   4.754   3.720   0.955 -0.2078 -0.1659 -0.3273
 7958TIP3    H148069   4.752   3.702   0.861 -1.7124 -1.3524 -0.1210
 7958TIP3    H248070   4.779   3.636   0.995  1.0654  0.4930  0.3294
 7959TIP3   OH248071   4.275   3.194   2.560 -0.5201 -0.2896 -0.0620
 7959TIP3    H148072   4.356   3.156   2.595 -1.1526 -1.1055  0.5709
 7959TIP3    H248073   4.246   3.131   2.494 -0.6529 -0.0063 -0.2739
 7960TIP3   OH248074   0.767   1.919   0.971 -0.4212  0.2191  0.3586
 7960TIP3    H148075   0.848   1.948   0.929 -0.4130 -0.0760  0.1674
 7960TIP3    H248076   0.716   1.999   0.983 -0.3267  0.3350 -0.0089
 7961TIP3   OH248077   4.246   5.784   9.918 -0.6366  0.0235 -0.5947
 7961TIP3    H148078   4.262   5.703   9.966 -1.7490 -1.0947 -2.0338
 7961TIP3    H248079   4.330   5.804   9.877 -0.3408 -0.3714 -0.1978
 7962TIP3   OH248080   4.654   1.125   8.995 -0.3893 -0.2709  0.0149
 7962TIP3    H148081   4.689   1.199   8.945  1.4166 -1.5273 -0.7101
 7962TIP3    H248082   4.568   1.154   9.024  0.1350  1.9908 -0.4845
 7963TIP3   OH248083   6.956   6.815   8.080 -0.2707  0.2244 -0.1334
 7963TIP3    H148084   6.951   6.882   8.011 -0.7118  0.3680  0.0322
 7963TIP3    H248085   6.903   6.743   8.047  0.3604 -0.1285 -0.3975
 7964TIP3   OH248086   4.674   7.204   7.136  0.3949  0.8612 -0.4834
 7964TIP3    H148087   4.667   7.113   7.164 -0.6686  1.0714 -0.0155
 7964TIP3    H248088   4.764   7.230   7.158 -0.0527  0.6735  1.7121
 7965TIP3   OH248089   5.082   6.639   1.822 -0.3912 -0.0962  0.3322
 7965TIP3    H148090   5.029   6.697   1.877 -4.6459  0.8187 -4.1107
 7965TIP3    H248091   5.048   6.552   1.839 -0.8758  0.0313  0.0328
 7966TIP3   OH248092   0.802   6.411   9.395 -0.2446 -0.2077  0.0211
 7966TIP3    H148093   0.862   6.412   9.469  0.0796 -1.7688 -0.1669
 7966TIP3    H248094   0.735   6.346   9.420 -0.3728 -0.4226 -0.8498
 7967TIP3   OH248095   4.063   7.086   1.120  0.6959  0.1420  0.3508
 7967TIP3    H148096   4.067   7.095   1.025 -2.0771  3.1377  0.3680
 7967TIP3    H248097   3.983   7.034   1.136  1.9731 -1.7222  1.1101
 7968TIP3   OH248098   3.724   2.717   0.777 -0.5555  0.2439  0.8080
 7968TIP3    H148099   3.725   2.626   0.747 -0.6387 -0.0708  1.7367
 7968TIP3    H248100   3.793   2.721   0.843 -1.0743  0.6514  1.3360
 7969TIP3   OH248101   3.355   7.170   8.170  0.4591  0.1590 -0.5305
 7969TIP3    H148102   3.376   7.240   8.231 -0.4391 -0.4531  0.5169
 7969TIP3    H248103   3.436   7.154   8.123  1.6587 -0.4314  1.6155
 7970TIP3   OH248104   5.216   4.189   0.471  0.2385 -0.0132  0.4201
 7970TIP3    H148105   5.283   4.247   0.506  1.3788 -0.8922 -0.2503
 7970TIP3    H248106   5.231   4.106   0.516  0.1783 -0.4747 -0.3930
 7971TIP3   OH248107   2.832   0.047   1.143 -0.2903 -0.4271  0.2609
 7971TIP3    H148108   2.882   0.127   1.160 -1.0242  0.3536 -1.0948
 7971TIP3    H248109   2.897  -0.015   1.109  0.5781 -0.9737  2.7242
 7972TIP3   OH248110   4.062   0.830   7.864  0.2108 -1.3128  0.0457
 7972TIP3    H148111   4.138   0.797   7.816  0.9953 -1.4620  1.3198
 7972TIP3    H248112   4.088   0.823   7.956  0.4490  2.8912  0.4708
 7973TIP3   OH248113   6.318   7.244   1.447 -0.3696 -0.4225  0.3275
 7973TIP3    H148114   6.393   7.287   1.488  0.0209  0.4602 -1.2106
 7973TIP3    H248115   6.341   7.151   1.446  0.8019 -0.1433 -0.2624
 7974TIP3   OH248116   0.062   3.703   0.861 -0.0565 -0.3064  0.5933
 7974TIP3    H148117   0.104   3.788   0.874 -0.8515 -0.0361  1.4914
 7974TIP3    H248118   0.044   3.671   0.950  1.8763 -2.2822  0.3672
 7975TIP3   OH248119   2.331   4.791   0.228  0.4772  0.6881 -0.1216
 7975TIP3    H148120   2.269   4.863   0.222  0.7940  0.8704 -1.7604
 7975TIP3    H248121   2.278   4.713   0.211  0.5569  0.7808 -0.8319
 7976TIP3   OH248122   1.976   2.439   0.231 -0.2004  0.4053  0.2085
 7976TIP3    H148123   1.961   2.518   0.282 -2.0415  0.2727 -0.0663
 7976TIP3    H248124   2.068   2.445   0.203  0.0861  1.7339  1.3500
 7977TIP3   OH248125   6.403   5.459   0.437  0.1049  0.4450 -0.3680
 7977TIP3    H148126   6.404   5.440   0.530  2.3878  0.3187 -0.3588
 7977TIP3    H248127   6.479   5.413   0.402 -0.8267  0.2872 -2.3580
 7978TIP3   OH248128   7.431   6.715   0.784 -0.0252 -0.0190  0.1752
 7978TIP3    H148129   7.351   6.676   0.750 -0.3533  0.4449  0.4056
 7978TIP3    H248130   7.499   6.651   0.765 -0.3478 -0.1384 -0.5857
 7979TIP3   OH248131   1.445   5.878   9.990 -0.2492 -0.1468 -0.9039
 7979TIP3    H148132   1.463   5.968  10.018  1.7923 -1.0224  0.9306
 7979TIP3    H248133   1.522   5.853   9.939  0.7442 -1.7677  1.2092
 7980TIP3   OH248134   6.091   1.455   9.450 -0.2279  0.1868 -0.2392
 7980TIP3    H148135   6.043   1.538   9.457  1.9708  1.5310 -0.3043
 7980TIP3    H248136   6.140   1.463   9.368  1.2511 -0.4903  0.5617
 7981TIP3   OH248137   3.692   7.332   1.380 -0.2912  0.0382  0.5953
 7981TIP3    H148138   3.708   7.243   1.414  0.1158  0.2864  1.0849
 7981TIP3    H248139   3.696   7.322   1.285  0.6483 -0.3260  0.6510
 7982TIP3   OH248140   7.558   1.124   0.686  0.0387  0.8441 -0.4313
 7982TIP3    H148141   7.497   1.179   0.735 -0.9475  0.1710 -0.8526
 7982TIP3    H248142   7.637   1.177   0.677 -0.9310  2.2597 -0.9706
 7983TIP3   OH248143   7.292   6.209   9.336 -0.3081 -0.3176 -0.1111
 7983TIP3    H148144   7.214   6.200   9.282  0.8297  0.7098 -2.0752
 7983TIP3    H248145   7.266   6.266   9.408 -2.0505 -2.2519  0.8603
 7984TIP3   OH248146   1.492   4.241   2.174  0.4714  0.3047  0.0297
 7984TIP3    H148147   1.480   4.156   2.217  1.2814 -0.4162 -1.1126
 7984TIP3    H248148   1.561   4.225   2.109 -1.5463  0.9680 -2.4314
 7985TIP3   OH248149   7.636   6.368   0.436 -0.0505 -0.5713  0.1846
 7985TIP3    H148150   7.598   6.405   0.357  1.1248 -0.3229 -0.2904
 7985TIP3    H248151   7.591   6.285   0.448 -3.5600  1.3593  1.9000
 7986TIP3   OH248152   6.411   6.711   1.750 -0.1444 -0.0544 -0.2978
 7986TIP3    H148153   6.378   6.798   1.732  2.0434  0.7889 -0.5757
 7986TIP3    H248154   6.421   6.670   1.664  0.8025  0.2350 -0.3420
 7987TIP3   OH248155   0.249   3.481   0.028  0.2173 -0.3408  0.1418
 7987TIP3    H148156   0.311   3.528  -0.029 -1.3672 -1.4164 -2.6765
 7987TIP3    H248157   0.218   3.548   0.089  1.8745  0.9406 -0.3360
 7988TIP3   OH248158   0.905   4.686   1.468 -0.1528 -0.0939 -0.2029
 7988TIP3    H148159   0.895   4.681   1.563  1.6745  0.4227  0.0569
 7988TIP3    H248160   0.891   4.778   1.447 -0.6286 -0.2212 -0.4371
 7989TIP3   OH248161   5.891   3.417   9.963 -0.1337  0.3315  0.4057
 7989TIP3    H148162   5.889   3.331  10.005 -0.1383  1.3034  2.5424
 7989TIP3    H248163   5.970   3.416   9.909 -0.2040 -1.0424  0.2980
 7990TIP3   OH248164   4.804   3.288   1.943 -0.3541  0.0330 -0.3051
 7990TIP3    H148165   4.771   3.316   1.857 -1.4468  2.4611  0.8049
 7990TIP3    H248166   4.736   3.229   1.976 -0.1581 -0.5380 -0.8946
 7991TIP3   OH248167   2.000   0.115   3.157 -0.2372 -0.5606 -0.3105
 7991TIP3    H148168   2.067   0.162   3.206 -0.5106  0.3645 -0.8070
 7991TIP3    H248169   1.917   0.149   3.192 -0.4372  0.3303 -1.6098
 7992TIP3   OH248170   2.991   6.549   8.050 -0.2534 -0.0431 -0.1316
 7992TIP3    H148171   2.914   6.598   8.078  0.7251  2.2348 -1.2133
 7992TIP3    H248172   2.966   6.512   7.966 -0.4650 -0.1077 -0.0419
 7993TIP3   OH248173   1.109   3.479   7.963  0.1904 -0.6139  0.1939
 7993TIP3    H148174   1.110   3.449   7.872  0.6952 -0.5897  0.1877
 7993TIP3    H248175   1.113   3.574   7.957 -3.0099 -0.3890  0.1739
 7994TIP3   OH248176   2.820   6.872   8.257  0.2765 -0.0141 -0.2795
 7994TIP3    H148177   2.760   6.946   8.258  1.3648  0.9035 -0.3787
 7994TIP3    H248178   2.874   6.883   8.336 -0.9253 -1.9207  0.9047
 7995TIP3   OH248179   0.825   7.192   8.770  0.2142  0.2075 -0.2886
 7995TIP3    H148180   0.762   7.168   8.703  0.4593  0.4893 -0.6231
 7995TIP3    H248181   0.781   7.262   8.820 -0.2376 -0.4651  0.2779
 7996TIP3   OH248182   4.461   3.668   0.660 -0.6084 -0.0038  0.1130
 7996TIP3    H148183   4.398   3.610   0.617  0.6481 -1.0285 -0.4525
 7996TIP3    H248184   4.526   3.608   0.698  1.0501  1.0039 -0.9900
 7997TIP3   OH248185   4.911   0.426   0.302  0.1491  0.5108  0.8329
 7997TIP3    H148186   4.890   0.422   0.209 -1.4058 -0.1814  1.1819
 7997TIP3    H248187   4.884   0.513   0.330 -0.4234  0.3290  0.8572
 7998TIP3   OH248188   3.764   7.123   1.883  0.4717 -0.5638 -0.1364
 7998TIP3    H148189   3.727   7.137   1.796 -0.6670  0.7704  0.5256
 7998TIP3    H248190   3.826   7.195   1.894  0.3389 -0.5164  0.2993
 7999TIP3   OH248191   7.394   0.585   0.896  0.4089 -0.3213  0.4491
 7999TIP3    H148192   7.466   0.645   0.877 -0.4762  0.7136  0.2444
 7999TIP3    H248193   7.417   0.546   0.980  1.2013  0.0083  0.3914
 8000TIP3   OH248194   0.274   1.786   1.627  0.2576 -0.1802  0.0932
 8000TIP3    H148195   0.300   1.851   1.692  1.1170 -2.1101  1.7925
 8000TIP3    H248196   0.334   1.799   1.554  1.1650  0.2198  0.8855
 8001TIP3   OH248197   1.029   0.950   8.326 -0.7000  0.5793  0.3912
 8001TIP3    H148198   1.094   0.970   8.393 -0.5694 -1.1808  0.8461
 8001TIP3    H248199   0.954   0.916   8.375 -1.5293  1.5035 -0.2112
 8002TIP3   OH248200   7.021   6.842   1.815  0.5373  0.3023 -0.0503
 8002TIP3    H148201   6.926   6.843   1.824  0.5305 -0.0088 -0.0887
 8002TIP3    H248202   7.036   6.806   1.728  0.6887  0.4362 -0.0798
 8003TIP3   OH248203   2.680   4.507   8.846 -0.1641  0.8754  0.6505
 8003TIP3    H148204   2.608   4.567   8.824 -0.8187  0.3494  1.3104
 8003TIP3    H248205   2.722   4.548   8.922 -1.4407 -0.1186  1.9569
 8004TIP3   OH248206   3.253   5.422   0.202 -0.1079 -0.4993  0.0719
 8004TIP3    H148207   3.172   5.399   0.156 -0.0601 -1.5567  0.4807
 8004TIP3    H248208   3.246   5.516   0.217 -0.4682 -0.2595 -1.4130
 8005TIP3   OH248209   0.582   6.398   2.550 -0.0270  0.2888  0.2673
 8005TIP3    H148210   0.614   6.325   2.603 -0.9583 -0.7049 -0.4935
 8005TIP3    H248211   0.642   6.400   2.475  0.4130  0.7556  0.6286
 8006TIP3   OH248212   3.564   5.660   9.912  0.1299  0.1585  0.2224
 8006TIP3    H148213   3.474   5.629   9.906  0.8103 -1.9380 -0.1971
 8006TIP3    H248214   3.565   5.719   9.987 -1.8441  1.2731 -0.5678
 8007TIP3   OH248215   5.824   0.553   0.832  0.3001  0.1708 -0.2278
 8007TIP3    H148216   5.881   0.486   0.867  0.0804 -1.3514 -2.5590
 8007TIP3    H248217   5.857   0.635   0.869  3.4068 -0.7287 -0.7186
 8008TIP3   OH248218   4.234   6.505   8.224  0.1631 -0.2747  0.3390
 8008TIP3    H148219   4.206   6.586   8.181  0.7520  0.9637  2.1513
 8008TIP3    H248220   4.156   6.451   8.228 -0.3036  0.2980 -0.6896
 8009TIP3   OH248221   3.334   4.065   2.145 -0.1182  0.5742 -0.3073
 8009TIP3    H148222   3.377   4.094   2.065  1.8934 -0.3646  0.3445
 8009TIP3    H248223   3.287   3.985   2.121  1.4491 -0.3698 -0.3605
 8010TIP3   OH248224   3.204   5.053   0.797  0.2275  0.0071  0.0401
 8010TIP3    H148225   3.198   4.980   0.859  0.5345 -1.2885 -1.3708
 8010TIP3    H248226   3.186   5.131   0.849  0.0519 -1.0571  1.6496
 8011TIP3   OH248227   7.397   1.153   8.416 -0.4313  0.2706 -0.3018
 8011TIP3    H148228   7.483   1.190   8.435 -1.4743  1.9293  1.6815
 8011TIP3    H248229   7.395   1.142   8.321  0.6093  3.9003 -0.9019
 8012TIP3   OH248230   6.616   3.081   1.341  0.3503 -0.5373  0.3406
 8012TIP3    H148231   6.655   2.994   1.338  0.2214 -0.6178  0.8718
 8012TIP3    H248232   6.691   3.141   1.346  0.4242 -0.6467  0.5382
 8013TIP3   OH248233   3.165   3.748   9.549 -0.5788 -0.0074 -0.4606
 8013TIP3    H148234   3.238   3.797   9.588 -1.3992 -0.4485  1.7440
 8013TIP3    H248235   3.134   3.805   9.478  0.8284  0.9426 -0.3665
 8014TIP3   OH248236   3.726   6.032   2.329 -0.1837 -0.4353 -0.1379
 8014TIP3    H148237   3.657   5.983   2.284  0.6168 -0.1196 -1.8000
 8014TIP3    H248238   3.719   6.005   2.420 -3.4518  0.7027  0.0831
 8015TIP3   OH248239   0.106   3.296   0.332  0.5994  0.0626  0.1835
 8015TIP3    H148240   0.117   3.379   0.378  0.8698 -1.0312  2.1781
 8015TIP3    H248241   0.062   3.239   0.395  0.2432 -1.2707 -1.2094
 8016TIP3   OH248242   1.597   0.016   8.392  0.1936 -0.5199 -0.2570
 8016TIP3    H148243   1.599   0.079   8.463 -0.3792  1.1842 -1.6677
 8016TIP3    H248244   1.594   0.070   8.312  2.3080 -2.2956 -1.6624
 8017TIP3   OH248245   6.233   7.260   0.910  0.2470 -0.5861 -0.1181
 8017TIP3    H148246   6.176   7.209   0.967 -0.6719 -0.7255 -1.1118
 8017TIP3    H248247   6.172   7.310   0.855  1.0689 -0.9602 -1.4056
 8018TIP3   OH248248   3.179   4.238   0.986 -0.4374  0.4233  0.4409
 8018TIP3    H148249   3.241   4.276   1.048 -0.2618 -1.3354  1.3893
 8018TIP3    H248250   3.176   4.145   1.008 -1.0699 -0.0955 -1.5986
 8019TIP3   OH248251   4.029   7.364   0.454  0.1170 -0.2419 -0.0592
 8019TIP3    H148252   4.013   7.411   0.372 -1.1953 -0.1777  0.2063
 8019TIP3    H248253   3.944   7.365   0.498  0.6289 -0.9283  0.9624
 8020TIP3   OH248254   5.009   4.780   0.031  0.5874  0.0649 -0.3144
 8020TIP3    H148255   4.934   4.724   0.010  0.6717  0.5148 -1.9694
 8020TIP3    H248256   5.067   4.773  -0.045  1.4791  0.9473  0.2498
 8021TIP3   OH248257   1.604   6.401   7.557 -0.5768 -0.1341  0.0171
 8021TIP3    H148258   1.521   6.399   7.604 -0.4532 -2.2909  0.2476
 8021TIP3    H248259   1.632   6.309   7.554  0.7530  0.2815 -1.9157
 8022TIP3   OH248260   5.754   3.347   1.397 -0.0559 -0.0579 -0.1905
 8022TIP3    H148261   5.797   3.416   1.346  0.6887  0.3543  0.9644
 8022TIP3    H248262   5.691   3.309   1.336  0.5437  0.6660 -1.3049
 8023TIP3   OH248263   0.000   2.122   8.752 -0.3493  0.8543  0.1384
 8023TIP3    H148264  -0.083   2.074   8.748  0.6770 -0.9006 -2.3935
 8023TIP3    H248265  -0.019   2.206   8.712 -0.9444  0.5409 -0.2477
 8024TIP3   OH248266   7.515   3.556   8.005  0.3851  0.9698 -0.3070
 8024TIP3    H148267   7.562   3.639   8.015  0.1035  0.9653  1.2989
 8024TIP3    H248268   7.556   3.498   8.070 -0.1301  0.1692 -0.6849
 8025TIP3   OH248269   2.457   6.928   1.991 -0.1740  0.6354  0.4358
 8025TIP3    H148270   2.376   6.970   1.962  0.2442  1.4428  0.4065
 8025TIP3    H248271   2.428   6.846   2.031 -0.7917 -0.3815 -1.9810
 8026TIP3   OH248272   2.675   6.986   1.613  0.1163 -0.6105 -0.3390
 8026TIP3    H148273   2.605   7.049   1.600 -0.5664 -0.9665  1.3482
 8026TIP3    H248274   2.631   6.901   1.612  0.5830 -0.8694  0.2069
 8027TIP3   OH248275   5.446   1.682   0.336  0.1054 -0.2447  0.3126
 8027TIP3    H148276   5.449   1.777   0.349  3.6107 -0.2809  0.8324
 8027TIP3    H248277   5.492   1.646   0.411 -0.9410 -2.3938 -0.0024
 8028TIP3   OH248278   6.019   4.746   7.796 -0.3660  0.3614 -0.0296
 8028TIP3    H148279   5.988   4.812   7.734 -2.0243 -1.1554 -0.9188
 8028TIP3    H248280   6.111   4.734   7.772 -0.3930  1.3794 -0.7411
 8029TIP3   OH248281   6.830   0.277   2.543 -0.4879  0.3514  0.0796
 8029TIP3    H148282   6.923   0.301   2.545 -0.4794  0.3602 -0.3705
 8029TIP3    H248283   6.815   0.236   2.628  0.1881 -0.5885 -0.2365
 8030TIP3   OH248284   2.215   7.627   9.587 -0.3567  0.3780 -0.1904
 8030TIP3    H148285   2.241   7.691   9.522 -0.4073  0.7010  0.1051
 8030TIP3    H248286   2.124   7.649   9.607 -0.2504  0.4725  0.2092
 8031TIP3   OH248287   0.934   0.612   1.451  0.5092  0.2168  0.4955
 8031TIP3    H148288   0.922   0.592   1.544  1.9370  0.3944  0.7510
 8031TIP3    H248289   0.849   0.643   1.422  0.4290  1.6895  2.1390
 8032TIP3   OH248290   5.761   6.402   1.619 -0.2873  0.2812  0.1650
 8032TIP3    H148291   5.696   6.438   1.679 -1.7210 -0.2781 -1.0006
 8032TIP3    H248292   5.798   6.479   1.576 -0.3249  0.5913  0.6760
 8033TIP3   OH248293   0.291   4.952   8.348 -0.1582 -0.1767 -0.2199
 8033TIP3    H148294   0.302   5.006   8.426  3.0290  1.1625 -1.4422
 8033TIP3    H248295   0.214   4.897   8.367 -1.5046  2.3799  2.4507
 8034TIP3   OH248296   5.869   3.674   8.902  0.5757  0.3904 -0.0138
 8034TIP3    H148297   5.939   3.716   8.952 -0.1505  1.2092  0.3398
 8034TIP3    H248298   5.857   3.589   8.944  0.9185  0.5137  0.3399
 8035TIP3   OH248299   1.595   6.940   1.008  0.7017  0.6681 -0.2111
 8035TIP3    H148300   1.530   7.009   1.017 -0.0053  0.1329 -1.0367
 8035TIP3    H248301   1.665   6.964   1.069  0.0412  1.6060  0.1929
 8036TIP3   OH248302   1.772   4.304   0.944  0.2079  0.2442  0.2144
 8036TIP3    H148303   1.772   4.321   0.850  1.8617 -0.0243  0.1334
 8036TIP3    H248304   1.709   4.233   0.955  0.4637 -0.1579 -0.7909
 8037TIP3   OH248305   7.150   3.367   8.884  0.1314 -0.6156 -0.4786
 8037TIP3    H148306   7.111   3.354   8.970  0.9505  1.0420  0.2026
 8037TIP3    H248307   7.123   3.291   8.833  0.0705 -1.9177  1.3961
 8038TIP3   OH248308   4.306   4.321   9.615 -0.1305  0.2342 -0.2909
 8038TIP3    H148309   4.342   4.396   9.569 -0.7678  1.1240  0.6290
 8038TIP3    H248310   4.231   4.294   9.562 -0.2483  0.6078 -0.3160
 8039TIP3   OH248311   2.643   3.727   9.755 -0.2878 -0.1408 -0.5226
 8039TIP3    H148312   2.734   3.753   9.740 -0.3639  0.0185 -0.7082
 8039TIP3    H248313   2.613   3.784   9.827  0.1341 -1.0341  0.3817
 8040TIP3   OH248314   2.002   3.167   0.385  0.2194  0.3394  0.1581
 8040TIP3    H148315   1.929   3.105   0.383 -0.1249  0.7393 -1.9600
 8040TIP3    H248316   2.071   3.125   0.333  0.8725  0.7217  0.6910
 8041TIP3   OH248317   6.668   4.772   8.832 -0.0486  0.2444 -0.2957
 8041TIP3    H148318   6.703   4.846   8.881 -0.7620 -0.3504  1.1720
 8041TIP3    H248319   6.717   4.696   8.864 -0.8819 -0.2266 -0.0940
 8042TIP3   OH248320   2.767   3.020   7.917 -0.0884  0.2209  0.0943
 8042TIP3    H148321   2.853   3.063   7.921 -0.1707  0.3676  0.3372
 8042TIP3    H248322   2.781   2.942   7.864 -0.3110  1.4227 -1.8222
 8043TIP3   OH248323   4.082   0.615   1.600 -0.1650  0.0889 -0.0586
 8043TIP3    H148324   4.126   0.686   1.554  2.0951 -1.2596 -0.1760
 8043TIP3    H248325   4.081   0.642   1.692 -0.8006  0.9419 -0.3093
 8044TIP3   OH248326   6.163   6.177   7.684 -0.0501 -0.4615 -0.4055
 8044TIP3    H148327   6.073   6.148   7.672 -0.7599  0.3797  2.2818
 8044TIP3    H248328   6.159   6.273   7.682  0.2235 -0.3025  2.4331
 8045TIP3   OH248329   3.313   4.600   7.415 -0.6708  0.2345  0.1062
 8045TIP3    H148330   3.391   4.551   7.390 -1.0997 -0.4833  0.1743
 8045TIP3    H248331   3.283   4.640   7.334 -0.4820  0.1604 -0.0012
 8046TIP3   OH248332   2.492   0.408   2.455 -0.0202 -0.1897 -0.3745
 8046TIP3    H148333   2.526   0.370   2.374  1.3637  2.3727 -1.1329
 8046TIP3    H248334   2.528   0.353   2.525 -0.8530 -2.1655 -1.4227
 8047TIP3   OH248335   2.106   6.856   7.890  0.2178  0.1635  0.0580
 8047TIP3    H148336   2.072   6.797   7.957 -0.8426 -0.3082 -0.8584
 8047TIP3    H248337   2.182   6.811   7.854  3.0389  1.9459  3.2555
 8048TIP3   OH248338   5.580   3.445   9.160 -0.1585 -0.0605  0.3373
 8048TIP3    H148339   5.494   3.439   9.201 -1.0719  1.2750 -1.2332
 8048TIP3    H248340   5.616   3.528   9.192 -1.1055  1.2668 -1.7779
 8049TIP3   OH248341   7.542   2.487   9.202  0.0016  0.6265  0.4893
 8049TIP3    H148342   7.591   2.566   9.228  0.9528 -0.1467  1.1121
 8049TIP3    H248343   7.530   2.439   9.283  0.5617 -0.4866 -0.0629
 8050TIP3   OH248344   2.399   7.119   8.027 -0.4490 -0.1867 -0.2236
 8050TIP3    H148345   2.384   7.173   7.949 -0.0265  1.9230  1.0781
 8050TIP3    H248346   2.494   7.106   8.029 -0.2127  1.4184  0.9158
 8051TIP3   OH248347   0.311   6.825   8.706 -0.0977 -0.2404 -0.1766
 8051TIP3    H148348   0.370   6.760   8.667  1.9219  1.8932 -0.9211
 8051TIP3    H248349   0.261   6.860   8.632  0.3636  0.5171 -0.1434
 8052TIP3   OH248350   3.075   0.506   7.052  0.1056 -0.5170 -0.3058
 8052TIP3    H148351   3.038   0.561   7.121 -0.4926  0.2851 -1.2459
 8052TIP3    H248352   3.018   0.429   7.050 -0.2808 -0.2311 -0.3653
 8053TIP3   OH248353   3.309   5.695   1.355  0.6077 -0.3546 -0.1788
 8053TIP3    H148354   3.369   5.683   1.282 -0.6432 -0.1688 -1.2708
 8053TIP3    H248355   3.345   5.640   1.425  2.0895 -0.1553 -0.7524
 8054TIP3   OH248356   6.107   6.070   9.311 -0.0337 -0.9755 -0.2269
 8054TIP3    H148357   6.121   6.083   9.218  0.6492 -0.7172 -0.0933
 8054TIP3    H248358   6.167   6.132   9.353 -0.2546 -1.1698  0.3821
 8055TIP3   OH248359   7.644   7.345   1.543  0.5309  0.0500 -0.3934
 8055TIP3    H148360   7.605   7.271   1.589  1.0643  0.0391  0.0505
 8055TIP3    H248361   7.738   7.329   1.547  0.5687 -0.2867 -2.0697
 8056TIP3   OH248362   2.874   5.886   7.406  0.4887  0.4777 -0.3128
 8056TIP3    H148363   2.945   5.839   7.450 -0.2391 -0.9405 -0.5864
 8056TIP3    H248364   2.820   5.921   7.477 -0.7814 -1.9503  0.0316
 8057TIP3   OH248365   3.399   4.883   1.065 -0.1215 -0.0873  0.2795
 8057TIP3    H148366   3.437   4.944   1.001 -1.2120  0.5665  0.2382
 8057TIP3    H248367   3.306   4.881   1.044 -0.3600 -0.5215  1.3298
 8058TIP3   OH248368   3.082   7.499   0.423 -0.3487  0.6146 -0.1724
 8058TIP3    H148369   2.987   7.487   0.420 -0.3345  0.2154  0.7614
 8058TIP3    H248370   3.094   7.594   0.431 -0.6914  0.6133  0.4297
 8059TIP3   OH248371   0.968   1.757   1.354  0.4835 -0.1650  0.1227
 8059TIP3    H148372   0.929   1.746   1.268  0.8923  0.1538 -0.1117
 8059TIP3    H248373   1.033   1.826   1.341  0.3919  0.0392  0.7368
 8060TIP3   OH248374   6.660   6.110   0.322 -0.5765  0.0327  0.1248
 8060TIP3    H148375   6.628   6.134   0.234 -0.9447 -1.4057 -0.1600
 8060TIP3    H248376   6.629   6.021   0.334  0.1642 -0.0588  1.4123
 8061TIP3   OH248377   2.458   1.435   9.647  0.1091 -0.2373  0.2923
 8061TIP3    H148378   2.470   1.356   9.701 -0.6506  0.6707  1.8487
 8061TIP3    H248379   2.365   1.436   9.627 -0.1899  1.0576  1.6012
 8062TIP3   OH248380   7.509   0.648   0.542  0.0100 -0.6435  0.5884
 8062TIP3    H148381   7.445   0.579   0.560 -1.0426  0.4316  1.1032
 8062TIP3    H248382   7.498   0.710   0.614  1.4206 -0.2674  0.5062
 8063TIP3   OH248383   1.422   0.327   1.230  0.3458  0.1749 -0.0040
 8063TIP3    H148384   1.357   0.282   1.176  0.6187  0.4049 -0.5255
 8063TIP3    H248385   1.375   0.350   1.310 -0.3922  0.8734 -0.6205
 8064TIP3   OH248386   3.546   5.288   8.460  0.5835 -0.0141  0.1583
 8064TIP3    H148387   3.560   5.235   8.382 -0.5626 -0.7602  0.4369
 8064TIP3    H248388   3.549   5.378   8.428 -2.1270 -0.3155 -1.2182
 8065TIP3   OH248389   4.439   5.238   8.831 -0.2373  0.0329 -0.5734
 8065TIP3    H148390   4.383   5.308   8.864  0.2306 -0.0791  0.5071
 8065TIP3    H248391   4.424   5.238   8.737 -1.2773  0.6755 -0.4283
 8066TIP3   OH248392   0.676   5.830   9.102 -0.5037  0.2492 -0.2439
 8066TIP3    H148393   0.769   5.811   9.087 -0.1431  0.8706  1.0357
 8066TIP3    H248394   0.674   5.924   9.119 -1.6374  0.5857 -2.0875
 8067TIP3   OH248395   7.465   1.075   9.341 -0.3220 -0.4250 -0.0564
 8067TIP3    H148396   7.374   1.094   9.364 -0.3892  0.7327 -1.1938
 8067TIP3    H248397   7.486   0.997   9.392 -2.1536 -1.1049 -0.2485
 8068TIP3   OH248398   4.847   7.072   8.396 -0.2889  0.5790 -0.1926
 8068TIP3    H148399   4.789   7.146   8.379 -0.2066  0.3293 -1.6564
 8068TIP3    H248400   4.806   6.999   8.349  0.9207  0.2698 -0.7914
 8069TIP3   OH248401   6.080   2.575   7.632  0.7361 -0.6408 -0.8332
 8069TIP3    H148402   5.993   2.616   7.636  0.7896 -0.5977  0.4432
 8069TIP3    H248403   6.141   2.648   7.648  0.9577 -0.8323 -0.8024
 8070TIP3   OH248404   7.602   3.465   9.717 -0.1079 -0.7592 -0.2136
 8070TIP3    H148405   7.518   3.499   9.747  0.1772  0.2520 -0.5140
 8070TIP3    H248406   7.590   3.450   9.623 -0.3472 -1.8723 -0.0144
 8071TIP3   OH248407   3.389   0.887   0.938  0.0118 -0.7746 -0.3713
 8071TIP3    H148408   3.333   0.960   0.911 -0.5769 -0.2876  1.9763
 8071TIP3    H248409   3.349   0.811   0.897 -0.8788 -0.1051 -0.7948
 8072TIP3   OH248410   1.276   1.435   2.020 -0.1319  0.0392 -0.1551
 8072TIP3    H148411   1.360   1.400   2.052 -0.5474 -0.1296  0.7878
 8072TIP3    H248412   1.260   1.388   1.939 -1.2026 -2.8458  1.5920
 8073TIP3   OH248413   2.526   6.187   9.908  0.1287 -0.1249  0.1699
 8073TIP3    H148414   2.488   6.113   9.955  0.7125  0.1520  1.1124
 8073TIP3    H248415   2.472   6.197   9.830 -2.8185  1.2796  2.2281
 8074TIP3   OH248416   5.197   5.471   1.659 -0.4305  0.2819  0.6832
 8074TIP3    H148417   5.192   5.494   1.752  0.9169 -0.2561  0.9094
 8074TIP3    H248418   5.147   5.389   1.652  1.0629 -0.7241  1.3314
 8075TIP3   OH248419   4.662   3.477   8.059 -0.2932 -0.0751 -0.5721
 8075TIP3    H148420   4.620   3.449   7.977 -0.2437 -0.6618 -0.4018
 8075TIP3    H248421   4.728   3.540   8.031  0.1678 -0.7597 -1.0596
 8076TIP3   OH248422   5.231   4.484   1.955 -0.3589  0.0084 -0.4822
 8076TIP3    H148423   5.146   4.466   1.915 -0.2066  0.2223 -0.9040
 8076TIP3    H248424   5.279   4.402   1.948  0.0399  0.3206 -1.6782
 8077TIP3   OH248425   1.707   5.790   2.665 -0.2907 -0.4398  0.1244
 8077TIP3    H148426   1.755   5.834   2.736  0.9529  1.1285 -1.5766
 8077TIP3    H248427   1.644   5.855   2.634 -0.6482 -1.0049 -0.3574
 8078TIP3   OH248428   7.661   0.351   1.040 -0.0663  0.1280  0.2172
 8078TIP3    H148429   7.590   0.286   1.041  0.3328 -0.3192 -0.0137
 8078TIP3    H248430   7.732   0.309   1.090  0.2364  0.3406 -0.0340
 8079TIP3   OH248431   3.113   5.610   2.022  0.1037 -0.0308 -0.1058
 8079TIP3    H148432   3.053   5.536   2.011 -0.8712  0.0758  3.2253
 8079TIP3    H248433   3.057   5.687   2.012  0.8225  0.2993 -2.0703
 8080TIP3   OH248434   2.096   0.579   9.216 -0.2924  0.2187  0.1516
 8080TIP3    H148435   2.141   0.598   9.134 -1.0364  0.2363 -0.2637
 8080TIP3    H248436   2.118   0.653   9.273 -0.8456  0.9089 -0.4902
 8081TIP3   OH248437   3.908   7.024   6.766  0.2041  0.0103  0.3674
 8081TIP3    H148438   3.964   6.950   6.744 -0.2241  0.2452 -1.7160
 8081TIP3    H248439   3.830   6.984   6.805  0.7998 -0.4742  1.0941
 8082TIP3   OH248440   4.482   1.166   1.151 -0.3805  0.3412 -0.3543
 8082TIP3    H148441   4.477   1.083   1.104  0.5582  0.4103 -0.6070
 8082TIP3    H248442   4.446   1.231   1.091 -0.0842  0.2778 -0.6059
 8083TIP3   OH248443   1.053   0.887   9.193  0.2255 -0.0653  0.1309
 8083TIP3    H148444   1.110   0.857   9.264 -1.0793 -1.6527  0.5828
 8083TIP3    H248445   1.021   0.972   9.223 -1.6383 -1.4164  2.3607
 8084TIP3   OH248446   6.301   1.101   7.633  0.1205 -0.2170 -0.7593
 8084TIP3    H148447   6.244   1.026   7.612  1.4670 -1.0869 -1.4140
 8084TIP3    H248448   6.274   1.169   7.571 -0.8388 -0.2688 -0.4295
 8085TIP3   OH248449   2.541   0.212   9.675 -0.1392  0.3832  0.4747
 8085TIP3    H148450   2.540   0.178   9.585  3.3579  0.9322  0.0907
 8085TIP3    H248451   2.456   0.255   9.685 -1.3391 -1.1867 -1.9300
 8086TIP3   OH248452   3.941   7.337   1.949 -0.4126 -0.3652 -0.2068
 8086TIP3    H148453   4.036   7.346   1.935 -0.1984 -0.2725  1.2338
 8086TIP3    H248454   3.907   7.426   1.935 -0.3967 -0.5253 -1.3784
 8087TIP3   OH248455   6.515   7.315   9.630  0.2000 -0.2734  0.4341
 8087TIP3    H148456   6.546   7.380   9.568 -0.5575  0.1830  0.5221
 8087TIP3    H248457   6.466   7.365   9.695  0.0131 -0.8731  0.7678
 8088TIP3   OH248458   7.031   0.884   1.048 -0.4158 -0.0929  0.4599
 8088TIP3    H148459   7.034   0.909   0.956  1.7858  0.0261  0.5187
 8088TIP3    H248460   7.065   0.795   1.050  0.3025  0.1838  1.2354
 8089TIP3   OH248461   0.390   0.141   7.312 -0.5741  0.7964  0.1513
 8089TIP3    H148462   0.457   0.095   7.261 -0.2641 -0.2208  1.4178
 8089TIP3    H248463   0.354   0.205   7.252  2.7744  2.6691 -0.1045
 8090TIP3   OH248464   1.004   5.433   8.302 -0.0958 -0.5629  0.2747
 8090TIP3    H148465   1.077   5.407   8.246  1.3812  0.1445  1.7869
 8090TIP3    H248466   0.932   5.451   8.241  1.3549 -0.0369 -1.3625
 8091TIP3   OH248467   1.788   0.570   9.416  0.4486 -0.5920 -0.0849
 8091TIP3    H148468   1.820   0.482   9.395 -0.9540 -1.2548  0.4317
 8091TIP3    H248469   1.776   0.569   9.511 -3.4516 -1.2979 -0.4270
 8092TIP3   OH248470   2.819   3.580   0.379  0.1397 -0.3850 -0.4639
 8092TIP3    H148471   2.795   3.583   0.286 -1.7026  3.5294 -0.0806
 8092TIP3    H248472   2.902   3.628   0.384  0.0457 -0.2629 -0.0454
 8093TIP3   OH248473   1.379   3.224   0.053 -0.0475  0.3287  0.2522
 8093TIP3    H148474   1.448   3.218  -0.013 -0.9901  1.5863 -0.9120
 8093TIP3    H248475   1.306   3.265   0.007 -1.8126 -1.4823  1.2517
 8094TIP3   OH248476   4.678   1.548   8.558 -0.0647  0.1393  0.1796
 8094TIP3    H148477   4.713   1.637   8.548 -1.1321  0.4618 -1.0494
 8094TIP3    H248478   4.726   1.511   8.632  0.3979  1.7467  0.7303
 8095TIP3   OH248479   3.889   6.014   9.937 -0.1109  0.0054  0.1891
 8095TIP3    H148480   3.797   6.017   9.965 -0.5228  1.6756 -1.1812
 8095TIP3    H248481   3.923   6.101   9.956  0.6520 -0.0116 -0.9947
 8096TIP3   OH248482   6.086   1.576   8.634  0.0945 -0.3017 -0.4336
 8096TIP3    H148483   6.135   1.657   8.644 -0.6552  0.2180 -0.8698
 8096TIP3    H248484   6.082   1.540   8.723  1.8754 -0.7508 -0.4954
 8097TIP3   OH248485   5.644   5.412   9.010 -0.0805 -0.3153  0.9749
 8097TIP3    H148486   5.686   5.498   9.016  0.0102 -0.0700 -1.8077
 8097TIP3    H248487   5.576   5.414   9.077  0.6777  1.4721  1.7597
 8098TIP3   OH248488   2.996   0.934   2.482 -0.2330  0.3415  0.2186
 8098TIP3    H148489   2.948   0.997   2.535  0.6904  1.1060  0.1950
 8098TIP3    H248490   2.954   0.939   2.396 -1.1476 -0.2279  0.6204
 8099TIP3   OH248491   3.293   4.433   8.302  0.0891 -0.2707  0.1878
 8099TIP3    H148492   3.380   4.398   8.323  1.1092  2.5506  1.1025
 8099TIP3    H248493   3.244   4.357   8.271  2.5157 -2.1910  0.7114
 8100TIP3   OH248494   0.402   7.150   9.064 -0.3819  0.2775  0.1024
 8100TIP3    H148495   0.380   7.131   8.973 -1.4747  0.4162  0.3289
 8100TIP3    H248496   0.488   7.111   9.076 -0.3813 -0.0560 -0.8854
 8101TIP3   OH248497   5.552   0.966   1.358 -0.1946  0.6260 -0.3567
 8101TIP3    H148498   5.556   0.897   1.424  0.3540 -0.4041 -1.4393
 8101TIP3    H248499   5.461   0.997   1.362 -0.5251 -0.3473 -0.0530
 8102TIP3   OH248500   2.071   7.128   8.671  0.6890  0.0317 -0.5296
 8102TIP3    H148501   2.080   7.153   8.763  3.1513  0.3920 -0.7996
 8102TIP3    H248502   2.091   7.207   8.622 -0.2805 -0.2425 -1.4023
 8103TIP3   OH248503   7.132   5.720   0.147 -0.1716  0.2559 -0.2594
 8103TIP3    H148504   7.111   5.754   0.060  1.6097  0.1821 -0.7545
 8103TIP3    H248505   7.075   5.644   0.158 -0.3117  0.1819 -1.4134
 8104TIP3   OH248506   6.528   5.864   0.251  0.0104 -0.2313  0.6332
 8104TIP3    H148507   6.583   5.789   0.227  0.3160  0.0427  0.4688
 8104TIP3    H248508   6.441   5.841   0.218 -0.1718 -1.0387  1.6416
 8105TIP3   OH248509   3.923   4.067   0.016  0.1463 -0.5238  0.3913
 8105TIP3    H148510   3.994   4.108  -0.032 -0.8234  0.0025 -0.6616
 8105TIP3    H248511   3.965   4.004   0.074  1.4963  0.3134  0.3420
 8106TIP3   OH248512   7.406   5.160   7.786  0.1745  0.6424 -0.0921
 8106TIP3    H148513   7.367   5.156   7.873  2.0464 -0.4564  0.7770
 8106TIP3    H248514   7.461   5.081   7.781 -0.2469  0.4234 -2.4625
 8107TIP3   OH248515   0.023   3.967   7.692 -0.3937 -0.2072  0.0656
 8107TIP3    H148516   0.117   3.957   7.702  0.0619  2.9762 -0.1594
 8107TIP3    H248517  -0.001   3.904   7.624  1.8813  0.1314 -1.1205
 8108TIP3   OH248518   2.041   3.938   2.813 -0.4225  0.5275  0.1395
 8108TIP3    H148519   2.090   4.021   2.814  0.4514  0.0567  2.3571
 8108TIP3    H248520   2.090   3.883   2.751 -0.0395  1.1358 -0.1127
 8109TIP3   OH248521   6.963   3.081   8.997  0.2769 -0.3174 -0.5387
 8109TIP3    H148522   6.916   3.004   8.965 -3.7246  1.4683  0.4726
 8109TIP3    H248523   6.945   3.150   8.934  0.6059  0.7403  0.4705
 8110TIP3   OH248524   0.979   6.057   8.887 -0.5328  0.3485 -0.5744
 8110TIP3    H148525   0.957   6.149   8.900 -1.5503  0.4040 -2.3312
 8110TIP3    H248526   0.941   6.035   8.801 -1.5179 -2.0881  0.3898
 8111TIP3   OH248527   3.279   5.489   2.963 -0.6058 -0.3015  0.0336
 8111TIP3    H148528   3.270   5.554   2.893  0.2158  0.3768  0.5207
 8111TIP3    H248529   3.300   5.542   3.041 -0.4582 -1.1158  0.5554
 8112TIP3   OH248530   6.572   4.355   7.975 -0.1062 -0.1124 -0.3420
 8112TIP3    H148531   6.550   4.268   7.942 -1.4650  0.2408 -0.4150
 8112TIP3    H248532   6.640   4.387   7.916 -0.6862 -0.5168 -1.2474
 8113TIP3   OH248533   3.891   4.420   1.601  0.3594 -0.0589  0.0503
 8113TIP3    H148534   3.857   4.377   1.679 -2.7340 -1.4252 -1.8605
 8113TIP3    H248535   3.920   4.349   1.544  2.4044  0.8997 -0.2033
 8114TIP3   OH248536   1.944   2.253   8.635  0.1231  0.7161 -0.6001
 8114TIP3    H148537   2.025   2.295   8.664  0.8133  0.6107 -2.2729
 8114TIP3    H248538   1.968   2.162   8.619  0.3840  1.2096 -3.5391
 8115TIP3   OH248539   0.133   5.674   0.538  0.0558 -0.0936 -0.1761
 8115TIP3    H148540   0.157   5.614   0.609  3.5685  1.9707  0.5796
 8115TIP3    H248541   0.078   5.740   0.581  0.8877  0.2979  0.3088
 8116TIP3   OH248542   4.925   7.061   2.090 -0.3633  0.4620  0.1823
 8116TIP3    H148543   4.906   6.995   2.157  2.1471  0.2891  0.7982
 8116TIP3    H248544   4.946   7.010   2.011 -0.2012  0.5700  0.1553
 8117TIP3   OH248545   3.334   7.664   7.435 -0.3305 -0.7294 -0.2369
 8117TIP3    H148546   3.306   7.623   7.354 -1.1254 -1.8517  0.5817
 8117TIP3    H248547   3.299   7.753   7.431  0.8512 -0.2889 -1.7325
 8118TIP3   OH248548   1.712   7.477   1.230  0.2963 -0.3308 -0.2735
 8118TIP3    H148549   1.651   7.404   1.226 -0.3571  0.2449 -1.0612
 8118TIP3    H248550   1.777   7.451   1.296 -0.4503 -1.2078  0.1268
 8119TIP3   OH248551   2.912   0.460   8.174 -0.0553 -0.3005  0.3983
 8119TIP3    H148552   2.949   0.444   8.088 -0.4820  1.6561 -0.2060
 8119TIP3    H248553   2.849   0.389   8.187  0.1696 -0.7379 -0.8093
 8120TIP3   OH248554   7.264   4.623   1.341  0.4845 -0.1956  0.1200
 8120TIP3    H148555   7.171   4.602   1.332  0.3413  0.9721 -1.4856
 8120TIP3    H248556   7.266   4.711   1.377  0.9712 -0.1402 -0.0304
 8121TIP3   OH248557   6.491   2.449   8.993  0.4604 -0.4207  0.0176
 8121TIP3    H148558   6.556   2.392   8.951 -0.6223 -1.3687 -0.4357
 8121TIP3    H248559   6.429   2.470   8.923 -0.1510 -0.1878  0.6181
 8122TIP3   OH248560   4.878   7.361   8.995 -0.3046 -0.4382 -0.3367
 8122TIP3    H148561   4.800   7.346   8.943  0.1665 -1.7688 -0.6916
 8122TIP3    H248562   4.949   7.365   8.931  0.0249 -0.0536  0.0441
 8123TIP3   OH248563   5.585   0.154   1.451 -0.9400 -0.6852 -0.2871
 8123TIP3    H148564   5.604   0.199   1.369 -2.0476  1.0034  0.3133
 8123TIP3    H248565   5.662   0.100   1.468 -0.3362 -0.4209 -1.9850
 8124TIP3   OH248566   3.621   7.403   8.586 -0.3236 -0.2018  0.2330
 8124TIP3    H148567   3.628   7.498   8.574 -3.2964  0.1017  0.1271
 8124TIP3    H248568   3.590   7.392   8.676  1.5666 -1.2173  0.8031
 8125TIP3   OH248569   2.331   4.095   1.533 -0.1879  0.7121  0.2138
 8125TIP3    H148570   2.319   4.006   1.499 -2.6568  1.0394  0.0348
 8125TIP3    H248571   2.269   4.102   1.605 -2.7698  3.3276 -1.9754
 8126TIP3   OH248572   7.635   6.283   8.566  0.3563  0.0690  0.4469
 8126TIP3    H148573   7.682   6.348   8.619  1.5477 -1.6481  1.6163
 8126TIP3    H248574   7.593   6.226   8.631 -1.3344  0.0938 -0.5642
 8127TIP3   OH248575   0.252   0.235   1.056 -0.0239 -0.0754  0.1110
 8127TIP3    H148576   0.282   0.170   1.119  1.1442  0.5693  0.2563
 8127TIP3    H248577   0.298   0.212   0.975  1.7762  1.5115  0.5898
 8128TIP3   OH248578   3.063   6.038   2.566 -0.4307 -0.6081  0.1741
 8128TIP3    H148579   3.148   6.012   2.529  0.7833  1.3482  1.3993
 8128TIP3    H248580   3.005   6.046   2.491  0.2920 -2.5004 -0.6392
 8129TIP3   OH248581   0.118   4.557   7.353 -0.5307 -0.1045  0.0075
 8129TIP3    H148582   0.037   4.594   7.388 -0.3771 -1.2633  1.7324
 8129TIP3    H248583   0.186   4.618   7.380 -0.7680  0.7302 -1.2114
 8130TIP3   OH248584   1.495   5.744   8.433 -0.3620  0.0340 -0.9213
 8130TIP3    H148585   1.568   5.757   8.493  1.0848 -1.0338 -2.3880
 8130TIP3    H248586   1.424   5.710   8.488  0.1991  1.1183  0.5305
 8131TIP3   OH248587   0.501   5.198   2.255  0.1176 -0.6291  0.6687
 8131TIP3    H148588   0.481   5.112   2.292 -2.1443  0.0148  1.0941
 8131TIP3    H248589   0.420   5.248   2.263  0.4109  0.5830 -2.3684
 8132TIP3   OH248590   0.284   6.555   1.076  0.2390  0.1398 -0.2907
 8132TIP3    H148591   0.266   6.502   1.154  2.2913  0.0229  0.1400
 8132TIP3    H248592   0.221   6.524   1.011  0.7135 -2.1562  0.2684
 8133TIP3   OH248593   7.566   1.302   9.847  0.5795 -0.1474  0.3394
 8133TIP3    H148594   7.484   1.305   9.799 -1.5358  2.2422  3.6643
 8133TIP3    H248595   7.583   1.208   9.860 -1.7293 -0.7110 -0.2910
 8134TIP3   OH248596   1.592   3.088   6.856 -0.0124  0.4796  0.2606
 8134TIP3    H148597   1.540   3.115   6.780 -2.5349  0.6095  1.9257
 8134TIP3    H248598   1.682   3.111   6.833 -0.7882  1.2068 -2.3519
 8135TIP3   OH248599   2.541   2.112   8.540 -0.0611 -0.5218 -0.0555
 8135TIP3    H148600   2.505   2.200   8.529  1.1898 -0.0057 -0.2312
 8135TIP3    H248601   2.489   2.072   8.609  0.1380  0.8155  0.8959
 8136TIP3   OH248602   5.901   0.028   8.312  0.0042  0.4511 -0.2654
 8136TIP3    H148603   5.914  -0.025   8.391  0.2780 -0.9249 -1.2058
 8136TIP3    H248604   5.988   0.035   8.274  0.2029  2.6256  0.4392
 8137TIP3   OH248605   4.620   3.239   0.413  0.6036  0.2482 -0.0188
 8137TIP3    H148606   4.592   3.154   0.380  0.2488  1.2500 -2.5436
 8137TIP3    H248607   4.548   3.298   0.389  1.7004  1.5956 -0.0723
 8138TIP3   OH248608   5.124   1.850   9.607  0.8350 -0.1260 -0.1258
 8138TIP3    H148609   5.136   1.853   9.512  1.8467  0.4775  0.0068
 8138TIP3    H248610   5.164   1.768   9.634 -0.3462 -0.7866 -0.3211
 8139TIP3   OH248611   2.474   2.895   8.577 -0.0559 -0.1630 -0.1703
 8139TIP3    H148612   2.476   2.976   8.526 -0.6638 -0.6200 -0.9432
 8139TIP3    H248613   2.381   2.873   8.585  0.1313 -1.1758 -0.6207
 8140TIP3   OH248614   2.791   3.052   8.418 -0.2143 -0.0078 -0.2462
 8140TIP3    H148615   2.787   3.057   8.323  0.6438 -2.5104 -0.4854
 8140TIP3    H248616   2.877   3.089   8.440 -0.1690  0.0437 -0.5034
 8141TIP3   OH248617   0.694   0.106   1.202  0.2286 -0.6631  0.4454
 8141TIP3    H148618   0.767   0.162   1.231 -0.8479  1.0827 -0.0662
 8141TIP3    H248619   0.623   0.127   1.261 -1.5230  1.7909 -2.2615
 8142TIP3   OH248620   5.768   4.629   1.491 -0.5714 -0.3012  0.5093
 8142TIP3    H148621   5.808   4.544   1.513 -0.3333 -0.2066  0.4497
 8142TIP3    H248622   5.743   4.667   1.575  1.8397  0.8003  0.8143
 8143TIP3   OH248623   3.659   3.131   8.541  0.1186  0.2698 -0.5217
 8143TIP3    H148624   3.619   3.217   8.553 -1.4239 -0.4168 -0.4945
 8143TIP3    H248625   3.664   3.121   8.446  0.6779  0.5493 -0.5251
 8144TIP3   OH248626   2.131   1.017   2.937  0.1076  0.0580  0.4283
 8144TIP3    H148627   2.164   0.939   2.892  0.2833  0.2148  0.2844
 8144TIP3    H248628   2.141   0.997   3.030  0.8008  0.1857  0.3875
 8145TIP3   OH248629   1.389   0.104   0.567 -0.5643 -0.2917  0.0310
 8145TIP3    H148630   1.477   0.077   0.540  0.2647  1.9086  0.3408
 8145TIP3    H248631   1.376   0.189   0.524 -1.5038  0.5914  1.9515
 8146TIP3   OH248632   0.851   6.987   0.832  0.4800  0.0922 -0.2226
 8146TIP3    H148633   0.789   6.985   0.759  1.2876  2.4654 -1.0827
 8146TIP3    H248634   0.844   7.076   0.867  0.9133 -0.6654  1.9143
 8147TIP3   OH248635   5.530   3.659   0.894 -0.8507 -1.1195 -0.1983
 8147TIP3    H148636   5.481   3.582   0.865 -0.9713 -0.5003 -1.6920
 8147TIP3    H248637   5.513   3.726   0.828 -1.2329  0.4208  1.3663
 8148TIP3   OH248638   6.636   4.313   0.585 -0.0472 -0.0992  0.2076
 8148TIP3    H148639   6.579   4.299   0.661 -1.2022  2.0446 -0.1781
 8148TIP3    H248640   6.577   4.343   0.516  1.5487  2.7904 -0.0384
 8149TIP3   OH248641   0.842   6.066   1.488  0.1988 -0.4953 -1.1210
 8149TIP3    H148642   0.912   6.018   1.532 -0.7438 -0.3765  0.5823
 8149TIP3    H248643   0.770   6.004   1.482 -0.3017  0.0530 -0.8365
 8150TIP3   OH248644   5.699   6.740   8.349  0.1557 -0.0558 -0.2410
 8150TIP3    H148645   5.763   6.780   8.290  0.6626 -0.7771 -0.1881
 8150TIP3    H248646   5.732   6.758   8.437 -1.4114  2.3936 -0.0674
 8151TIP3   OH248647   0.517   2.377   0.321  0.1374  0.0739 -0.8961
 8151TIP3    H148648   0.598   2.374   0.371 -0.1514  1.2077 -0.3175
 8151TIP3    H248649   0.526   2.308   0.256  1.4363 -0.0166 -0.6468
 8152TIP3   OH248650   5.734   3.280   8.312 -0.4448 -0.3911 -0.1421
 8152TIP3    H148651   5.732   3.352   8.376 -1.3571 -0.6881  0.1812
 8152TIP3    H248652   5.645   3.275   8.279 -0.4104 -1.4211 -0.1123
 8153TIP3   OH248653   0.515   6.545   7.879 -0.2897  0.1507  0.4334
 8153TIP3    H148654   0.571   6.507   7.812 -1.0907 -1.3441  0.5783
 8153TIP3    H248655   0.456   6.603   7.830  2.6317  3.5284  0.4805
 8154TIP3   OH248656   5.446   2.908   1.229  0.4311 -0.7702  0.0755
 8154TIP3    H148657   5.374   2.917   1.167  2.0427 -2.5458 -2.2465
 8154TIP3    H248658   5.517   2.960   1.193  0.8242 -0.2360  1.5291
 8155TIP3   OH248659   1.422   6.448   1.061  0.4325 -0.0577 -0.2850
 8155TIP3    H148660   1.329   6.442   1.085  0.2198 -3.2874 -1.3093
 8155TIP3    H248661   1.438   6.541   1.047 -1.4420  1.1794  4.1518
 8156TIP3   OH248662   1.323   1.027   0.963  0.5435  0.3067 -0.4468
 8156TIP3    H148663   1.317   1.029   1.059  2.5133  1.2591 -0.3129
 8156TIP3    H248664   1.253   0.967   0.937  0.0903 -0.1415  1.5939
 8157TIP3   OH248665   0.886   4.892   0.504 -0.0134 -0.2614  0.0376
 8157TIP3    H148666   0.849   4.915   0.589 -0.6556 -0.3880 -0.2061
 8157TIP3    H248667   0.842   4.951   0.442  1.1806  0.5414 -0.0920
 8158TIP3   OH248668   6.456   7.445   0.280  0.7966  0.0316  0.0035
 8158TIP3    H148669   6.454   7.492   0.197  0.9106 -0.0950 -0.0734
 8158TIP3    H248670   6.426   7.508   0.345 -0.3600 -0.2017 -0.2893
 8159TIP3   OH248671   3.420   1.693   7.392  0.1256  0.4143 -0.2285
 8159TIP3    H148672   3.459   1.634   7.328 -1.6348 -0.0808 -0.9071
 8159TIP3    H248673   3.492   1.750   7.420  1.3098 -0.4757 -1.3561
 8160TIP3   OH248674   5.876   5.905   1.576  0.5286  0.1940 -0.1631
 8160TIP3    H148675   5.900   5.818   1.543 -0.3360 -0.2202  0.2734
 8160TIP3    H248676   5.955   5.935   1.622  0.7704 -0.4504 -0.1378
 8161TIP3   OH248677   3.620   0.748   0.169 -0.6431  0.2273  0.3125
 8161TIP3    H148678   3.537   0.760   0.123  0.2898 -1.5547 -2.1100
 8161TIP3    H248679   3.678   0.815   0.133 -0.3028 -0.2633 -0.0722
 8162TIP3   OH248680   6.364   3.520   1.865 -0.1531 -0.5071  0.1672
 8162TIP3    H148681   6.347   3.592   1.926 -3.2940 -0.2583 -0.8164
 8162TIP3    H248682   6.341   3.441   1.914 -2.1050 -0.3521 -0.4396
 8163TIP3   OH248683   3.835   2.201   0.712 -0.2195  0.1346  0.0994
 8163TIP3    H148684   3.851   2.250   0.792  1.2320  1.5112 -0.9800
 8163TIP3    H248685   3.921   2.169   0.685 -0.4045  1.0135 -1.7005
 8164TIP3   OH248686   4.289   6.080   9.821 -0.3462 -0.1550 -0.3037
 8164TIP3    H148687   4.258   6.001   9.777 -0.6741 -1.2784  1.7753
 8164TIP3    H248688   4.310   6.051   9.910  0.8745  1.8346  0.1211
 8165TIP3   OH248689   6.657   7.449   0.530  0.1375 -0.1093  0.1468
 8165TIP3    H148690   6.746   7.457   0.565 -0.3002 -1.1701  1.6163
 8165TIP3    H248691   6.668   7.444   0.435  1.8150 -2.0653  0.3910
 8166TIP3   OH248692   2.371   1.503   1.528  0.1133  0.3812 -0.2048
 8166TIP3    H148693   2.356   1.543   1.613  2.4367 -1.0187  0.9745
 8166TIP3    H248694   2.338   1.414   1.537 -0.8964  0.6220 -1.2733
 8167TIP3   OH248695   0.562   3.168   2.334  0.5038  0.7197  0.9349
 8167TIP3    H148696   0.490   3.186   2.273  1.9908  0.4338 -0.9989
 8167TIP3    H248697   0.520   3.123   2.407 -1.1212 -0.7950 -0.7886
 8168TIP3   OH248698   6.452   3.011   0.930  0.0504  0.2133 -0.4349
 8168TIP3    H148699   6.536   3.018   0.975 -0.8849  0.4114  1.3776
 8168TIP3    H248700   6.429   3.101   0.909  0.3077  0.1500 -1.0352
 8169TIP3   OH248701   0.610   0.205   7.088  0.0691  0.6795 -0.1865
 8169TIP3    H148702   0.626   0.144   7.015  0.1224  3.6074 -2.8210
 8169TIP3    H248703   0.673   0.177   7.155  0.4840 -1.7764 -1.4443
 8170TIP3   OH248704   1.773   7.487   0.632  0.8219  0.4227  0.4252
 8170TIP3    H148705   1.755   7.511   0.723  0.1680  0.7550  0.2102
 8170TIP3    H248706   1.830   7.411   0.639  0.1082 -0.0634  1.1161
 8171TIP3   OH248707   0.335   0.752   2.257 -0.3335  0.8124 -0.0664
 8171TIP3    H148708   0.359   0.660   2.252  1.0051  1.1473 -0.3134
 8171TIP3    H248709   0.412   0.798   2.223 -1.2523  1.9840 -0.6271
 8172TIP3   OH248710   2.958   5.128   7.140 -0.0769 -0.3597  0.5755
 8172TIP3    H148711   2.927   5.124   7.049  0.7951  0.9521  0.1995
 8172TIP3    H248712   3.015   5.205   7.143  0.2351 -0.6182  2.1431
 8173TIP3   OH248713   0.227   1.805   0.993  0.8893 -0.3767 -0.3087
 8173TIP3    H148714   0.158   1.806   0.927  0.8986 -2.2973 -0.4059
 8173TIP3    H248715   0.260   1.716   0.992  2.1511  0.0342  1.0122
 8174TIP3   OH248716   3.478   2.597   8.302 -0.4382 -0.1727 -0.3192
 8174TIP3    H148717   3.509   2.617   8.390  0.3774 -0.7755 -0.4603
 8174TIP3    H248718   3.520   2.663   8.247  2.3307 -2.1670 -0.7981
 8175TIP3   OH248719   4.994   1.178   7.786  0.1635  0.4738  0.3959
 8175TIP3    H148720   4.962   1.124   7.858  0.7274  1.3265  1.3048
 8175TIP3    H248721   5.033   1.115   7.725 -2.9634 -0.6006 -0.7091
 8176TIP3   OH248722   1.893   4.639   0.615 -0.1748  0.0524  0.4766
 8176TIP3    H148723   1.920   4.547   0.613  1.4258  0.5143 -0.3838
 8176TIP3    H248724   1.937   4.674   0.693 -0.0168  0.3119  0.2693
 8177TIP3   OH248725   6.291   5.610   9.586 -0.5294  0.1374  0.3479
 8177TIP3    H148726   6.296   5.575   9.675  0.3275 -1.1292 -0.1752
 8177TIP3    H248727   6.314   5.703   9.596  2.3509 -0.5379  1.1499
 8178TIP3   OH248728   7.176   6.958   8.195  0.5223  0.2101 -0.2742
 8178TIP3    H148729   7.252   6.956   8.137  1.7328  1.7135  1.1573
 8178TIP3    H248730   7.101   6.960   8.135  1.5968 -0.9376 -1.7264
 8179TIP3   OH248731   4.963   5.404   9.382  0.5335  0.1391  0.1362
 8179TIP3    H148732   4.901   5.331   9.389  0.1035  0.2328 -1.9302
 8179TIP3    H248733   4.927   5.472   9.439 -1.2708  0.1706 -0.9739
 8180TIP3   OH248734   3.112   2.836   9.925  0.1148  0.6804 -0.4825
 8180TIP3    H148735   3.178   2.810   9.990 -0.4890 -1.0712 -0.5209
 8180TIP3    H248736   3.040   2.870   9.978  0.7144  1.9118 -0.4088
 8181TIP3   OH248737   6.976   2.854   2.264  0.3977  0.0010 -0.1094
 8181TIP3    H148738   6.888   2.859   2.301  0.2415 -1.8053 -0.1856
 8181TIP3    H248739   7.001   2.762   2.273  1.8233  0.2620 -1.1361
 8182TIP3   OH248740   0.096   4.039   1.293  0.1821  0.0107  0.2407
 8182TIP3    H148741   0.042   3.969   1.257  1.3599  0.3407 -2.3647
 8182TIP3    H248742   0.033   4.101   1.331 -1.4103  0.5593 -2.9718
 8183TIP3   OH248743   1.645   3.550   6.788  0.1260 -0.4526 -0.0135
 8183TIP3    H148744   1.564   3.515   6.752  0.1788 -0.7615  0.1588
 8183TIP3    H248745   1.674   3.483   6.850 -0.8189  0.7673  1.8373
 8184TIP3   OH248746   7.331   2.705   8.403  0.6309 -0.1603  0.1430
 8184TIP3    H148747   7.401   2.652   8.366 -0.7983 -1.1184 -1.3367
 8184TIP3    H248748   7.370   2.792   8.415  2.7770 -1.2684  1.8302
 8185TIP3   OH248749   1.837   7.003   7.222 -0.5612  0.5222 -0.5033
 8185TIP3    H148750   1.925   7.036   7.204  0.3307 -1.0179  0.7481
 8185TIP3    H248751   1.816   6.949   7.146 -0.4015  0.8577 -0.7856
 8186TIP3   OH248752   1.054   4.974   8.054 -0.0225 -0.5913 -0.0802
 8186TIP3    H148753   1.112   5.049   8.039 -1.7487  0.9737  0.7285
 8186TIP3    H248754   1.068   4.950   8.145  0.3348 -1.1091 -0.2656
 8187TIP3   OH248755   5.906   4.571   8.688  0.3383  0.2972  0.3286
 8187TIP3    H148756   5.948   4.646   8.648 -0.1788  0.3861 -0.0638
 8187TIP3    H248757   5.856   4.530   8.617 -0.7314  0.5521  0.9075
 8188TIP3   OH248758   4.301   6.326   0.031  0.3071 -0.4764 -0.0833
 8188TIP3    H148759   4.387   6.349  -0.004 -0.0986  0.4943 -0.4958
 8188TIP3    H248760   4.309   6.234   0.058  1.6010 -0.2471  0.3426
 8189TIP3   OH248761   0.365   0.665   0.059 -0.1820  0.0066 -0.3840
 8189TIP3    H148762   0.450   0.699   0.086  0.3118 -0.8448 -0.8460
 8189TIP3    H248763   0.340   0.605   0.130 -1.6287  2.1519  1.0627
 8190TIP3   OH248764   6.439   1.563   8.658  0.4417  0.0169 -0.9322
 8190TIP3    H148765   6.468   1.527   8.742  1.5595 -0.5649 -1.5434
 8190TIP3    H248766   6.373   1.628   8.682  0.4452 -0.4232  0.3696
 8191TIP3   OH248767   5.677   5.273   8.605 -0.4465 -0.2267  0.1985
 8191TIP3    H148768   5.617   5.342   8.577 -0.6153 -0.2666  0.4553
 8191TIP3    H248769   5.755   5.320   8.635  0.1211 -0.2258 -1.2251
 8192TIP3   OH248770   1.656   3.176   7.488  0.1095 -0.4225 -0.0763
 8192TIP3    H148771   1.577   3.204   7.535  0.0306  0.0796 -0.4936
 8192TIP3    H248772   1.653   3.081   7.490  0.5732 -0.4242  1.7146
 8193TIP3   OH248773   3.435   4.837   7.479 -0.1573 -0.2350 -0.5967
 8193TIP3    H148774   3.382   4.760   7.461 -0.2134 -0.7437  1.5425
 8193TIP3    H248775   3.525   4.805   7.484 -0.2213 -0.2396  0.6644
 8194TIP3   OH248776   3.747   0.479   2.256  0.5513 -0.3620 -0.0566
 8194TIP3    H148777   3.697   0.559   2.268 -0.1059 -0.5209 -1.5428
 8194TIP3    H248778   3.801   0.472   2.335  1.1266  1.8962 -0.1990
 8195TIP3   OH248779   0.107   3.792   8.116  0.0824 -0.0071 -0.8316
 8195TIP3    H148780   0.119   3.884   8.094 -1.3650  0.5555  0.5526
 8195TIP3    H248781   0.088   3.749   8.032  2.4297  0.5899 -1.7486
 8196TIP3   OH248782   2.586   5.335   0.747  0.1247 -0.1865 -0.7886
 8196TIP3    H148783   2.519   5.350   0.814  1.9299 -1.6944  1.4744
 8196TIP3    H248784   2.548   5.268   0.690 -0.0712 -1.5868  0.9118
 8197TIP3   OH248785   6.882   3.268   1.345 -0.3415 -0.1281 -0.1957
 8197TIP3    H148786   6.962   3.308   1.379  0.3065 -1.7751  0.3168
 8197TIP3    H248787   6.829   3.342   1.316  1.0301  1.0525  0.1743
 8198TIP3   OH248788   5.198   6.812   9.267 -0.3268  0.1350 -0.1844
 8198TIP3    H148789   5.181   6.797   9.174 -0.2857  0.3862 -0.2310
 8198TIP3    H248790   5.273   6.870   9.269  0.7778 -1.2439  0.0179
 8199TIP3   OH248791   1.094   3.940   7.114 -0.4240  0.0763  0.2847
 8199TIP3    H148792   1.069   4.030   7.136 -0.1417  0.7139 -1.7936
 8199TIP3    H248793   1.190   3.940   7.118 -0.3623  0.2342 -0.9454
 8200TIP3   OH248794   2.018   3.798   9.041 -0.0619 -0.3345 -0.4280
 8200TIP3    H148795   2.083   3.729   9.052 -1.1060 -1.0001  2.5110
 8200TIP3    H248796   1.963   3.768   8.968  0.2691 -1.9684 -0.0382
 8201TIP3   OH248797   1.114   3.405   8.225 -0.2747  0.1553  0.3646
 8201TIP3    H148798   1.057   3.481   8.237 -1.0248 -0.1189 -1.1600
 8201TIP3    H248799   1.150   3.417   8.137  0.2128 -0.8519  0.4222
 8202TIP3   OH248800   0.224   6.612   0.080  0.1572 -0.1361 -0.6110
 8202TIP3    H148801   0.268   6.542   0.032  1.8383  0.1693  0.3887
 8202TIP3    H248802   0.131   6.590   0.076  0.5796 -2.0655 -0.8683
 8203TIP3   OH248803   0.119   5.625   1.727 -0.2489  0.3830  0.1604
 8203TIP3    H148804   0.038   5.600   1.772 -1.3498 -2.0512 -2.8344
 8203TIP3    H248805   0.091   5.688   1.660  1.0190  2.3353  1.3681
 8204TIP3   OH248806   7.023   7.389   0.068  0.4111  0.4320 -0.3009
 8204TIP3    H148807   7.030   7.400   0.163 -0.5317 -0.4405 -0.1116
 8204TIP3    H248808   6.935   7.353   0.054  0.0174  1.8128 -1.6310
 8205TIP3   OH248809   2.098   1.482   2.366 -0.0078 -0.0673 -0.1787
 8205TIP3    H148810   2.125   1.417   2.301 -2.9564 -0.7440 -0.8863
 8205TIP3    H248811   2.119   1.566   2.325  1.6332 -0.5052 -0.3041
 8206TIP3   OH248812   4.578   3.185   7.162  0.8420 -0.0689 -0.6946
 8206TIP3    H148813   4.565   3.126   7.087  0.1841 -2.0685  0.9111
 8206TIP3    H248814   4.497   3.236   7.165  0.6380 -0.3625 -1.0261
 8207TIP3   OH248815   1.741   3.771   2.316  0.1212  0.0933 -0.0759
 8207TIP3    H148816   1.817   3.791   2.372  0.5212  1.3887 -1.0195
 8207TIP3    H248817   1.780   3.737   2.235 -0.1603  2.0795 -1.1137
 8208TIP3   OH248818   7.261   5.809   7.898  0.1719  0.2206  0.3944
 8208TIP3    H148819   7.335   5.749   7.906 -1.1810 -1.4487  0.9397
 8208TIP3    H248820   7.227   5.816   7.986 -2.0843 -1.4397 -0.2580
 8209TIP3   OH248821   5.353   1.261   0.076  0.0828  0.4195 -0.3097
 8209TIP3    H148822   5.329   1.223  -0.009 -0.3016  1.1130 -0.5224
 8209TIP3    H248823   5.337   1.355   0.065 -0.8316  0.4161  0.8119
 8210TIP3   OH248824   5.063   3.784   2.595  0.3592  0.3693 -0.4058
 8210TIP3    H148825   5.140   3.762   2.648  3.6624  0.8860 -4.4199
 8210TIP3    H248826   5.019   3.701   2.581 -0.0257  0.0797  2.1255
 8211TIP3   OH248827   3.494   1.540   8.295  0.2207  0.7644  0.2463
 8211TIP3    H148828   3.559   1.544   8.224  0.7184  0.2692  0.6614
 8211TIP3    H248829   3.543   1.506   8.370  0.5304  4.1781  1.7546
 8212TIP3   OH248830   3.534   5.902   1.837 -0.2168  0.1976 -0.3862
 8212TIP3    H148831   3.445   5.886   1.869 -0.9254  0.5062 -2.0628
 8212TIP3    H248832   3.542   5.846   1.760 -0.1902  2.5018 -2.1953
 8213TIP3   OH248833   4.083   6.391   9.497  0.3560  0.0949  0.6782
 8213TIP3    H148834   4.089   6.342   9.415  0.5228  0.0087  0.7428
 8213TIP3    H248835   4.024   6.339   9.552 -0.7850  0.7949  0.1547
 8214TIP3   OH248836   7.586   0.960   7.164  0.2550  0.6299  0.2377
 8214TIP3    H148837   7.619   0.871   7.150 -1.0865 -0.0640  1.1893
 8214TIP3    H248838   7.664   1.013   7.179  1.0040 -0.7594  1.5336
 8215TIP3   OH248839   0.320   3.978   0.263 -0.5772  0.6432 -0.2639
 8215TIP3    H148840   0.260   3.941   0.328 -1.3615  0.8806 -0.8255
 8215TIP3    H248841   0.277   3.960   0.179 -0.3600  1.7038 -0.6235
 8216TIP3   OH248842   5.364   1.417   9.649  0.1834 -0.2203  0.5176
 8216TIP3    H148843   5.362   1.324   9.672 -1.4791 -0.9325 -2.0943
 8216TIP3    H248844   5.456   1.434   9.628  1.0210 -0.4980  3.4634
 8217TIP3   OH248845   6.312   4.765   8.610  0.6610 -0.0492  0.0961
 8217TIP3    H148846   6.284   4.702   8.676  1.0142 -0.5460 -0.2199
 8217TIP3    H248847   6.344   4.711   8.537  2.5540  0.4695  0.4837
 8218TIP3   OH248848   4.469   3.023   9.479  0.2052  0.0337  0.2621
 8218TIP3    H148849   4.496   3.114   9.481  0.6919 -0.0377 -1.4758
 8218TIP3    H248850   4.466   2.997   9.571  1.2139  1.4496  0.7333
 8219TIP3   OH248851   3.281   5.988   1.952 -0.0797  0.1948 -0.5379
 8219TIP3    H148852   3.304   6.081   1.960 -2.2478  0.6437  1.5490
 8219TIP3    H248853   3.222   5.984   1.877 -0.2281  0.5811 -0.4429
 8220TIP3   OH248854   6.155   6.513   1.670  0.4966  0.1745  0.4387
 8220TIP3    H148855   6.129   6.604   1.652  1.8753  0.6201  0.5862
 8220TIP3    H248856   6.250   6.514   1.664  0.4954 -1.4754 -0.4613
 8221TIP3   OH248857   0.754   7.333   1.073  0.1874  0.5485  0.1108
 8221TIP3    H148858   0.697   7.387   1.128  0.8721  1.4939 -0.0901
 8221TIP3    H248859   0.707   7.249   1.065 -0.3270  0.6974  1.4049
 8222TIP3   OH248860   0.298   5.214   8.571 -0.1252  0.0078 -0.0545
 8222TIP3    H148861   0.283   5.198   8.664 -1.1024 -0.5574 -0.2933
 8222TIP3    H248862   0.374   5.159   8.549 -0.8661 -1.0953  0.0711
 8223TIP3   OH248863   2.228   1.974   0.020 -0.1922 -0.4871  0.3649
 8223TIP3    H148864   2.251   1.987   0.112 -0.9732  0.3619  0.4434
 8223TIP3    H248865   2.191   1.885   0.018  1.1602 -1.0887  0.5908
 8224TIP3   OH248866   1.906   2.895   8.639  0.4609  0.3546 -0.3008
 8224TIP3    H148867   1.952   2.881   8.722  0.7705 -0.0468 -0.5343
 8224TIP3    H248868   1.908   2.810   8.596  1.0230  0.7474 -1.0808
 8225TIP3   OH248869   0.807   4.460   8.025 -0.6928  0.3247  0.2270
 8225TIP3    H148870   0.827   4.390   8.087 -2.4947 -1.2532 -0.8873
 8225TIP3    H248871   0.712   4.458   8.016 -0.5754  1.3487 -1.6523
 8226TIP3   OH248872   1.892   3.656   1.147 -0.1113 -0.1191  0.4494
 8226TIP3    H148873   1.920   3.565   1.135 -1.6215 -0.7440  1.2862
 8226TIP3    H248874   1.802   3.657   1.113  0.1883  1.3023 -0.3738
 8227TIP3   OH248875   7.099   5.987   0.231  0.3005 -0.1789  0.5071
 8227TIP3    H148876   7.004   5.990   0.218  0.0435 -0.8340  2.0238
 8227TIP3    H248877   7.116   5.898   0.262  1.1071  0.5398  2.2571
 8228TIP3   OH248878   4.737   1.300   8.805 -0.2260  0.2012  0.2929
 8228TIP3    H148879   4.746   1.217   8.759 -0.6023  0.1485  0.3164
 8228TIP3    H248880   4.825   1.338   8.802 -0.3847  0.5418 -1.1199
 8229TIP3   OH248881   7.320   1.690   0.122 -0.3156 -0.2882 -0.1160
 8229TIP3    H148882   7.301   1.628   0.052  0.5135 -2.0515  1.1478
 8229TIP3    H248883   7.234   1.717   0.155 -0.6932 -1.6846  0.0829
 8230TIP3   OH248884   7.679   6.323   1.479 -0.0384 -0.1281 -0.4381
 8230TIP3    H148885   7.602   6.265   1.477 -0.4722  0.2958  1.5737
 8230TIP3    H248886   7.644   6.407   1.510  0.8819  0.7247 -1.6444
 8231TIP3   OH248887   0.701   0.013   1.673 -0.8602 -0.7849 -0.2253
 8231TIP3    H148888   0.687   0.018   1.767 -1.9886 -0.3295 -0.4086
 8231TIP3    H248889   0.792   0.040   1.661 -0.3415 -1.9843  0.8295
 8232TIP3   OH248890   4.388   7.425   1.980  0.4502  0.4387  0.3508
 8232TIP3    H148891   4.448   7.379   1.922 -1.1667 -1.4635  0.0538
 8232TIP3    H248892   4.418   7.404   2.068  0.6895  0.1510  0.2031
 8233TIP3   OH248893   0.921   6.045   7.747  0.3304  0.0284  0.2413
 8233TIP3    H148894   0.981   5.987   7.795 -0.3832  0.4325  1.6738
 8233TIP3    H248895   0.858   5.985   7.706  0.8536 -0.3176 -0.0735
 8234TIP3   OH248896   3.606   2.187   0.577 -0.6473 -0.3716 -0.3543
 8234TIP3    H148897   3.562   2.116   0.623 -2.0719  1.7042  1.7525
 8234TIP3    H248898   3.696   2.184   0.608 -1.0708 -0.3674  0.9452
 8235TIP3   OH248899   5.150   6.753   1.079  0.6590 -0.1372 -0.4576
 8235TIP3    H148900   5.178   6.807   1.006 -0.5378  1.2807  0.0861
 8235TIP3    H248901   5.118   6.815   1.144  0.3204 -1.4440  0.6712
 8236TIP3   OH248902   3.606   7.571   2.006 -0.4905 -0.3221 -0.7119
 8236TIP3    H148903   3.523   7.613   1.983 -1.4149 -1.9988 -0.6213
 8236TIP3    H248904   3.580   7.486   2.042  1.0507  0.4303  2.6306
 8237TIP3   OH248905   6.738   6.451   2.331 -0.0608  0.0859 -0.3102
 8237TIP3    H148906   6.832   6.455   2.347  0.0639  1.3079 -1.1414
 8237TIP3    H248907   6.717   6.358   2.329  1.1012 -0.1980  0.0097
 8238TIP3   OH248908   1.840   2.641   2.333  0.4531  0.4370  0.0678
 8238TIP3    H148909   1.906   2.708   2.349  0.3369  0.5883 -0.0972
 8238TIP3    H248910   1.888   2.558   2.340  0.4534  0.5059  0.9893
 8239TIP3   OH248911   2.826   4.518   9.815 -0.1812  0.2174 -0.2213
 8239TIP3    H148912   2.895   4.562   9.766 -0.4686  1.2023  0.2350
 8239TIP3    H248913   2.806   4.578   9.886 -0.7420 -0.5653  0.2871
 8240TIP3   OH248914   6.559   7.515   0.003 -0.4231  0.0847  0.6405
 8240TIP3    H148915   6.515   7.486  -0.076 -0.5253  0.9522  0.3647
 8240TIP3    H248916   6.511   7.594   0.030 -0.5644 -0.3503  1.7192
 8241TIP3   OH248917   5.449   4.025   1.056  1.0491  0.4200  0.1314
 8241TIP3    H148918   5.447   4.117   1.082  2.6548  0.5683 -0.1373
 8241TIP3    H248919   5.539   3.997   1.075  0.9690 -0.7189 -1.0180
 8242TIP3   OH248920   0.285   6.484   7.678 -0.4420  0.8761  0.0103
 8242TIP3    H148921   0.215   6.518   7.733 -0.4426  0.0879  0.5103
 8242TIP3    H248922   0.273   6.527   7.593 -1.3319  0.9848  0.1883
 8243TIP3   OH248923   0.153   2.919   1.243  0.4235  0.2669 -0.4923
 8243TIP3    H148924   0.146   2.855   1.314 -2.0266  1.5293  0.5371
 8243TIP3    H248925   0.227   2.974   1.269  0.0462  0.2418  0.7340
 8244TIP3   OH248926   3.807   6.892   9.181  0.1312  0.2107  0.1158
 8244TIP3    H148927   3.882   6.866   9.236  0.6379  1.2798 -0.0562
 8244TIP3    H248928   3.759   6.954   9.235 -1.4719 -1.5124  0.8020
 8245TIP3   OH248929   3.037   6.888   8.030  0.1129 -0.0278 -0.1466
 8245TIP3    H148930   2.960   6.893   8.086 -0.6080 -3.0299 -0.7023
 8245TIP3    H248931   3.023   6.956   7.964 -0.9767  0.8793  0.9647
 8246TIP3   OH248932   2.238   4.651   2.029  0.4499  0.2064 -0.4221
 8246TIP3    H148933   2.295   4.581   2.061  0.8300  0.2350 -1.0157
 8246TIP3    H248934   2.156   4.608   2.008 -0.5840  0.4819  2.5044
 8247TIP3   OH248935   4.917   6.734   7.087  0.3083  0.1663  0.5042
 8247TIP3    H148936   5.011   6.720   7.097  0.3301 -0.9983 -1.0584
 8247TIP3    H248937   4.886   6.660   7.035 -1.7572 -0.2518  2.1883
 8248TIP3   OH248938   0.059   3.287   9.241 -0.1238 -0.3055  0.4290
 8248TIP3    H148939   0.138   3.303   9.190 -0.4791  0.7224  0.1697
 8248TIP3    H248940   0.074   3.203   9.284  0.6211 -0.6698 -0.5287
 8249TIP3   OH248941   3.108   4.906   7.223 -0.2086  0.6259 -0.0983
 8249TIP3    H148942   3.034   4.961   7.202 -0.5611 -0.0209 -0.5747
 8249TIP3    H248943   3.174   4.966   7.257  0.1596  1.6350 -2.4532
 8250TIP3   OH248944   4.763   0.871   0.519 -0.3657  0.4518  0.1186
 8250TIP3    H148945   4.694   0.846   0.581 -0.2701  1.8209  0.8115
 8250TIP3    H248946   4.842   0.877   0.573  0.4076 -1.4222 -0.7250
 8251TIP3   OH248947   1.823   6.366   0.899 -0.4295  0.2704  0.1625
 8251TIP3    H148948   1.917   6.381   0.909 -0.3290  0.2003 -0.6314
 8251TIP3    H248949   1.784   6.453   0.897 -0.2811  0.3272 -0.3945
 8252TIP3   OH248950   3.398   3.133   7.305 -0.4564 -0.2759 -0.7207
 8252TIP3    H148951   3.429   3.049   7.339  0.5214 -0.0364 -1.0114
 8252TIP3    H248952   3.447   3.198   7.353 -1.5196  0.1630 -0.1906
 8253TIP3   OH248953   6.345   7.125   2.006  0.2093 -0.4650 -0.0333
 8253TIP3    H148954   6.265   7.138   2.057  0.5072  1.5523 -0.0204
 8253TIP3    H248955   6.346   7.197   1.943  0.7949 -1.8597 -1.6840
 8254TIP3   OH248956   0.208   4.973   9.102 -0.1263  0.6252  0.4923
 8254TIP3    H148957   0.285   4.922   9.077 -0.8552  0.1423 -0.8242
 8254TIP3    H248958   0.143   4.908   9.128 -0.5079  0.9665  0.3999
 8255TIP3   OH248959   6.833   4.011   9.309  0.1269 -0.0962  0.0928
 8255TIP3    H148960   6.798   3.973   9.390  1.7673  0.8085  1.2812
 8255TIP3    H248961   6.765   3.993   9.244 -1.4896 -0.4319  1.7540
 8256TIP3   OH248962   1.034   4.979   9.910 -0.9086  0.1311 -0.2031
 8256TIP3    H148963   0.960   5.036   9.890 -1.0845  0.4049  1.1143
 8256TIP3    H248964   1.033   4.972  10.005  0.7334  0.1198 -0.1594
 8257TIP3   OH248965   1.147   1.981   1.341 -0.6438  0.2372 -0.0129
 8257TIP3    H148966   1.225   1.973   1.396 -1.1451 -0.6754  0.5810
 8257TIP3    H248967   1.079   2.014   1.400 -0.4626  2.0701 -0.7696
 8258TIP3   OH248968   7.313   6.959   0.773  0.7923 -0.3024  0.2906
 8258TIP3    H148969   7.365   6.879   0.764  1.2125 -0.0692  0.6242
 8258TIP3    H248970   7.318   7.000   0.687  0.5385 -0.6591  0.1049
 8259TIP3   OH248971   6.188   2.315   7.993  0.0529  0.0688 -0.3556
 8259TIP3    H148972   6.217   2.405   8.007  0.3875 -0.1197  0.2099
 8259TIP3    H248973   6.147   2.315   7.907  0.1456  0.7388 -0.3985
 8260TIP3   OH248974   4.978   3.513   0.265  0.2477  0.3630  0.0674
 8260TIP3    H148975   4.908   3.470   0.312  1.6093 -2.1974 -0.0961
 8260TIP3    H248976   4.935   3.586   0.220 -2.6803 -2.0257 -1.3718
 8261TIP3   OH248977   7.520   1.411   2.575 -0.0966 -0.0703 -0.4273
 8261TIP3    H148978   7.540   1.430   2.667 -0.8268 -1.1056 -0.0437
 8261TIP3    H248979   7.446   1.467   2.554 -0.7636 -0.7775  0.0106
 8262TIP3   OH248980   1.361   2.926   7.354  0.2320 -0.2259  0.2769
 8262TIP3    H148981   1.288   2.867   7.332 -0.0491  0.7164 -1.5689
 8262TIP3    H248982   1.325   2.984   7.421  0.1058 -1.3323  1.1867
 8263TIP3   OH248983   2.527   1.837   8.374  0.1086  0.3632 -0.1352
 8263TIP3    H148984   2.435   1.820   8.394  0.4689 -0.9744  0.4471
 8263TIP3    H248985   2.550   1.912   8.429 -0.1742 -0.3701  1.0035
 8264TIP3   OH248986   4.409   1.909   9.599  0.1537  0.4798  0.1109
 8264TIP3    H148987   4.500   1.920   9.570  0.6099  0.0470  1.2847
 8264TIP3    H248988   4.365   1.989   9.570  0.5736  0.1275 -1.6238
 8265TIP3   OH248989   6.234   0.720   8.656 -0.0750  0.0955  0.0927
 8265TIP3    H148990   6.294   0.714   8.582  0.3288 -1.1333  0.4881
 8265TIP3    H248991   6.248   0.808   8.691 -0.9895  1.0562 -1.8541
 8266TIP3   OH248992   4.079   2.193   9.782  0.2372 -0.3120 -0.0622
 8266TIP3    H148993   4.128   2.215   9.703 -1.5128  0.6286 -0.9384
 8266TIP3    H248994   4.026   2.117   9.757  1.2202 -1.3536  0.8910
 8267TIP3   OH248995   7.234   5.562   1.054 -0.0165 -0.0033  0.1342
 8267TIP3    H148996   7.224   5.487   0.996  2.4456 -0.6152  0.3820
 8267TIP3    H248997   7.273   5.526   1.134 -0.1939  1.3151  0.8437
 8268TIP3   OH248998   4.855   3.160   0.286 -0.0221 -1.1555 -0.5988
 8268TIP3    H148999   4.764   3.188   0.303  0.3089  0.6505 -1.5922
 8268TIP3    H249000   4.878   3.107   0.363 -1.2519  0.0439  0.6514
 8269TIP3   OH249001   0.731   5.852   0.199  0.7107  0.2428 -0.5585
 8269TIP3    H149002   0.814   5.855   0.151  0.8949  0.0597 -0.2559
 8269TIP3    H249003   0.665   5.840   0.132  1.0144 -0.6082 -0.7214
 8270TIP3   OH249004   3.339   6.152   9.557  0.3403 -0.1137 -0.8200
 8270TIP3    H149005   3.364   6.060   9.550  0.5192 -0.0206 -1.4830
 8270TIP3    H249006   3.368   6.178   9.645  2.4946 -0.0455 -1.4978
 8271TIP3   OH249007   7.550   4.741   2.252 -0.4131 -0.3111  0.4696
 8271TIP3    H149008   7.466   4.777   2.221 -0.5516 -1.0069  0.0165
 8271TIP3    H249009   7.529   4.697   2.334 -0.8446 -1.9821 -0.5042
 8272TIP3   OH249010   4.432   4.389   7.211  0.8348  0.5161 -0.7332
 8272TIP3    H149011   4.403   4.327   7.144 -0.3834  1.1488 -0.8137
 8272TIP3    H249012   4.526   4.399   7.196  0.9607 -0.9211 -1.0374
 8273TIP3   OH249013   1.236   0.529   0.975  0.5827 -0.7369 -0.2843
 8273TIP3    H149014   1.161   0.474   0.997 -0.5814 -0.3350 -2.8503
 8273TIP3    H249015   1.298   0.469   0.933 -0.0194 -0.4556 -1.6558
 8274TIP3   OH249016   6.694   3.393   9.809 -0.0293 -0.4666 -0.0633
 8274TIP3    H149017   6.730   3.320   9.859 -0.5173 -0.3577  0.4655
 8274TIP3    H249018   6.599   3.379   9.811 -0.0838 -0.1832 -0.5305
 8275TIP3   OH249019   1.526   6.279   1.404 -0.4572 -0.8535  0.1133
 8275TIP3    H149020   1.548   6.328   1.483  1.3102 -0.6306 -0.4685
 8275TIP3    H249021   1.602   6.224   1.388  0.0912  0.5158 -2.4925
 8276TIP3   OH249022   5.113   3.494   1.527  0.0371 -0.1787  0.2619
 8276TIP3    H149023   5.148   3.568   1.478  1.2975 -1.2301 -0.4668
 8276TIP3    H249024   5.151   3.503   1.615 -0.8194  0.7134  0.5612
 8277TIP3   OH249025   1.742   1.376   0.021  0.3011  0.4678 -0.0571
 8277TIP3    H149026   1.800   1.376   0.097  0.5968 -0.6228 -0.2678
 8277TIP3    H249027   1.679   1.446   0.039  1.5553  1.5557  0.2706
 8278TIP3   OH249028   6.249   6.575   9.044  0.0115 -0.0420 -0.2385
 8278TIP3    H149029   6.240   6.551   8.952 -0.9334 -0.5745 -0.0232
 8278TIP3    H249030   6.341   6.559   9.065  0.4682  1.0166 -1.3351
 8279TIP3   OH249031   1.901   6.718   1.175 -0.6090 -0.0615 -0.6655
 8279TIP3    H149032   1.900   6.647   1.111 -0.0213  1.4634 -2.4796
 8279TIP3    H249033   1.842   6.690   1.244 -0.1177 -2.4376 -1.1452
 8280TIP3   OH249034   7.347   0.362   0.178  0.6256  0.0480  0.0576
 8280TIP3    H149035   7.293   0.286   0.200 -1.3116  1.5754  0.9833
 8280TIP3    H249036   7.431   0.345   0.219  0.2722 -1.6454  0.1307
 8281TIP3   OH249037   2.760   7.070   6.807  0.4485 -0.2692 -0.4679
 8281TIP3    H149038   2.837   7.124   6.819 -0.5792  0.6711  3.0982
 8281TIP3    H249039   2.687   7.132   6.804 -0.3084 -1.1833 -2.8373
 8282TIP3   OH249040   4.396   1.169   9.071 -0.1011  0.0488 -0.0784
 8282TIP3    H149041   4.404   1.124   9.155  0.6132 -0.3715 -0.3645
 8282TIP3    H249042   4.304   1.158   9.047  0.5023 -3.4048 -1.2843
 8283TIP3   OH249043   2.295   4.095   0.980  0.2801 -0.2298  1.0543
 8283TIP3    H149044   2.336   4.182   0.973 -0.2168 -0.1110 -0.8077
 8283TIP3    H249045   2.214   4.111   1.028 -0.1832  0.5082  0.0719
 8284TIP3   OH249046   6.854   5.485   1.763 -0.1082  0.1642  0.3215
 8284TIP3    H149047   6.903   5.565   1.781 -0.9165  0.7510 -0.0118
 8284TIP3    H249048   6.764   5.506   1.787 -0.5215 -0.2865 -0.7624
 8285TIP3   OH249049   1.665   4.376   8.794  0.1004 -0.0036 -0.5340
 8285TIP3    H149050   1.569   4.379   8.798  0.1249 -0.4880  2.0341
 8285TIP3    H249051   1.684   4.354   8.703 -2.2632 -0.7423 -0.9202
 8286TIP3   OH249052   7.044   0.485   8.573 -0.3439 -0.3655 -0.1659
 8286TIP3    H149053   6.965   0.451   8.531 -0.5068 -1.5973  1.0680
 8286TIP3    H249054   7.092   0.528   8.502 -0.7436 -2.0885 -1.5402
 8287TIP3   OH249055   4.355   2.353   8.846  0.5285 -0.4225 -0.2602
 8287TIP3    H149056   4.395   2.366   8.933 -2.5145 -1.3586  1.4174
 8287TIP3    H249057   4.375   2.263   8.824 -1.3272 -1.2246  1.0621
 8288TIP3   OH249058   7.110   6.045   0.982  0.1690  0.5273  0.0355
 8288TIP3    H149059   7.188   6.098   0.965 -0.1552  0.4440 -1.9535
 8288TIP3    H249060   7.138   5.955   0.962  0.4370  0.0089  2.4378
 8289TIP3   OH249061   1.385   2.778   7.925 -0.4021  0.2690 -0.0124
 8289TIP3    H149062   1.384   2.690   7.963 -0.9413  0.6419  0.8783
 8289TIP3    H249063   1.321   2.774   7.854 -0.4460 -0.0454  0.0409
 8290TIP3   OH249064   2.943   3.508   8.144  0.5657  0.7935  0.4178
 8290TIP3    H149065   2.900   3.557   8.215  0.2420  4.4598 -2.0527
 8290TIP3    H249066   3.034   3.537   8.146  0.6131  0.7328 -0.4866
 8291TIP3   OH249067   6.597   5.487   9.024  0.4578  0.6254 -0.1996
 8291TIP3    H149068   6.635   5.404   8.996 -0.2190  1.2602 -3.3089
 8291TIP3    H249069   6.624   5.550   8.957  0.4949  2.8580  1.7727
 8292TIP3   OH249070   4.417   5.908   9.541 -0.0318 -0.0987 -0.9642
 8292TIP3    H149071   4.361   5.979   9.510 -0.6092 -0.9597 -1.9587
 8292TIP3    H249072   4.489   5.905   9.478  0.3126 -0.0038 -0.5765
 8293TIP3   OH249073   2.083   4.862   9.879  0.4817  0.3039  0.1919
 8293TIP3    H149074   2.032   4.835   9.956 -0.0438 -1.9610 -0.8444
 8293TIP3    H249075   2.053   4.950   9.860  0.9341  1.1125  2.8026
 8294TIP3   OH249076   3.119   0.113   9.301 -0.0840  0.2395  0.2652
 8294TIP3    H149077   3.174   0.181   9.261  1.6557 -0.6399  1.0591
 8294TIP3    H249078   3.126   0.039   9.241 -1.0031  0.3280  0.0260
 8295TIP3   OH249079   4.231   2.141   0.301  0.3667  0.6599  0.5126
 8295TIP3    H149080   4.214   2.213   0.240  0.9460 -0.4209 -1.0017
 8295TIP3    H249081   4.218   2.179   0.388 -0.6451  2.2310 -0.2735
 8296TIP3   OH249082   4.150   3.708   9.930 -0.0580 -0.2661  0.0307
 8296TIP3    H149083   4.098   3.693   9.852  0.1546  0.1532 -0.1933
 8296TIP3    H249084   4.210   3.779   9.907 -1.0860  1.0008  1.0818
 8297TIP3   OH249085   3.729   5.444   1.883 -0.4517  0.2256  0.0024
 8297TIP3    H149086   3.798   5.427   1.819  0.7774  1.2336  1.0025
 8297TIP3    H249087   3.651   5.403   1.846  0.6304 -0.7756 -1.2641
 8298TIP3   OH249088   5.758   6.401   0.888 -0.1946  0.1781  0.2706
 8298TIP3    H149089   5.785   6.490   0.907  0.4686  0.2008 -0.6913
 8298TIP3    H249090   5.683   6.385   0.945  1.2871  0.4212  2.4113
 8299TIP3   OH249091   0.273   2.769   1.441 -0.2603 -0.2726 -0.1029
 8299TIP3    H149092   0.290   2.752   1.534  1.5519  0.5029 -0.2566
 8299TIP3    H249093   0.329   2.706   1.395 -0.1484  0.2389 -0.6708
 8300TIP3   OH249094   0.868   2.813   1.610 -0.3558 -0.9913  0.3027
 8300TIP3    H149095   0.797   2.779   1.664 -0.4510  0.4732  1.1475
 8300TIP3    H249096   0.867   2.907   1.624  0.5755 -0.7231 -1.1294
 8301TIP3   OH249097   4.073   2.981   1.226 -0.0572 -0.1391  0.3208
 8301TIP3    H149098   4.098   2.934   1.147  0.4406 -0.7353  0.8219
 8301TIP3    H249099   4.056   2.913   1.291  1.6127  0.3439  1.3404
 8302TIP3   OH249100   2.517   6.714   9.987  0.4636  0.0236 -0.2815
 8302TIP3    H149101   2.554   6.790   9.942 -0.7879  0.5613 -0.4597
 8302TIP3    H249102   2.517   6.645   9.920  0.0790  0.3559 -0.6324
 8303TIP3   OH249103   6.775   3.251   8.836  0.2797 -0.1788  0.3708
 8303TIP3    H149104   6.785   3.337   8.795 -1.3453  0.0714  0.4262
 8303TIP3    H249105   6.688   3.254   8.877  0.7075 -1.4168  1.4301
 8304TIP3   OH249106   0.306   3.330   0.634 -0.2747 -0.0393 -0.0904
 8304TIP3    H149107   0.220   3.361   0.664 -0.0000 -0.7075  1.4801
 8304TIP3    H249108   0.326   3.256   0.692  1.3893  0.1298 -0.4053
 8305TIP3   OH249109   1.247   0.879   8.154 -0.0429 -0.3959 -0.0074
 8305TIP3    H149110   1.155   0.879   8.181  0.4615  1.1479  1.9345
 8305TIP3    H249111   1.291   0.824   8.219  0.4068 -1.2900 -1.0391
 8306TIP3   OH249112   2.220   2.294   0.597  0.0831 -0.5351  0.1250
 8306TIP3    H149113   2.128   2.312   0.615 -0.0158 -0.4432 -0.4485
 8306TIP3    H249114   2.219   2.234   0.523  0.5023  0.8679 -1.0631
 8307TIP3   OH249115   6.926   4.888   8.957  0.3722  0.7949  0.4247
 8307TIP3    H149116   6.976   4.838   9.022 -1.5976 -0.1449  1.3437
 8307TIP3    H249117   6.940   4.979   8.981 -0.6923  0.4717  2.5888
 8308TIP3   OH249118   6.162   6.658   9.479  0.0102  0.4552 -0.2867
 8308TIP3    H149119   6.122   6.743   9.461 -0.6246  0.3557  0.5869
 8308TIP3    H249120   6.121   6.598   9.417  0.5814  0.8106 -1.0162
 8309TIP3   OH249121   4.208   4.889   8.120  0.2168  0.4451  0.7106
 8309TIP3    H149122   4.275   4.946   8.082  0.6024  0.2956  1.1506
 8309TIP3    H249123   4.210   4.911   8.213 -0.3013  0.3909  0.7327
 8310TIP3   OH249124   3.372   5.188   0.429  0.0537 -0.8868 -0.2238
 8310TIP3    H149125   3.326   5.186   0.346  0.8495 -2.7532 -0.6708
 8310TIP3    H249126   3.464   5.201   0.406 -0.0727  2.1401  0.6139
 8311TIP3   OH249127   7.377   6.917   8.004  0.1553 -0.2874 -0.8477
 8311TIP3    H149128   7.458   6.966   7.988  1.2327 -1.2734  1.0860
 8311TIP3    H249129   7.364   6.865   7.925  2.4550 -1.4073 -0.5812
 8312TIP3   OH249130   6.030   2.964   8.064  0.2852  0.5388 -0.3350
 8312TIP3    H149131   5.946   3.010   8.063 -0.2167 -0.3506 -0.5483
 8312TIP3    H249132   6.080   3.005   7.994 -0.5383  0.0921 -1.2146
 8313TIP3   OH249133   6.104   0.314   2.242  0.2021 -0.1596  0.4761
 8313TIP3    H149134   6.148   0.237   2.206  0.5232  0.4895 -0.5640
 8313TIP3    H249135   6.162   0.387   2.219 -0.3365  0.4477  1.0237
 8314TIP3   OH249136   7.093   4.043   9.209  0.3918  0.3960  0.2337
 8314TIP3    H149137   7.015   4.007   9.250  2.0779 -1.0845  2.3664
 8314TIP3    H249138   7.066   4.130   9.178 -2.4122 -0.6138 -0.3989
 8315TIP3   OH249139   6.884   6.275   1.566 -0.4031 -0.5147 -0.3806
 8315TIP3    H149140   6.959   6.230   1.606  0.3327  1.3064  0.3840
 8315TIP3    H249141   6.887   6.250   1.474  2.7197  1.4406 -0.9468
 8316TIP3   OH249142   6.580   1.436   1.797 -0.2236  0.2098 -0.0722
 8316TIP3    H149143   6.619   1.524   1.800 -1.1112  0.6517 -0.7689
 8316TIP3    H249144   6.533   1.435   1.713  0.3869 -1.2060 -0.4199
 8317TIP3   OH249145   4.921   3.319   9.262  0.3201 -0.4213 -0.1952
 8317TIP3    H149146   4.958   3.384   9.202 -1.7691  2.0921  1.0512
 8317TIP3    H249147   4.989   3.307   9.328  0.9847  0.0361 -0.7766
 8318TIP3   OH249148   3.418   6.958   0.399  0.0127 -0.2722  0.0655
 8318TIP3    H149149   3.477   6.898   0.444  0.4533 -0.6759 -1.0158
 8318TIP3    H249150   3.343   6.967   0.458 -0.1563 -2.0301  0.1776
 8319TIP3   OH249151   2.927   2.986   2.660 -0.0731 -0.3972  0.3472
 8319TIP3    H149152   2.937   3.076   2.628  1.5548 -0.9244 -0.7310
 8319TIP3    H249153   2.929   2.932   2.581 -0.2586 -1.4475  1.0430
 8320TIP3   OH249154   6.607   0.159   0.402 -0.3444 -0.1889 -0.2414
 8320TIP3    H149155   6.677   0.171   0.338 -0.4602  2.5650  0.0249
 8320TIP3    H249156   6.652   0.154   0.486 -0.3041 -1.9737 -0.3396
 8321TIP3   OH249157   5.665   5.517   7.882  0.0065  0.2065 -0.2752
 8321TIP3    H149158   5.597   5.472   7.832  0.0057 -0.9352  0.6954
 8321TIP3    H249159   5.646   5.610   7.871 -0.7194 -0.0493 -1.3656
 8322TIP3   OH249160   0.588   3.772   8.093  0.4349 -0.0242  0.2347
 8322TIP3    H149161   0.634   3.830   8.154 -1.6087  1.2292  0.6854
 8322TIP3    H249162   0.582   3.823   8.012  2.6660 -1.4756 -0.9247
 8323TIP3   OH249163   4.120   6.789   8.154  0.2811 -0.2240  0.3963
 8323TIP3    H149164   4.068   6.861   8.190  0.2832  0.2994 -0.6215
 8323TIP3    H249165   4.208   6.825   8.143  0.2618 -0.3427 -0.2057
 8324TIP3   OH249166   3.504   5.214   1.323  0.8648  0.0970  0.0848
 8324TIP3    H149167   3.488   5.155   1.249 -3.1580 -0.4398  1.1213
 8324TIP3    H249168   3.591   5.191   1.354  0.6949 -3.2214 -1.4153
 8325TIP3   OH249169   5.124   4.548   9.637  0.4207  0.1549 -0.4398
 8325TIP3    H149170   5.166   4.602   9.569  0.0101  0.3573 -0.5374
 8325TIP3    H249171   5.141   4.458   9.609  2.6618  0.1634  0.6624
 8326TIP3   OH249172   3.486   1.802   1.313 -0.3796  0.4421 -0.4677
 8326TIP3    H149173   3.460   1.716   1.345  0.6943  1.1559  2.6692
 8326TIP3    H249174   3.581   1.797   1.305 -0.3802  1.1248 -0.9590
 8327TIP3   OH249175   6.532   2.243   0.672 -0.1978 -0.5600 -0.3638
 8327TIP3    H149176   6.521   2.180   0.601  1.3100 -1.0182 -0.2220
 8327TIP3    H249177   6.586   2.313   0.635  0.5951 -0.7979  0.2916
 8328TIP3   OH249178   0.174   3.661   0.225  0.1870  0.1067  0.1145
 8328TIP3    H149179   0.158   3.755   0.233  2.1993  0.5443 -0.4305
 8328TIP3    H249180   0.188   3.631   0.315 -0.8851  0.2115  0.3322
 8329TIP3   OH249181   5.041   3.068   1.054 -0.1673 -0.2820 -0.4737
 8329TIP3    H149182   4.994   2.985   1.062 -0.3008 -0.2605 -0.9916
 8329TIP3    H249183   5.083   3.080   1.139  1.3072 -1.7563 -0.9415
 8330TIP3   OH249184   3.109   4.874   6.841  0.1338 -0.0237  0.0957
 8330TIP3    H149185   3.039   4.853   6.779 -0.5866  0.1914  0.8124
 8330TIP3    H249186   3.092   4.818   6.917  1.2640 -0.6107 -0.0714
 8331TIP3   OH249187   5.447   6.798   2.228 -0.4139  0.0005  0.1063
 8331TIP3    H149188   5.512   6.729   2.212 -1.1451 -0.3122 -1.7183
 8331TIP3    H249189   5.458   6.858   2.155  0.3140  1.9849  1.7335
 8332TIP3   OH249190   5.106   2.024   1.878  0.1618 -0.1850  0.4928
 8332TIP3    H149191   5.138   2.084   1.947 -0.6715 -0.5800  1.2408
 8332TIP3    H249192   5.081   2.082   1.806  0.6752  0.2669  0.6655
 8333TIP3   OH249193   1.715   6.409   2.121 -0.1790 -0.1167  0.1695
 8333TIP3    H149194   1.701   6.470   2.193  2.7015  0.5247  0.3010
 8333TIP3    H249195   1.750   6.463   2.050 -2.1747 -0.8734 -1.4916
 8334TIP3   OH249196   4.989   6.232   0.170 -0.3011  0.1557 -0.0853
 8334TIP3    H149197   4.991   6.197   0.259  0.3174  0.2686 -0.0490
 8334TIP3    H249198   4.949   6.318   0.179 -0.0857  0.2369  0.1113
 8335TIP3   OH249199   5.028   2.992   0.461  0.1582  1.0273 -0.4652
 8335TIP3    H149200   5.072   3.040   0.531  1.5768  1.6025 -1.6894
 8335TIP3    H249201   5.025   2.901   0.491  0.3281  1.3388  0.5134
 8336TIP3   OH249202   1.807   3.945   6.653  0.2424 -0.2256  0.0653
 8336TIP3    H149203   1.738   4.010   6.638  1.6827  1.0200 -1.8001
 8336TIP3    H249204   1.782   3.901   6.734 -2.1851  0.8484 -0.0038
 8337TIP3   OH249205   5.736   3.657   9.290  0.4289 -0.0081  0.1540
 8337TIP3    H149206   5.829   3.665   9.269  0.5228  1.2672  0.9050
 8337TIP3    H249207   5.727   3.703   9.373 -0.8495 -0.2955  0.1948
 8338TIP3   OH249208   4.001   0.415   8.860 -0.4185  0.0716 -0.4132
 8338TIP3    H149209   3.949   0.495   8.868  0.6425  0.6466  1.3586
 8338TIP3    H249210   3.965   0.370   8.783 -1.8089  1.6676 -0.7512
 8339TIP3   OH249211   2.987   7.299   7.596 -0.1605  0.1299  0.1585
 8339TIP3    H149212   3.041   7.303   7.517  0.1121 -0.3781  0.3193
 8339TIP3    H249213   3.028   7.232   7.650  0.4683  1.4109  1.3492
 8340TIP3   OH249214   2.925   5.820   9.734 -0.3954  0.5772  0.4429
 8340TIP3    H149215   2.865   5.863   9.794 -0.2314 -0.7519  1.6201
 8340TIP3    H249216   2.885   5.832   9.648 -1.2915  1.4503  0.9560
 8341TIP3   OH249217   2.951   7.413   7.258  0.0508 -0.1720  0.2637
 8341TIP3    H149218   2.895   7.485   7.289  1.6531  1.3259 -0.1587
 8341TIP3    H249219   2.901   7.374   7.186  0.0749  2.0875 -1.0999
 8342TIP3   OH249220   5.208   6.106   2.418  0.2008  0.3243 -0.3677
 8342TIP3    H149221   5.149   6.182   2.413  0.6041  0.6133 -0.8874
 8342TIP3    H249222   5.152   6.031   2.400  0.3654  0.7739 -3.3985
 8343TIP3   OH249223   5.914   1.286   0.055  0.3174  0.0656 -1.3516
 8343TIP3    H149224   5.945   1.322  -0.028  0.0778  0.1096 -1.4202
 8343TIP3    H249225   5.969   1.329   0.121 -0.0440  0.6461 -1.4216
 8344TIP3   OH249226   1.306   2.836   8.440  0.8208  0.0647 -0.0051
 8344TIP3    H149227   1.345   2.877   8.363 -0.4243 -0.0281 -0.7063
 8344TIP3    H249228   1.261   2.908   8.485 -0.3326 -0.2656 -0.5814
 8345TIP3   OH249229   3.466   2.712   1.374 -0.3064 -0.0253 -0.0995
 8345TIP3    H149230   3.505   2.798   1.387  0.6039  0.1943 -3.4935
 8345TIP3    H249231   3.535   2.650   1.398 -0.3573  0.1916  0.6387
 8346TIP3   OH249232   1.336   6.602   1.636  0.0529 -0.0919 -0.0337
 8346TIP3    H149233   1.333   6.622   1.730 -1.4687  0.0792 -0.0936
 8346TIP3    H249234   1.412   6.544   1.627  0.1899 -0.1703  1.3167
 8347TIP3   OH249235   3.174   7.007   1.605 -0.4316 -0.5131  0.3399
 8347TIP3    H149236   3.175   6.917   1.570 -1.0021 -1.5212  2.7017
 8347TIP3    H249237   3.082   7.028   1.612 -0.4537 -1.2153  3.1230
 8348TIP3   OH249238   6.018   3.617   9.279  0.5114 -0.4813 -0.0515
 8348TIP3    H149239   6.049   3.544   9.225  2.3593  0.7371 -0.7461
 8348TIP3    H249240   6.021   3.584   9.369  0.1092 -1.6399 -0.4493
 8349TIP3   OH249241   2.980   1.780   1.883  0.1214 -0.2497  0.1381
 8349TIP3    H149242   2.916   1.732   1.832 -0.4906  0.4003  0.2790
 8349TIP3    H249243   3.009   1.719   1.950  1.1470 -1.2177 -1.1222
 8350TIP3   OH249244   1.665   2.917   0.941 -0.0641 -0.2823  0.1272
 8350TIP3    H149245   1.617   2.932   0.860  0.0779  2.3699  0.4407
 8350TIP3    H249246   1.732   2.984   0.943  1.0887 -1.3980  1.6251
 8351TIP3   OH249247   6.489   2.538   1.572 -0.5777  0.0343  0.1875
 8351TIP3    H149248   6.491   2.453   1.616 -2.4949  0.3081  0.9061
 8351TIP3    H249249   6.431   2.591   1.627 -0.8176  1.2573 -1.2030
 8352TIP3   OH249250   7.532   1.134   0.400  0.3102 -0.3040 -0.4769
 8352TIP3    H149251   7.440   1.111   0.413  0.4169 -0.0442  0.9004
 8352TIP3    H249252   7.565   1.150   0.488  1.4984  0.2889 -1.0094
 8353TIP3   OH249253   3.101   3.975   0.994  0.2080  0.4879  0.2472
 8353TIP3    H149254   3.156   3.917   1.048  2.5909  1.6879 -0.7526
 8353TIP3    H249255   3.037   3.916   0.954  2.2458 -1.4782 -0.3822
 8354TIP3   OH249256   0.269   7.127   0.541  0.5675 -0.5466 -0.6107
 8354TIP3    H149257   0.254   7.216   0.510 -0.7768 -0.8395 -0.8638
 8354TIP3    H249258   0.285   7.136   0.635 -1.9017 -0.2128 -0.1672
 8355TIP3   OH249259   4.561   5.892   9.325 -0.1821 -0.2637  0.0819
 8355TIP3    H149260   4.643   5.845   9.336  0.5170  0.5528 -1.3323
 8355TIP3    H249261   4.534   5.872   9.235 -0.0258  1.7206 -0.4667
 8356TIP3   OH249262   4.870   3.994   2.557 -0.4457 -0.3675 -0.2410
 8356TIP3    H149263   4.842   4.005   2.648  0.2197 -0.3082 -0.0407
 8356TIP3    H249264   4.958   3.957   2.563  1.0690  2.8743 -0.7831
 8357TIP3   OH249265   4.330   4.657   8.834 -0.3999  0.0548 -0.2148
 8357TIP3    H149266   4.418   4.620   8.826 -0.1714  0.9348 -2.4504
 8357TIP3    H249267   4.343   4.751   8.834 -1.2459  0.2098  1.4195
 8358TIP3   OH249268   7.299   5.903   9.861  0.2037 -0.2854 -0.2223
 8358TIP3    H149269   7.208   5.884   9.839 -0.2005  0.6028  0.6131
 8358TIP3    H249270   7.348   5.827   9.829 -0.5810  0.0129 -2.3061
 8359TIP3   OH249271   0.707   4.478   0.538 -0.0619 -0.9991 -0.4020
 8359TIP3    H149272   0.661   4.434   0.467  0.8878 -0.4733 -1.3771
 8359TIP3    H249273   0.638   4.515   0.593 -0.8109 -1.5310 -0.9737
 8360TIP3   OH249274   1.999   2.779   0.284 -0.1772  0.3106  0.3365
 8360TIP3    H149275   2.059   2.854   0.287  0.2649  0.0161 -0.8208
 8360TIP3    H249276   2.049   2.706   0.321  0.1887  0.0641 -0.6320
 8361TIP3   OH249277   5.592   7.258   9.564 -0.0438  0.4195 -0.3096
 8361TIP3    H149278   5.684   7.230   9.569 -0.3230 -0.6462 -0.7759
 8361TIP3    H249279   5.573   7.260   9.470 -0.5217  0.5536 -0.2105
 8362TIP3   OH249280   7.429   7.021   0.340  0.1151  0.0170 -0.3554
 8362TIP3    H149281   7.442   7.111   0.311 -0.7545  0.6107  1.0477
 8362TIP3    H249282   7.490   7.010   0.413 -0.8670 -0.0309  0.4706
 8363TIP3   OH249283   3.905   1.412   0.701  0.4993 -0.2875 -0.0547
 8363TIP3    H149284   3.941   1.331   0.665  1.2995  0.0813 -0.1100
 8363TIP3    H249285   3.819   1.420   0.660  0.0260 -1.5568  0.6217
 8364TIP3   OH249286   4.499   4.211   8.618  0.2794 -0.1498 -0.8436
 8364TIP3    H149287   4.411   4.229   8.584  0.6688 -0.1373 -1.9077
 8364TIP3    H249288   4.546   4.294   8.609  0.1081  0.1499  0.7463
 8365TIP3   OH249289   1.388   1.507   1.353  0.1348  0.4593  0.0196
 8365TIP3    H149290   1.385   1.511   1.449  1.1473 -0.6976  0.1378
 8365TIP3    H249291   1.320   1.444   1.330  0.3511  0.2190  0.0349
 8366TIP3   OH249292   6.872   4.707   0.546 -0.3049  0.5430  0.3258
 8366TIP3    H149293   6.959   4.711   0.506 -0.6397 -0.0720 -0.4899
 8366TIP3    H249294   6.889   4.695   0.640  0.5391 -1.8796 -0.0517
 8367TIP3   OH249295   2.357   1.693   9.631 -0.8356  0.3908  0.0695
 8367TIP3    H149296   2.400   1.608   9.622 -0.3843  0.6911 -0.7374
 8367TIP3    H249297   2.271   1.673   9.669 -0.8573 -0.4673 -0.4057
 8368TIP3   OH249298   4.486   4.031   1.890 -0.1517 -0.1262 -0.1413
 8368TIP3    H149299   4.445   3.945   1.889 -0.7818  0.1495  0.3870
 8368TIP3    H249300   4.571   4.017   1.932 -0.5322 -0.3793  0.5578
 8369TIP3   OH249301   0.626   7.671   7.648  0.1759  0.2484 -0.2561
 8369TIP3    H149302   0.548   7.617   7.662  1.0091 -0.6379  1.2330
 8369TIP3    H249303   0.695   7.626   7.697  1.2576  1.8582 -0.2457
 8370TIP3   OH249304   2.824   4.002   7.435 -0.3710 -0.4689 -0.1382
 8370TIP3    H149305   2.891   4.018   7.369 -0.2821 -0.5157 -0.0591
 8370TIP3    H249306   2.746   3.978   7.384 -0.7886  1.1579 -0.3042
 8371TIP3   OH249307   2.544   4.858   2.730 -0.5394 -0.2677  0.0025
 8371TIP3    H149308   2.541   4.772   2.689 -1.4732 -0.0038 -0.5425
 8371TIP3    H249309   2.459   4.897   2.708 -0.5247  0.4039  1.0816
 8372TIP3   OH249310   4.093   0.686   1.880 -0.3010  0.2159  0.3350
 8372TIP3    H149311   4.019   0.700   1.939  0.2142  0.8866  0.8342
 8372TIP3    H249312   4.137   0.608   1.914 -0.8286 -0.2469 -0.0257
 8373TIP3   OH249313   6.497   6.683   2.092  0.5352  0.3019 -0.0074
 8373TIP3    H149314   6.550   6.631   2.033 -1.3767 -0.2829 -1.3087
 8373TIP3    H249315   6.492   6.631   2.173 -0.9498 -1.4138 -1.1213
 8374TIP3   OH249316   3.508   0.935   0.348 -0.6268 -0.0098  0.3921
 8374TIP3    H149317   3.597   0.899   0.339 -0.0576  1.3389  0.4723
 8374TIP3    H249318   3.477   0.899   0.431 -0.0683 -0.3212  0.4770
 8375TIP3   OH249319   2.190   0.947   0.746  0.1479 -0.3809 -0.2295
 8375TIP3    H149320   2.280   0.979   0.756  0.9429 -2.2780 -0.7742
 8375TIP3    H249321   2.185   0.916   0.656 -0.2343 -2.5211  0.4555
 8376TIP3   OH249322   5.821   4.200   8.919  0.2060 -0.3108  0.5988
 8376TIP3    H149323   5.900   4.146   8.924  1.1032  0.7338 -1.0975
 8376TIP3    H249324   5.793   4.191   8.828  0.5428  2.2229  0.1776
 8377TIP3   OH249325   4.719   2.755   0.669 -0.6570  0.5316  0.0882
 8377TIP3    H149326   4.787   2.714   0.723 -0.7617  0.4531  0.1618
 8377TIP3    H249327   4.661   2.682   0.644 -1.3933  0.7716  1.0284
 8378TIP3   OH249328   5.516   4.374   2.082  0.2191 -0.2969  0.2557
 8378TIP3    H149329   5.539   4.320   2.006  0.4270 -0.3263  0.3387
 8378TIP3    H249330   5.537   4.463   2.054  1.6775 -0.4463  0.7850
 8379TIP3   OH249331   5.633   2.317   9.398  0.6815  0.2314  0.3549
 8379TIP3    H149332   5.694   2.268   9.452  0.0357 -1.0426 -0.0334
 8379TIP3    H249333   5.661   2.300   9.308  0.2335  0.2812  0.2018
 8380TIP3   OH249334   3.164   7.288   9.478  0.4018 -0.0968 -0.2684
 8380TIP3    H149335   3.213   7.369   9.494 -0.0444  0.1782 -0.2787
 8380TIP3    H249336   3.205   7.223   9.535  0.5405  0.2226 -0.0033
 8381TIP3   OH249337   6.206   2.851   9.953  0.1979 -0.7305 -0.2545
 8381TIP3    H149338   6.250   2.864  10.037 -0.8103  0.3634  0.1388
 8381TIP3    H249339   6.242   2.920   9.897  0.5478 -1.1871 -0.6028
 8382TIP3   OH249340   0.526   3.850   8.562  0.0312  0.3077 -0.0710
 8382TIP3    H149341   0.537   3.937   8.600  0.5265 -0.7946  2.4746
 8382TIP3    H249342   0.446   3.816   8.602  0.8106 -1.0889  0.3614
 8383TIP3   OH249343   0.374   2.715   1.707  0.2157 -0.3103  0.4632
 8383TIP3    H149344   0.318   2.765   1.766 -0.3863 -2.2648  1.6349
 8383TIP3    H249345   0.361   2.624   1.732  0.7802 -1.1606 -1.9933
 8384TIP3   OH249346   7.580   1.910   0.963  0.2241 -0.0801  0.0875
 8384TIP3    H149347   7.581   2.002   0.934  0.5122  0.4165  1.5630
 8384TIP3    H249348   7.497   1.875   0.930  0.3982  0.5072 -1.0411
 8385TIP3   OH249349   6.355   5.184   8.953 -0.1052 -0.2552 -0.4170
 8385TIP3    H149350   6.341   5.099   8.911  0.6683 -0.0268 -1.1837
 8385TIP3    H249351   6.282   5.238   8.924 -0.4819 -0.5983 -0.1047
 8386TIP3   OH249352   0.565   7.134   9.645 -0.1312  0.9944 -0.1001
 8386TIP3    H149353   0.472   7.118   9.663 -0.3291  1.6203 -0.5321
 8386TIP3    H249354   0.579   7.096   9.558  0.7269 -1.6737  1.0976
 8387TIP3   OH249355   3.445   5.673   6.223 -0.7997  0.3334 -0.8298
 8387TIP3    H149356   3.409   5.586   6.205 -0.7291  0.4162 -1.3903
 8387TIP3    H249357   3.383   5.712   6.285 -0.9602 -0.0240 -0.7620
 8388TIP3   OH249358   2.478   2.259   7.496 -0.1684 -0.6166  0.5292
 8388TIP3    H149359   2.397   2.293   7.459 -0.5660 -1.1116  0.9339
 8388TIP3    H249360   2.533   2.336   7.508 -0.5153 -0.3001  0.0958
 8389TIP3   OH249361   0.748   4.450   9.255  0.2018 -0.3515 -0.2531
 8389TIP3    H149362   0.778   4.369   9.295 -0.1207 -0.3897 -0.0826
 8389TIP3    H249363   0.737   4.511   9.328 -2.2201 -0.9852  0.0068
 8390TIP3   OH249364   6.389   0.411   0.939 -0.1760 -0.0232 -0.5114
 8390TIP3    H149365   6.410   0.443   0.851 -0.3790 -1.3590 -1.0648
 8390TIP3    H249366   6.316   0.466   0.968  1.7075  2.3945  0.0484
 8391TIP3   OH249367   6.152   5.299   8.791 -0.4725 -0.3382 -0.4041
 8391TIP3    H149368   6.120   5.220   8.748 -0.6932 -0.1238 -0.6392
 8391TIP3    H249369   6.206   5.342   8.724 -0.7303 -0.0567 -0.4313
 8392TIP3   OH249370   6.589   6.560   1.117 -0.2826  0.4810 -0.7127
 8392TIP3    H149371   6.499   6.529   1.119 -0.3013  0.5360 -0.7260
 8392TIP3    H249372   6.587   6.644   1.163 -0.7857  1.9496 -3.2191
 8393TIP3   OH249373   3.009   1.262   0.427 -0.2362  0.1571  0.4407
 8393TIP3    H149374   3.050   1.278   0.342 -0.0841  1.6766  0.7785
 8393TIP3    H249375   2.945   1.333   0.437 -0.3244 -0.0553  1.5453
 8394TIP3   OH249376   7.011   6.853   9.589 -0.1564  0.4263  0.0455
 8394TIP3    H149377   7.049   6.858   9.501 -1.0527  1.0575 -0.3184
 8394TIP3    H249378   6.985   6.943   9.610  0.1174  0.2962  0.9954
 8395TIP3   OH249379   4.023   2.788   0.653  0.0665 -0.1849 -0.7527
 8395TIP3    H149380   4.073   2.739   0.718  1.4212 -0.2935 -1.8297
 8395TIP3    H249381   3.946   2.820   0.701 -0.2762 -2.3640  0.2511
 8396TIP3   OH249382   6.754   5.925   8.898  0.2925 -0.6656  0.4723
 8396TIP3    H149383   6.829   5.983   8.904  1.1020 -1.6986  0.5958
 8396TIP3    H249384   6.779   5.847   8.947 -0.5979 -1.3035 -0.0430
 8397TIP3   OH249385   4.263   2.016   9.055  0.2874  0.4611 -0.9503
 8397TIP3    H149386   4.320   2.031   9.131 -0.6507 -1.8703  0.2996
 8397TIP3    H249387   4.318   1.968   8.993  0.4926  0.6869 -0.9469
 8398TIP3   OH249388   0.922   7.131   6.777  0.2096  0.2266  0.0264
 8398TIP3    H149389   0.988   7.185   6.734  0.6896  0.9534  1.6115
 8398TIP3    H249390   0.899   7.065   6.711  1.7390  0.5806 -0.9221
 8399TIP3   OH249391   7.597   7.083   1.086  0.6609  0.3655 -0.2284
 8399TIP3    H149392   7.510   7.118   1.068  0.5075  0.4782  0.6742
 8399TIP3    H249393   7.648   7.106   1.008 -0.0669  0.4491 -0.6957
 8400TIP3   OH249394   3.542   3.729   6.729 -0.4986  0.0879  0.2823
 8400TIP3    H149395   3.572   3.661   6.789  1.5836  0.2610 -0.4608
 8400TIP3    H249396   3.491   3.683   6.662  1.5106 -0.9338 -0.6315
 8401TIP3   OH249397   0.692   6.728   0.061  0.1894 -0.0275  0.0146
 8401TIP3    H149398   0.782   6.709   0.034 -0.2399 -0.0080 -1.5291
 8401TIP3    H249399   0.650   6.762  -0.018 -1.7315 -1.8731  0.1656
 8402TIP3   OH249400   6.256   1.794   8.664 -0.3867  0.9689  0.2149
 8402TIP3    H149401   6.248   1.869   8.605  0.7631 -0.3327 -1.6917
 8402TIP3    H249402   6.274   1.833   8.750 -1.7844  2.9088 -0.3059
 8403TIP3   OH249403   6.477   0.869   1.034 -0.2704 -0.1894 -0.4485
 8403TIP3    H149404   6.424   0.789   1.044 -0.7666  0.0200 -1.2790
 8403TIP3    H249405   6.433   0.918   0.964 -0.2223  1.0162  0.3311
 8404TIP3   OH249406   2.904   2.301   8.298 -0.3381  0.0752  0.0128
 8404TIP3    H149407   2.832   2.246   8.270  0.0020  1.0900 -3.4069
 8404TIP3    H249408   2.863   2.378   8.336 -0.8854 -1.0107  1.6964
 8405TIP3   OH249409   6.210   2.367   1.770 -0.7205  0.0460  0.1326
 8405TIP3    H149410   6.149   2.389   1.840  0.8498  3.5398  0.6009
 8405TIP3    H249411   6.293   2.409   1.795  0.5514 -0.4815 -2.7140
 8406TIP3   OH249412   2.416   0.124   1.025  0.4463  0.3314 -0.2233
 8406TIP3    H149413   2.465   0.089   1.099 -1.4842 -0.7822  0.5941
 8406TIP3    H249414   2.469   0.103   0.948  1.2031 -0.9058  0.6084
 8407TIP3   OH249415   2.575   6.864   9.598 -0.0768 -0.0390 -0.0747
 8407TIP3    H149416   2.597   6.798   9.532  1.6001 -0.9632  1.3178
 8407TIP3    H249417   2.652   6.868   9.654 -0.2091  2.9538  0.0820
 8408TIP3   OH249418   6.570   7.672   7.804 -0.1571 -0.4423  0.5931
 8408TIP3    H149419   6.661   7.649   7.783 -0.6523 -1.0514 -1.0082
 8408TIP3    H249420   6.539   7.722   7.729 -1.1057 -0.0903  1.2004
 8409TIP3   OH249421   2.554   0.735   1.071 -0.3323 -0.5267 -0.1705
 8409TIP3    H149422   2.601   0.668   1.021 -0.1468 -0.7551  0.3024
 8409TIP3    H249423   2.584   0.818   1.033 -0.1585 -0.6948 -0.4040
 8410TIP3   OH249424   4.109   1.394   0.142 -0.5215  0.0487 -0.3566
 8410TIP3    H149425   4.204   1.401   0.143 -0.4573 -0.4121  1.5663
 8410TIP3    H249426   4.081   1.437   0.222 -1.9667  0.3534 -0.9908
 8411TIP3   OH249427   1.106   3.099   8.237 -0.0082 -0.4858 -0.0887
 8411TIP3    H149428   1.111   3.194   8.250 -0.4478 -0.5256  0.4440
 8411TIP3    H249429   1.195   3.073   8.214  0.4747 -0.1524  1.2888
 8412TIP3   OH249430   0.100   0.615   1.962 -0.3035 -0.2759 -0.5565
 8412TIP3    H149431   0.135   0.527   1.946  0.5857 -0.0698  0.1839
 8412TIP3    H249432   0.177   0.671   1.966 -0.4825 -0.0472  2.7022
 8413TIP3   OH249433   0.593   0.156   0.861  0.1545  0.0267  0.3870
 8413TIP3    H149434   0.597   0.063   0.881  0.8199  0.1798  1.0372
 8413TIP3    H249435   0.645   0.166   0.781  0.6318 -0.0741  0.6799
 8414TIP3   OH249436   2.615   5.686   0.713  0.9170 -0.0348 -0.8824
 8414TIP3    H149437   2.591   5.744   0.785 -0.7913 -1.7491  0.0329
 8414TIP3    H249438   2.654   5.609   0.755  0.7332 -0.6744 -1.8381
 8415TIP3   OH249439   3.484   7.249   2.582 -0.3617 -0.0882 -0.6916
 8415TIP3    H149440   3.462   7.167   2.625 -2.2079 -0.0887 -1.5420
 8415TIP3    H249441   3.403   7.276   2.539  0.2119  2.1569 -0.4808
 8416TIP3   OH249442   4.536   0.304   6.720  0.4959 -0.2149  0.3422
 8416TIP3    H149443   4.527   0.300   6.815  0.8893  1.7509  0.4953
 8416TIP3    H249444   4.625   0.337   6.705  0.8176 -1.4540 -0.7531
 8417TIP3   OH249445   4.540   0.832   0.257 -0.0503  0.0129 -0.2373
 8417TIP3    H149446   4.474   0.891   0.220  1.1842  0.8561 -1.2093
 8417TIP3    H249447   4.622   0.881   0.249  0.9123 -1.5672 -0.4254
 8418TIP3   OH249448   3.908   3.975   0.459 -0.2003 -0.2737 -0.1803
 8418TIP3    H149449   3.856   4.042   0.414 -0.3628 -0.3403 -0.0956
 8418TIP3    H249450   3.988   4.021   0.486 -0.8153  0.2076  0.9156
 8419TIP3   OH249451   5.645   6.654   0.391  0.5332 -0.8977 -0.6074
 8419TIP3    H149452   5.642   6.709   0.469 -0.2031 -1.1935 -0.4153
 8419TIP3    H249453   5.571   6.593   0.402  0.9665 -1.5250 -1.0979
 8420TIP3   OH249454   1.272   3.309   8.440  0.1454 -0.1764 -0.1111
 8420TIP3    H149455   1.210   3.307   8.367 -0.9093 -1.2343  0.7773
 8420TIP3    H249456   1.236   3.375   8.500  0.7116  0.2922 -0.2764
 8421TIP3   OH249457   6.243   0.902   7.880  0.0929 -0.7800  0.2214
 8421TIP3    H149458   6.267   0.846   7.806  3.7967 -0.9769  1.3555
 8421TIP3    H249459   6.315   0.965   7.885 -2.2780  2.0331  1.0562
 8422TIP3   OH249460   2.974   1.529   2.061 -0.2262 -0.3171 -0.1055
 8422TIP3    H149461   2.881   1.548   2.049 -0.5145  0.5214  2.6975
 8422TIP3    H249462   2.976   1.464   2.131  1.2669 -2.4081 -1.9285
 8423TIP3   OH249463   0.734   4.955   9.932  0.1470  0.0686 -0.2770
 8423TIP3    H149464   0.662   4.990   9.880  0.7927 -0.9367 -1.9513
 8423TIP3    H249465   0.775   5.032   9.971 -2.2988  0.5958  1.4516
 8424TIP3   OH249466   4.183   4.188   2.791 -0.0425  0.0345  0.1282
 8424TIP3    H149467   4.105   4.223   2.749 -0.5368 -1.6138 -0.3909
 8424TIP3    H249468   4.153   4.109   2.837  1.6416 -1.8871 -1.8540
 8425TIP3   OH249469   6.189   0.301   7.539 -0.3483 -0.3574  0.0432
 8425TIP3    H149470   6.164   0.214   7.506 -0.2414 -0.4818  0.2900
 8425TIP3    H249471   6.114   0.356   7.519 -0.5431 -0.5758  0.1603
 8426TIP3   OH249472   0.293   5.637   9.594  0.3749  0.5422  0.4371
 8426TIP3    H149473   0.306   5.547   9.624 -1.3762  0.5047  1.1755
 8426TIP3    H249474   0.341   5.641   9.511  1.5494 -0.6730  1.0124
 8427TIP3   OH249475   2.267   4.413   0.795  0.2678 -0.1389 -0.0608
 8427TIP3    H149476   2.313   4.332   0.775  1.7355 -0.3543  3.4216
 8427TIP3    H249477   2.179   4.386   0.819  0.4664 -0.6059  0.1528
 8428TIP3   OH249478   0.973   4.572   0.026 -0.4556 -0.0370  0.1134
 8428TIP3    H149479   1.010   4.646  -0.021  0.6372 -1.9137 -2.2412
 8428TIP3    H249480   1.048   4.513   0.039 -1.8117 -2.2338 -1.2698
 8429TIP3   OH249481   3.950   6.379   0.884 -0.3476 -0.1056  0.2250
 8429TIP3    H149482   3.955   6.373   0.979  2.8560 -0.2439  0.1395
 8429TIP3    H249483   3.949   6.473   0.865  0.2779 -0.0709  0.3646
 8430TIP3   OH249484   4.828   1.842   9.067 -0.0580  0.3447 -0.2579
 8430TIP3    H149485   4.874   1.807   8.990  0.3727  0.0617  0.1258
 8430TIP3    H249486   4.743   1.797   9.065 -0.7909  1.6763 -1.5895
 8431TIP3   OH249487   7.428   1.311   0.883  0.0336  0.7632  0.2561
 8431TIP3    H149488   7.457   1.381   0.942  1.7657  0.5972 -0.3568
 8431TIP3    H249489   7.335   1.299   0.905  0.5485  0.8433  2.8106
 8432TIP3   OH249490   5.459   2.488   1.592  0.1709 -0.6591 -0.1492
 8432TIP3    H149491   5.443   2.444   1.676  1.9495 -1.5048 -0.2175
 8432TIP3    H249492   5.552   2.476   1.576 -0.0117  0.0557 -1.9571
 8433TIP3   OH249493   3.608   4.366   1.083  0.2656 -0.2941 -0.1154
 8433TIP3    H149494   3.613   4.442   1.141 -1.1438  2.6341 -3.4520
 8433TIP3    H249495   3.525   4.324   1.106  0.6204 -0.3562  1.1573
 8434TIP3   OH249496   6.098   5.169   9.168  0.3256 -0.3062 -0.2705
 8434TIP3    H149497   6.058   5.179   9.082  1.7541 -0.5906 -0.9960
 8434TIP3    H249498   6.092   5.076   9.187  0.0052 -0.2427 -0.0448
 8435TIP3   OH249499   2.806   7.033   9.335 -0.5121  0.2786 -0.4472
 8435TIP3    H149500   2.834   7.061   9.422 -0.4511  1.1182 -0.7270
 8435TIP3    H249501   2.773   6.944   9.347  3.8021 -1.5495 -0.3445
 8436TIP3   OH249502   5.613   6.896   7.942  0.7119 -0.3914 -0.1611
 8436TIP3    H149503   5.643   6.975   7.988  1.2227 -2.1247  2.7506
 8436TIP3    H249504   5.518   6.908   7.934  0.7326  0.3749  0.6016
 8437TIP3   OH249505   0.737   4.435   8.819  0.1013  0.4118  0.2077
 8437TIP3    H149506   0.745   4.523   8.783  1.5759  0.7706  1.2953
 8437TIP3    H249507   0.665   4.441   8.882  0.0818  0.8045  0.1488
 8438TIP3   OH249508   2.544   7.011   2.765 -0.0245 -0.2208  0.3845
 8438TIP3    H149509   2.531   7.097   2.803  1.0355 -0.2095  0.7474
 8438TIP3    H249510   2.589   6.961   2.833  0.1711 -0.7842 -0.1430
 8439TIP3   OH249511   1.335   4.119   8.678 -0.1276  0.4526 -0.1890
 8439TIP3    H149512   1.346   4.027   8.702 -1.3692 -0.1899 -1.8766
 8439TIP3    H249513   1.404   4.135   8.613  1.2137  1.2812  1.3407
 8440TIP3   OH249514   2.289   5.072   9.659 -0.2883  0.1981  0.0838
 8440TIP3    H149515   2.372   5.072   9.612 -0.0646  2.9760  0.3469
 8440TIP3    H249516   2.313   5.077   9.752 -0.7233  0.9410  0.1667
 8441TIP3   OH249517   4.880   2.519   0.490  0.0351 -0.1245  0.1557
 8441TIP3    H149518   4.913   2.448   0.544  2.0620 -1.0266 -2.0894
 8441TIP3    H249519   4.784   2.512   0.497  0.1809 -2.6938  0.4990
 8442TIP3   OH249520   7.103   1.627   1.949  0.2103 -0.1364 -0.1302
 8442TIP3    H149521   7.044   1.702   1.962 -0.0655 -0.5499  1.1616
 8442TIP3    H249522   7.157   1.625   2.027  2.7311  0.8530 -1.7267
 8443TIP3   OH249523   4.552   0.299   1.324 -0.5161 -0.2513  0.5593
 8443TIP3    H149524   4.610   0.330   1.394  0.1230 -0.1531 -0.0040
 8443TIP3    H249525   4.538   0.376   1.269 -2.0843  0.0117  1.2876
 8444TIP3   OH249526   2.137   4.017   0.270 -0.7302 -0.8215 -0.7378
 8444TIP3    H149527   2.094   4.083   0.215 -1.4453  1.0210  1.8435
 8444TIP3    H249528   2.230   4.037   0.263 -0.9779  1.0484  0.5680
 8445TIP3   OH249529   6.546   0.042   9.748  0.0723 -0.7428  0.0119
 8445TIP3    H149530   6.523   0.125   9.788  0.4138 -0.7613  0.2518
 8445TIP3    H249531   6.479  -0.019   9.778  0.8768 -0.9954  1.3882
 8446TIP3   OH249532   2.709   7.275   2.078  0.1146  0.3076 -0.0776
 8446TIP3    H149533   2.625   7.295   2.120 -0.6363  0.1184 -1.4607
 8446TIP3    H249534   2.754   7.360   2.076  0.6244  0.1530  2.0037
 8447TIP3   OH249535   5.017   0.101   8.903 -0.5321 -0.4185 -0.2084
 8447TIP3    H149536   5.096   0.057   8.936 -0.0297  1.8449  1.9885
 8447TIP3    H249537   4.949   0.034   8.905  1.1492 -2.3020 -1.6601
 8448TIP3   OH249538   0.203   1.221   8.352 -0.1307 -0.0420 -0.4206
 8448TIP3    H149539   0.265   1.294   8.354 -0.2800  0.0738  0.0836
 8448TIP3    H249540   0.183   1.209   8.259 -0.0617  0.5215 -0.5103
 8449TIP3   OH249541   6.110   6.832   9.860 -0.3162 -0.4275 -0.4483
 8449TIP3    H149542   6.026   6.846   9.904  0.1014 -2.1686  1.0051
 8449TIP3    H249543   6.100   6.747   9.817  0.2593 -0.0281 -1.3890
 8450TIP3   OH249544   3.768   0.104   1.234 -0.2690  0.1930 -0.1030
 8450TIP3    H149545   3.761   0.199   1.248  1.3440  0.0608  2.0017
 8450TIP3    H249546   3.851   0.092   1.188 -0.2280 -0.2238  0.0721
 8451TIP3   OH249547   0.235   3.971   1.575  0.0369 -0.0732  0.1348
 8451TIP3    H149548   0.255   4.063   1.564  0.9510 -0.2752  0.0284
 8451TIP3    H249549   0.259   3.952   1.666 -1.4829  0.1088  0.6025
 8452TIP3   OH249550   6.590   6.226   9.738 -0.0818 -0.4343  0.7303
 8452TIP3    H149551   6.587   6.163   9.811  2.7218  0.0060  1.3492
 8452TIP3    H249552   6.623   6.306   9.778  1.3123 -0.1103 -0.9792
 8453TIP3   OH249553   1.587   7.113   1.877 -0.1436  0.2232  0.1021
 8453TIP3    H149554   1.665   7.108   1.821 -1.3806 -1.6206 -1.6216
 8453TIP3    H249555   1.619   7.092   1.964  1.2435 -0.8590 -0.6182
 8454TIP3   OH249556   3.893   4.791   1.137 -0.3123  0.2201  0.3806
 8454TIP3    H149557   3.903   4.700   1.111 -0.0387  0.5983 -0.8954
 8454TIP3    H249558   3.813   4.792   1.190  0.4676 -0.9899  1.6637
 8455TIP3   OH249559   0.776   5.560   8.726  0.0972 -0.1089  0.5948
 8455TIP3    H149560   0.728   5.637   8.695  0.0876 -1.2268 -2.5362
 8455TIP3    H249561   0.708   5.494   8.739  0.4592 -1.1456 -2.0896
 8456TIP3   OH249562   5.884   0.256   8.491  0.5120 -0.2238  0.4768
 8456TIP3    H149563   5.855   0.311   8.419 -3.0399  0.1597  2.0030
 8456TIP3    H249564   5.921   0.178   8.448 -1.0200  0.1937 -1.7652
 8457TIP3   OH249565   2.299   7.347   9.188  0.3838 -0.1987  0.3340
 8457TIP3    H149566   2.211   7.329   9.155 -0.1084 -1.0965  2.0184
 8457TIP3    H249567   2.335   7.261   9.211  1.9369  0.0946 -0.8021
 8458TIP3   OH249568   0.321   0.680   2.973  0.4200 -0.3233 -0.0372
 8458TIP3    H149569   0.266   0.685   3.051  0.3949  1.1918 -0.1272
 8458TIP3    H249570   0.291   0.601   2.928 -0.3062 -0.6224  0.9383
 8459TIP3   OH249571   7.295   6.965   1.624  0.6392  0.5083  0.0759
 8459TIP3    H149572   7.321   6.963   1.531  1.6974 -1.0439  0.3660
 8459TIP3    H249573   7.271   6.875   1.644  0.5471  0.8006  1.3445
 8460TIP3   OH249574   2.367   7.550   0.067 -0.0872  0.4210 -0.0658
 8460TIP3    H149575   2.391   7.617   0.002 -0.9904  0.4173 -0.4228
 8460TIP3    H249576   2.409   7.579   0.148  0.3623  0.8804 -0.4535
 8461TIP3   OH249577   3.213   5.265   8.639  0.0148 -0.2637  0.0027
 8461TIP3    H149578   3.125   5.233   8.659  0.2663 -2.1059 -1.4389
 8461TIP3    H249579   3.199   5.344   8.586 -0.7047  0.5596  1.3822
 8462TIP3   OH249580   6.375   5.717   0.712  0.4533 -0.3317  0.2254
 8462TIP3    H149581   6.447   5.715   0.775  0.6920  0.7688  0.0037
 8462TIP3    H249582   6.385   5.800   0.666 -0.4290 -0.5750 -0.4383
 8463TIP3   OH249583   2.722   1.047   8.520  0.0628 -0.1403 -0.2526
 8463TIP3    H149584   2.673   1.018   8.443  0.8576 -1.7654 -0.2005
 8463TIP3    H249585   2.666   1.112   8.562 -1.3075 -0.7578 -1.0621
 8464TIP3   OH249586   0.549   5.459   8.878  0.1210  0.0656  0.4308
 8464TIP3    H149587   0.489   5.500   8.815 -0.6506  0.8595  1.6504
 8464TIP3    H249588   0.571   5.529   8.939  2.8706  0.0057 -0.3241
 8465TIP3   OH249589   7.174   5.320   9.110 -0.0051  0.2155 -0.1300
 8465TIP3    H149590   7.208   5.262   9.178 -0.9511  0.5461  0.6495
 8465TIP3    H249591   7.150   5.401   9.156  1.2037  1.2280 -1.1764
 8466TIP3   OH249592   0.813   6.924   9.606  0.2393  0.2634 -0.4813
 8466TIP3    H149593   0.862   6.846   9.583  0.8871  1.2394 -2.7011
 8466TIP3    H249594   0.880   6.992   9.617 -0.4004  0.8586 -0.1627
 8467TIP3   OH249595   2.735   4.032   9.960  0.0728  0.0406 -0.5779
 8467TIP3    H149596   2.767   4.020   9.870 -1.0480 -0.0622 -0.9775
 8467TIP3    H249597   2.683   4.112   9.957 -0.6469 -0.4074 -0.2147
 8468TIP3   OH249598   2.013   1.201   9.319 -0.4178 -0.2632 -0.4129
 8468TIP3    H149599   2.072   1.138   9.279 -0.2512 -0.2050 -0.2629
 8468TIP3    H249600   1.982   1.157   9.398  0.7072  0.3259  0.3834
 8469TIP3   OH249601   6.493   5.124   1.369 -0.5068  0.2510  0.0700
 8469TIP3    H149602   6.586   5.117   1.346 -0.2491  0.1327  1.1089
 8469TIP3    H249603   6.492   5.126   1.465 -1.6759 -1.1871  0.1151
 8470TIP3   OH249604   0.080   3.660   9.362 -0.1442 -0.0257  0.2003
 8470TIP3    H149605   0.110   3.608   9.288  1.1199 -2.7835  2.4349
 8470TIP3    H249606  -0.016   3.658   9.356 -0.0741 -1.0416 -0.8297
 8471TIP3   OH249607   5.254   5.360   0.017 -0.2064  0.1542 -0.2842
 8471TIP3    H149608   5.171   5.318   0.038 -0.3651  0.6299  0.0439
 8471TIP3    H249609   5.238   5.406  -0.066 -0.2777  0.2688 -0.2068
 8472TIP3   OH249610   4.773   3.579   1.434  0.6340 -0.4003  0.0724
 8472TIP3    H149611   4.827   3.531   1.372 -0.2698 -3.5204  1.4704
 8472TIP3    H249612   4.827   3.586   1.513  0.6998  0.8539 -0.0613
 8473TIP3   OH249613   1.797   5.154   0.481  0.0786  0.2403 -0.2478
 8473TIP3    H149614   1.739   5.126   0.410  0.3988  0.3910 -0.5711
 8473TIP3    H249615   1.798   5.079   0.542  0.3392 -0.1570 -0.7365
 8474TIP3   OH249616   3.225   1.158   3.055  0.4464 -0.0100  0.0135
 8474TIP3    H149617   3.133   1.133   3.061 -0.0602  1.7960  0.4720
 8474TIP3    H249618   3.228   1.247   3.090  2.4375 -0.1649  0.3504
 8475TIP3   OH249619   0.568   3.289   0.534  0.0477 -0.0440 -0.1644
 8475TIP3    H149620   0.475   3.313   0.538 -0.2994 -1.3249 -0.1710
 8475TIP3    H249621   0.589   3.292   0.441  0.2711  1.1250 -0.0926
 8476TIP3   OH249622   3.978   0.599   0.441 -0.4594  0.4188  0.3919
 8476TIP3    H149623   4.026   0.527   0.483 -0.7319  0.7097  1.2105
 8476TIP3    H249624   3.890   0.594   0.476 -0.5921  0.9110  0.1474
 8477TIP3   OH249625   7.350   3.797   7.847  0.2932  0.1165  0.3105
 8477TIP3    H149626   7.319   3.849   7.772 -0.1167 -0.4355  0.0942
 8477TIP3    H249627   7.351   3.707   7.815 -0.2037 -0.1673  1.0730
 8478TIP3   OH249628   4.479   0.933   0.768 -0.0425 -0.3017 -0.0777
 8478TIP3    H149629   4.454   0.954   0.858  0.5055  0.1063 -0.0149
 8478TIP3    H249630   4.543   0.862   0.776  0.8109  0.4544 -0.0742
 8479TIP3   OH249631   1.289   1.681   7.690 -0.7949 -0.2358  0.3304
 8479TIP3    H149632   1.334   1.737   7.753 -0.8939 -1.3195  1.4094
 8479TIP3    H249633   1.211   1.651   7.736 -0.9357 -0.9587 -0.3499
 8480TIP3   OH249634   1.323   2.237   7.606 -0.0022 -0.2370  0.1773
 8480TIP3    H149635   1.304   2.239   7.700  0.0721 -0.3975  0.1969
 8480TIP3    H249636   1.406   2.190   7.600 -0.2254 -0.6068 -0.0059
 8481TIP3   OH249637   3.675   0.170   6.758 -0.1024 -0.0258 -0.4425
 8481TIP3    H149638   3.591   0.127   6.770  1.0496 -2.8594 -1.7448
 8481TIP3    H249639   3.725   0.147   6.837 -0.4369  1.5015  0.2459
 8482TIP3   OH249640   6.628   0.735   1.582  0.2185 -0.3225  0.5260
 8482TIP3    H149641   6.622   0.749   1.487  2.0844 -0.0311  0.4129
 8482TIP3    H249642   6.601   0.819   1.620 -0.7633 -0.5125  0.2872
 8483TIP3   OH249643   3.356   0.344   1.894 -0.5681 -0.1425 -0.0202
 8483TIP3    H149644   3.330   0.368   1.805  1.3954  0.4684 -0.4973
 8483TIP3    H249645   3.294   0.388   1.951 -1.7104 -0.3420 -1.0718
 8484TIP3   OH249646   1.683   3.836   8.262  0.5116  0.0250 -0.1153
 8484TIP3    H149647   1.733   3.917   8.253 -1.6693  1.4611 -0.1035
 8484TIP3    H249648   1.718   3.778   8.195  0.0964  2.1098 -2.2649
 8485TIP3   OH249649   1.590   4.625   9.170 -0.3383  0.1597  0.0915
 8485TIP3    H149650   1.547   4.674   9.240  0.1028 -0.2626  0.6697
 8485TIP3    H249651   1.677   4.664   9.163 -0.1150 -0.2936  0.3000
 8486TIP3   OH249652   5.686   6.078   8.675  0.1337 -0.0682 -0.3040
 8486TIP3    H149653   5.736   6.021   8.734 -0.0857 -1.2222 -1.1792
 8486TIP3    H249654   5.632   6.132   8.733  1.0807 -0.0578  0.5871
 8487TIP3   OH249655   2.099   7.470   9.924 -0.3873 -0.1364 -0.0248
 8487TIP3    H149656   2.161   7.402   9.898 -0.1507  0.1069 -0.1038
 8487TIP3    H249657   2.153   7.547   9.940 -0.8063  0.4789 -1.4362
 8488TIP3   OH249658   0.291   1.116   7.676  0.1274  0.0324  0.1600
 8488TIP3    H149659   0.374   1.068   7.673  0.3611  0.4766 -0.6949
 8488TIP3    H249660   0.226   1.054   7.644  0.2842 -0.0112 -0.0773
 8489TIP3   OH249661   7.012   4.539   1.270  0.3096  0.2288  0.7097
 8489TIP3    H149662   6.983   4.450   1.252  0.8360  0.6832 -3.1640
 8489TIP3    H249663   6.933   4.583   1.303 -0.6567 -1.0329  0.1809
 8490TIP3   OH249664   6.290   0.837   9.899 -0.3572 -0.0554  0.1353
 8490TIP3    H149665   6.236   0.758   9.899 -1.1276  0.4566  0.1020
 8490TIP3    H249666   6.351   0.825   9.826 -1.4016 -0.0074 -0.7678
 8491TIP3   OH249667   5.773   4.041   0.525 -0.2483 -0.3210  0.0177
 8491TIP3    H149668   5.759   3.995   0.608  0.5176 -1.0465 -0.2344
 8491TIP3    H249669   5.846   4.101   0.542 -1.8065  1.5030  0.5915
 8492TIP3   OH249670   6.665   3.901   9.493 -0.0485 -0.3822  0.1341
 8492TIP3    H149671   6.591   3.961   9.502  0.2368 -0.1338  0.8867
 8492TIP3    H249672   6.629   3.815   9.513 -0.2549 -0.3349 -0.0357
 8493TIP3   OH249673   1.934   5.034   8.117 -0.2419 -0.1947  0.3298
 8493TIP3    H149674   1.883   5.090   8.176 -0.5842  0.1828 -0.3111
 8493TIP3    H249675   1.982   5.095   8.061  0.0737 -0.5485  0.2092
 8494TIP3   OH249676   7.115   5.210   1.123  0.0605 -0.7212 -0.0008
 8494TIP3    H149677   7.092   5.178   1.211  0.9032 -0.8963  0.1662
 8494TIP3    H249678   7.127   5.304   1.134  0.2386 -0.7531  0.0986
 8495TIP3   OH249679   6.906   3.401   1.989 -0.0756  0.3153 -0.5415
 8495TIP3    H149680   6.922   3.452   1.910 -0.7925  0.3846 -0.6456
 8495TIP3    H249681   6.815   3.419   2.012  0.8231  2.4256  1.8140
 8496TIP3   OH249682   1.220   6.275   7.907 -0.1805  0.0028  0.4678
 8496TIP3    H149683   1.196   6.240   7.992 -0.2685  1.2924  0.9871
 8496TIP3    H249684   1.299   6.226   7.883 -1.9153 -2.6540 -0.2286
 8497TIP3   OH249685   4.219   6.038   8.934 -0.3260  0.1516 -0.3374
 8497TIP3    H149686   4.181   6.042   8.846 -2.7168  3.7497  0.6217
 8497TIP3    H249687   4.153   5.993   8.987  0.2181 -0.2754 -0.0093
 8498TIP3   OH249688   7.222   5.396   8.442 -1.0585 -0.3476  0.0064
 8498TIP3    H149689   7.293   5.346   8.403  0.6491  1.3282  0.7479
 8498TIP3    H249690   7.225   5.373   8.535 -0.4743  0.8192  0.2944
 8499TIP3   OH249691   4.797   7.439   7.652  0.4638 -0.1526  0.4667
 8499TIP3    H149692   4.766   7.388   7.577  0.7896 -0.3794  0.4822
 8499TIP3    H249693   4.718   7.466   7.697  0.0873  2.2013 -1.3773
 8500TIP3   OH249694   7.626   0.285   7.495  0.4444  0.1068 -0.2601
 8500TIP3    H149695   7.559   0.237   7.544  2.0977 -0.5248  1.4675
 8500TIP3    H249696   7.681   0.218   7.456 -0.1158  0.6202 -2.0309
 8501TIP3   OH249697   0.075   6.205   8.334 -0.0950 -0.3266  0.5076
 8501TIP3    H149698   0.047   6.232   8.421 -2.7375 -0.8059 -0.0838
 8501TIP3    H249699   0.003   6.232   8.276  0.0979 -2.7367 -1.0514
 8502TIP3   OH249700   5.934   4.150   1.718 -0.0822  0.2279  0.0872
 8502TIP3    H149701   5.924   4.090   1.644 -1.2209  1.6428 -0.9680
 8502TIP3    H249702   5.959   4.094   1.791 -1.8903 -1.6855 -0.6392
 8503TIP3   OH249703   0.326   3.703   0.637  0.2157 -0.4655  0.9700
 8503TIP3    H149704   0.286   3.617   0.620  0.4235 -0.2230 -1.0254
 8503TIP3    H249705   0.257   3.754   0.678 -0.1119 -1.3894  1.6036
 8504TIP3   OH249706   1.239   6.030   7.693 -0.3059 -0.1684  0.2030
 8504TIP3    H149707   1.317   6.075   7.726 -1.9537  1.7985  1.6605
 8504TIP3    H249708   1.233   5.951   7.748  0.0934  0.1821  0.7629
 8505TIP3   OH249709   4.670   2.027   8.444 -0.2690  0.2338  0.5988
 8505TIP3    H149710   4.681   1.963   8.514  1.2000 -0.5304 -0.2510
 8505TIP3    H249711   4.597   1.993   8.392 -0.5001  0.0900  1.0123
 8506TIP3   OH249712   4.932   2.694   7.528  0.2506 -0.0614  0.0150
 8506TIP3    H149713   5.013   2.644   7.540 -0.7621 -1.3658  2.0941
 8506TIP3    H249714   4.886   2.649   7.458  1.6526  1.2459 -1.8461
 8507TIP3   OH249715   1.643   6.919   2.083  0.1121 -0.2191  0.0295
 8507TIP3    H149716   1.715   6.896   2.141  1.0379 -0.7923 -1.2863
 8507TIP3    H249717   1.576   6.853   2.100  0.3386 -0.3284  0.5028
 8508TIP3   OH249718   2.816   7.098   8.710 -0.0887  0.9931  0.2022
 8508TIP3    H149719   2.733   7.078   8.754  0.6984  1.5884  2.0899
 8508TIP3    H249720   2.870   7.021   8.726 -0.0826  0.8342 -0.5530
 8509TIP3   OH249721   7.177   4.862   0.443  0.0817 -0.1388 -0.0229
 8509TIP3    H149722   7.173   4.792   0.507  0.3606  0.6695  0.9114
 8509TIP3    H249723   7.131   4.828   0.366 -1.7984 -0.4846  1.2070
 8510TIP3   OH249724   3.339   5.610   9.361 -0.3563 -0.0130 -0.0246
 8510TIP3    H149725   3.281   5.602   9.286 -0.1213 -1.0991 -0.1076
 8510TIP3    H249726   3.427   5.609   9.324 -0.1905 -1.6792  0.2915
 8511TIP3   OH249727   3.174   2.193   8.218 -0.5302  0.1619  0.6049
 8511TIP3    H149728   3.241   2.220   8.282 -1.2018 -1.6202  2.1393
 8511TIP3    H249729   3.093   2.234   8.249 -0.6336  0.3002  0.1621
 8512TIP3   OH249730   0.593   5.152   8.101 -0.4411 -0.3853  0.3400
 8512TIP3    H149731   0.616   5.245   8.102 -2.3660  0.1541  1.5393
 8512TIP3    H249732   0.603   5.125   8.193  1.8261 -1.8869 -0.2778
 8513TIP3   OH249733   3.102   6.341   0.342  0.2395  0.2870  0.2664
 8513TIP3    H149734   3.186   6.307   0.372  0.4370 -1.4632 -2.0171
 8513TIP3    H249735   3.037   6.299   0.398  0.7859  0.6761  1.2220
 8514TIP3   OH249736   7.236   5.472   9.800 -0.2987  0.8228 -0.0395
 8514TIP3    H149737   7.328   5.497   9.814 -0.5244  0.8843  1.4331
 8514TIP3    H249738   7.222   5.399   9.859 -0.5450 -0.8331 -2.0220
 8515TIP3   OH249739   4.041   0.536   8.081 -0.1056  0.0026 -0.3361
 8515TIP3    H149740   4.099   0.514   8.008 -2.1711 -2.2150 -1.4281
 8515TIP3    H249741   4.020   0.629   8.068  2.8392  0.8093 -0.0700
 8516TIP3   OH249742   3.876   3.727   2.121  0.2326 -0.1533  0.1899
 8516TIP3    H149743   3.787   3.763   2.126  0.4658  0.6769 -1.0746
 8516TIP3    H249744   3.895   3.697   2.210 -1.7359 -1.4273  0.2507
 8517TIP3   OH249745   3.128   5.601   7.775  0.0203  0.4166  0.3153
 8517TIP3    H149746   3.130   5.552   7.694 -0.5640 -0.1355  0.6275
 8517TIP3    H249747   3.040   5.588   7.810  0.8896 -1.1377  2.1145
 8518TIP3   OH249748   3.593   3.739   0.957  0.7319  0.5625  0.7071
 8518TIP3    H149749   3.622   3.700   1.039  4.4991 -0.2562 -0.8169
 8518TIP3    H249750   3.649   3.816   0.946  0.7257  0.3225 -1.3347
 8519TIP3   OH249751   0.757   0.893   1.259 -0.2408 -0.2944 -0.2579
 8519TIP3    H149752   0.675   0.921   1.218 -0.1740 -0.9123 -0.8337
 8519TIP3    H249753   0.810   0.972   1.263  0.3684 -0.4865 -2.8408
 8520TIP3   OH249754   6.825   1.795   8.772 -0.1234 -0.2155  0.2731
 8520TIP3    H149755   6.907   1.827   8.735 -1.1853  1.4362 -0.7825
 8520TIP3    H249756   6.782   1.750   8.700 -1.2483  1.1540  0.0406
 8521TIP3   OH249757   4.855   7.090   9.418 -0.0306  0.2924  0.2329
 8521TIP3    H149758   4.853   7.180   9.388  1.8665  0.1274 -0.5291
 8521TIP3    H249759   4.802   7.042   9.355 -1.1231  0.8645  0.6958
 8522TIP3   OH249760   4.320   6.051   0.112 -0.4146 -0.0137 -0.0404
 8522TIP3    H149761   4.291   6.023   0.199  2.0327 -0.3759  0.7382
 8522TIP3    H249762   4.400   6.001   0.096  0.8111  2.1646 -1.2206
 8523TIP3   OH249763   2.329   3.443   1.144 -0.0862 -0.1690  0.3079
 8523TIP3    H149764   2.279   3.505   1.091 -1.3439 -1.6568 -0.3202
 8523TIP3    H249765   2.290   3.448   1.231 -1.4580 -1.3997 -0.2056
 8524TIP3   OH249766   1.125   4.075   9.965 -0.7565 -0.2632  0.5954
 8524TIP3    H149767   1.199   4.136   9.961 -0.7446 -0.1286 -5.0010
 8524TIP3    H249768   1.048   4.131   9.955 -1.0156 -0.8005 -0.6297
 8525TIP3   OH249769   3.038   7.211   2.597 -0.5050  0.0773 -0.1893
 8525TIP3    H149770   3.103   7.179   2.660 -1.6245  0.0653  1.0080
 8525TIP3    H249771   2.961   7.232   2.651 -0.4213  3.2472 -1.0947
 8526TIP3   OH249772   3.386   3.801   8.115  0.0527 -0.0488 -0.1789
 8526TIP3    H149773   3.478   3.784   8.094 -0.0149 -0.1577 -0.3835
 8526TIP3    H249774   3.387   3.823   8.209 -0.0209 -2.6192  0.4953
 8527TIP3   OH249775   4.851   1.500   8.071 -0.1008 -0.1448 -0.1308
 8527TIP3    H149776   4.809   1.479   7.988  0.2455 -1.2516 -0.0332
 8527TIP3    H249777   4.869   1.416   8.112  0.7166  0.3524  0.5836
 8528TIP3   OH249778   5.190   2.754   1.724  0.7749 -0.4977  0.4836
 8528TIP3    H149779   5.222   2.781   1.638 -2.3627  1.1347 -0.3068
 8528TIP3    H249780   5.226   2.666   1.736  3.7303  0.3523 -1.0785
 8529TIP3   OH249781   4.587   4.831   0.379 -0.1671 -0.1200 -0.6922
 8529TIP3    H149782   4.612   4.772   0.309  0.9128 -0.0146 -0.4072
 8529TIP3    H249783   4.641   4.806   0.453 -1.0902 -0.0462  0.0322
 8530TIP3   OH249784   4.585   3.783   7.796 -0.0227 -0.1666 -0.9972
 8530TIP3    H149785   4.649   3.846   7.762  0.6710 -0.2114  0.1561
 8530TIP3    H249786   4.629   3.698   7.788  1.2728  0.0378  2.2186
 8531TIP3   OH249787   6.178   1.662   8.091 -0.5221  0.3711  0.4350
 8531TIP3    H149788   6.117   1.643   8.020 -0.6713 -1.2204  0.9491
 8531TIP3    H249789   6.262   1.626   8.062 -0.0586  1.5749  0.2035
 8532TIP3   OH249790   5.666   3.724   1.453  0.1783 -0.3378 -0.1501
 8532TIP3    H149791   5.571   3.718   1.462  0.1531  1.2295  1.1950
 8532TIP3    H249792   5.679   3.767   1.368 -0.3892  0.6062  0.2269
 8533TIP3   OH249793   5.774   6.817   2.303  0.0648 -0.1807 -0.1504
 8533TIP3    H149794   5.713   6.877   2.347  1.6114  0.1338  1.7395
 8533TIP3    H249795   5.861   6.856   2.318  1.0068 -2.1711 -0.0715
 8534TIP3   OH249796   7.187   5.684   8.404  0.2223 -0.2437  0.6906
 8534TIP3    H149797   7.282   5.672   8.409  0.4970  1.9571  2.0173
 8534TIP3    H249798   7.151   5.596   8.411  2.1770 -1.2556 -1.0899
 8535TIP3   OH249799   1.522   4.649   0.028  0.2452  0.1249  0.0617
 8535TIP3    H149800   1.573   4.611   0.099  0.4403 -0.5195 -0.4058
 8535TIP3    H249801   1.560   4.735   0.013  2.2514 -0.9059 -1.2840
 8536TIP3   OH249802   1.494   5.587   2.563 -0.8477 -0.0964  0.4671
 8536TIP3    H149803   1.560   5.645   2.600 -1.1270 -0.8282  2.2321
 8536TIP3    H249804   1.449   5.641   2.497  0.2508  1.0031  0.5810
 8537TIP3   OH249805   1.189   4.104   0.305 -0.0624 -0.4805  0.0392
 8537TIP3    H149806   1.137   4.025   0.288  0.1257 -0.4130 -0.9150
 8537TIP3    H249807   1.276   4.084   0.270 -0.0901  0.2471 -0.4735
 8538TIP3   OH249808   1.824   1.509   1.636  0.1715 -0.1693  0.0506
 8538TIP3    H149809   1.903   1.532   1.587  1.5333 -3.5570  0.4183
 8538TIP3    H249810   1.851   1.510   1.728 -0.7756  0.5209  0.3381
 8539TIP3   OH249811   3.194   5.933   7.742 -0.1774 -0.9253 -0.3162
 8539TIP3    H149812   3.196   6.019   7.700  0.0726  0.0969  1.6557
 8539TIP3    H249813   3.286   5.909   7.753 -0.2262 -1.0214 -0.0967
 8540TIP3   OH249814   2.674   6.413   9.933 -0.0253  0.0879 -0.4257
 8540TIP3    H149815   2.735   6.385  10.001 -1.2890 -0.6160  0.4675
 8540TIP3    H249816   2.611   6.342   9.927 -1.4512  1.2919 -0.4441
 8541TIP3   OH249817   2.667   7.527   8.688  0.0022 -0.3469 -0.4130
 8541TIP3    H149818   2.612   7.450   8.704 -0.1984 -0.0667  0.2833
 8541TIP3    H249819   2.756   7.493   8.689 -0.0149 -0.3852  1.1229
 8542TIP3   OH249820   5.289   7.619   0.462 -0.6540 -0.3081  0.0400
 8542TIP3    H149821   5.238   7.572   0.528 -1.2874 -0.4083 -0.5158
 8542TIP3    H249822   5.266   7.711   0.475 -1.5473 -0.4221 -0.6895
 8543TIP3   OH249823   6.401   7.601   8.270  0.0091  0.3234  0.6299
 8543TIP3    H149824   6.486   7.612   8.227 -0.1067  2.0896  0.7939
 8543TIP3    H249825   6.398   7.508   8.293  1.6731  0.1216  0.1670
 8544TIP3   OH249826   1.877   0.783   0.576 -0.1946  0.4699 -0.4141
 8544TIP3    H149827   1.919   0.702   0.604 -1.9875 -0.1036  0.7677
 8544TIP3    H249828   1.948   0.848   0.578  1.3184 -1.0323 -1.5412
 8545TIP3   OH249829   0.589   2.877   9.476 -0.6179 -0.0673  0.1363
 8545TIP3    H149830   0.493   2.871   9.476 -0.5645 -1.5019 -0.4501
 8545TIP3    H249831   0.618   2.795   9.515  0.3730  0.1707 -0.0669
 8546TIP3   OH249832   3.390   6.787   9.465  0.0447 -0.4465 -0.2343
 8546TIP3    H149833   3.324   6.733   9.421 -1.1416  0.4579  0.3882
 8546TIP3    H249834   3.467   6.781   9.409 -0.5955 -1.4321 -1.0412
 8547TIP3   OH249835   3.501   3.585   8.368 -0.0102  0.4230  0.4689
 8547TIP3    H149836   3.529   3.554   8.454  0.7587  0.8640  0.3829
 8547TIP3    H249837   3.409   3.559   8.363 -0.1907  0.7615  1.5968
 8548TIP3   OH249838   0.337   1.091   2.496 -0.1235  0.3425 -0.3756
 8548TIP3    H149839   0.392   1.013   2.488 -1.6279 -0.6822 -1.1984
 8548TIP3    H249840   0.289   1.078   2.578  0.2817  0.8596 -0.0512
 8549TIP3   OH249841   7.460   0.512   9.196  0.1617 -0.2038  0.3695
 8549TIP3    H149842   7.486   0.584   9.254 -1.1923  0.3561  0.3130
 8549TIP3    H249843   7.394   0.550   9.138 -0.8666 -1.5691  0.5860
 8550TIP3   OH249844   4.752   1.822   9.886  0.3633 -0.4138  0.0936
 8550TIP3    H149845   4.824   1.776   9.843  0.1053 -1.1944  0.4809
 8550TIP3    H249846   4.673   1.782   9.850 -0.0164  2.0455 -2.1774
 8551TIP3   OH249847   4.855   4.628   8.178 -0.2116 -0.3178 -0.1001
 8551TIP3    H149848   4.931   4.635   8.237  0.5229 -0.8783 -0.9617
 8551TIP3    H249849   4.823   4.539   8.191  0.0928 -0.5189 -0.7129
 8552TIP3   OH249850   2.264   5.630   1.222  0.0647 -0.0756  0.2957
 8552TIP3    H149851   2.227   5.594   1.302 -0.4632  0.2736  0.2093
 8552TIP3    H249852   2.213   5.590   1.151  1.3732 -1.4109  0.0479
 8553TIP3   OH249853   4.397   4.052   1.220 -0.0010 -0.1338  0.2589
 8553TIP3    H149854   4.460   4.068   1.290 -0.7239  1.0515  0.6621
 8553TIP3    H249855   4.430   3.974   1.176 -0.0177 -1.4461  2.4498
 8554TIP3   OH249856   4.550   6.464   0.573  0.8799  0.2021 -0.4774
 8554TIP3    H149857   4.549   6.429   0.484 -0.7713  2.5934 -1.4727
 8554TIP3    H249858   4.629   6.518   0.577 -0.4373  2.2896 -1.4684
 8555TIP3   OH249859   2.179   6.372   0.354 -0.1297 -0.0863 -0.0131
 8555TIP3    H149860   2.084   6.388   0.350 -0.1676 -0.5044 -1.9171
 8555TIP3    H249861   2.217   6.459   0.362 -0.6843  0.0132  1.9484
 8556TIP3   OH249862   3.782   7.335   0.174 -0.1300 -0.6904 -0.3414
 8556TIP3    H149863   3.769   7.354   0.081 -1.2531  0.2639 -0.0135
 8556TIP3    H249864   3.833   7.409   0.208  1.6168 -1.7693 -0.4733
 8557TIP3   OH249865   5.798   1.225   9.086  0.1657 -0.1069  0.3401
 8557TIP3    H149866   5.711   1.185   9.094  1.1377 -2.3512  0.4054
 8557TIP3    H249867   5.809   1.239   8.992  0.4965 -1.7610  0.0949
 8558TIP3   OH249868   3.246   2.543   9.753 -0.2204 -0.1698  0.3922
 8558TIP3    H149869   3.158   2.579   9.761 -0.0021  1.1180 -2.1030
 8558TIP3    H249870   3.234   2.463   9.702  0.0460  0.0659 -0.0463
 8559TIP3   OH249871   5.465   2.015   8.134  0.4621  0.3051 -0.2791
 8559TIP3    H149872   5.522   1.944   8.164  2.3348  1.4019 -1.1161
 8559TIP3    H249873   5.387   1.970   8.101 -0.0815 -1.1496  2.6288
 8560TIP3   OH249874   0.312   3.306   9.186 -0.0268 -0.3094 -0.0014
 8560TIP3    H149875   0.345   3.240   9.246 -1.1325  0.2781  1.3035
 8560TIP3    H249876   0.350   3.388   9.216 -1.5543  0.1810  0.7313
 8561TIP3   OH249877   1.334   1.665   8.325 -0.4453  0.2725  0.0171
 8561TIP3    H149878   1.361   1.579   8.294 -2.0153 -0.7720  1.3867
 8561TIP3    H249879   1.312   1.714   8.246  1.6268 -0.1041 -0.8666
 8562TIP3   OH249880   1.526   0.775   0.078  0.2836 -0.2168 -0.4799
 8562TIP3    H149881   1.574   0.766   0.160 -0.8137  1.0549  0.3509
 8562TIP3    H249882   1.452   0.714   0.086  0.3511 -0.3230 -0.6587
 8563TIP3   OH249883   4.892   3.292   8.110  0.3848 -0.4861 -0.0801
 8563TIP3    H149884   4.829   3.358   8.082 -1.8293 -2.1244  0.7249
 8563TIP3    H249885   4.939   3.268   8.030  1.1631  1.8651 -0.4207
 8564TIP3   OH249886   2.709   6.754   9.230  0.4247  0.3378 -0.0195
 8564TIP3    H149887   2.703   6.673   9.179  0.0960  0.4671 -0.1864
 8564TIP3    H249888   2.804   6.769   9.240  0.4870  0.0672 -0.1969
 8565TIP3   OH249889   6.497   1.501   0.691 -0.3708  0.0291  0.2683
 8565TIP3    H149890   6.492   1.569   0.758 -1.6257 -0.7910  1.0510
 8565TIP3    H249891   6.465   1.422   0.735  0.1438 -0.8552 -0.8951
 8566TIP3   OH249892   7.422   2.434   1.046  0.1114 -0.2779  0.2607
 8566TIP3    H149893   7.342   2.468   1.084  2.0209  1.2128  3.2875
 8566TIP3    H249894   7.450   2.501   0.984 -0.0054  0.1196  0.6327
 8567TIP3   OH249895   2.397   6.876   8.143 -0.0889 -0.9617  0.7413
 8567TIP3    H149896   2.368   6.805   8.086 -1.1762 -0.2655  0.3946
 8567TIP3    H249897   2.388   6.955   8.089 -0.3671 -0.3819  1.6155
 8568TIP3   OH249898   4.846   0.294   9.709 -0.2138  0.0312  0.1709
 8568TIP3    H149899   4.823   0.379   9.673  0.1426 -0.3867 -1.0831
 8568TIP3    H249900   4.862   0.239   9.633 -3.3849 -2.0356  0.7857
 8569TIP3   OH249901   7.067   1.313   0.437 -0.1552 -0.5705  0.0439
 8569TIP3    H149902   6.980   1.320   0.397 -0.5834 -0.1911  1.0092
 8569TIP3    H249903   7.099   1.403   0.439  0.9318 -0.8689 -1.7009
 8570TIP3   OH249904   3.475   7.542   2.354 -0.0408 -0.6751  0.2639
 8570TIP3    H149905   3.430   7.470   2.398  2.7415 -2.4522  0.4600
 8570TIP3    H249906   3.414   7.570   2.285 -1.6753 -2.4319  0.9214
 8571TIP3   OH249907   7.323   6.711   8.911  0.2361  0.0157  0.1351
 8571TIP3    H149908   7.324   6.651   8.837 -0.5813  0.1975 -0.0319
 8571TIP3    H249909   7.231   6.715   8.938  0.6540 -0.8085  1.7779
 8572TIP3   OH249910   2.108   2.767   9.535 -0.5224  0.7822  0.6832
 8572TIP3    H149911   2.093   2.786   9.627  0.5827 -1.8885  1.5424
 8572TIP3    H249912   2.033   2.713   9.509 -0.0242  0.1454  0.5356
 8573TIP3   OH249913   4.943   0.036   7.697 -0.4219 -0.1149  0.3344
 8573TIP3    H149914   4.910  -0.040   7.745  1.5799 -2.1128 -1.2472
 8573TIP3    H249915   5.034   0.045   7.726  0.6009 -0.8963 -2.3652
 8574TIP3   OH249916   0.967   1.186   0.742 -0.0602  0.0760 -0.8310
 8574TIP3    H149917   0.899   1.119   0.745 -1.2526  1.1976 -1.4140
 8574TIP3    H249918   1.049   1.138   0.734 -0.7601 -1.3292  0.1216
 8575TIP3   OH249919   2.853   4.988   0.906  0.0983  0.4883  0.2347
 8575TIP3    H149920   2.760   4.997   0.885 -0.1912 -1.2329  0.6324
 8575TIP3    H249921   2.877   5.073   0.943 -0.8764  1.5137 -1.3717
 8576TIP3   OH249922   4.643   6.269   9.494  0.1081  0.2238 -0.0225
 8576TIP3    H149923   4.730   6.308   9.504  0.9276 -1.4574 -0.2493
 8576TIP3    H249924   4.643   6.233   9.405  0.6466 -3.0277  1.1307
 8577TIP3   OH249925   5.526   5.267   0.845 -0.5310 -0.0940 -0.3293
 8577TIP3    H149926   5.432   5.286   0.843 -0.3660  0.8065  0.1329
 8577TIP3    H249927   5.553   5.274   0.753 -0.6957  0.8236 -0.3158
 8578TIP3   OH249928   2.740   0.984   7.297 -0.0464 -0.0612  0.7115
 8578TIP3    H149929   2.755   1.014   7.207 -0.1710  0.7257  0.9513
 8578TIP3    H249930   2.824   0.947   7.323  0.3721  0.8463  0.6988
 8579TIP3   OH249931   6.182   3.444   9.168 -0.1736 -0.0029  0.0132
 8579TIP3    H149932   6.260   3.499   9.167  0.3670 -0.7279  0.5187
 8579TIP3    H249933   6.197   3.379   9.100 -0.3992 -0.0550  0.0119
 8580TIP3   OH249934   2.492   6.828   0.235  0.2907  0.0126 -0.0206
 8580TIP3    H149935   2.413   6.879   0.216  1.4459  2.0616  0.4276
 8580TIP3    H249936   2.519   6.793   0.150 -0.2216  0.6204 -0.4440
 8581TIP3   OH249937   2.929   0.011   0.817 -0.1779 -0.2624 -0.1902
 8581TIP3    H149938   2.981   0.076   0.771  0.8548  0.4946  1.9155
 8581TIP3    H249939   2.981  -0.012   0.894 -1.6039 -1.7991  0.3848
 8582TIP3   OH249940   2.292   4.315   7.370 -0.4357  0.1353 -0.1116
 8582TIP3    H149941   2.227   4.304   7.439 -2.1805 -0.0774 -1.6916
 8582TIP3    H249942   2.375   4.327   7.416 -1.4027 -0.7099  1.9776
 8583TIP3   OH249943   1.708   3.827   1.808 -0.0593  0.2040  0.5467
 8583TIP3    H149944   1.761   3.844   1.731  0.8530 -0.6167  0.9765
 8583TIP3    H249945   1.752   3.755   1.853 -2.2291 -1.4456  0.2291
 8584TIP3   OH249946   5.170   0.984   0.142  0.1417 -0.2626  0.7082
 8584TIP3    H149947   5.219   0.925   0.084  1.0873  0.7413  0.4285
 8584TIP3    H249948   5.234   1.010   0.209 -0.3651  0.1404  1.0449
 8585TIP3   OH249949   2.479   0.212   7.764  0.3119  0.7131  0.4993
 8585TIP3    H149950   2.410   0.146   7.753  1.3881 -0.2406 -0.8704
 8585TIP3    H249951   2.531   0.181   7.838  0.3602  0.4221  0.3460
 8586TIP3   OH249952   7.610   3.050   9.479 -0.4108 -0.1743  0.1347
 8586TIP3    H149953   7.529   3.024   9.523 -0.3821 -0.2662  0.1339
 8586TIP3    H249954   7.615   2.992   9.403 -1.0124  0.7001 -0.5858
 8587TIP3   OH249955   7.129   5.522   1.361 -0.3509 -0.6623 -0.0077
 8587TIP3    H149956   7.113   5.582   1.434 -2.4512  0.6078 -1.4177
 8587TIP3    H249957   7.139   5.436   1.403  0.3789  0.2765  1.8732
 8588TIP3   OH249958   4.642   5.829   7.647 -0.7619  0.8877  0.3128
 8588TIP3    H149959   4.569   5.829   7.708 -0.3555  0.3316  0.8208
 8588TIP3    H249960   4.708   5.884   7.689 -0.2241 -0.0361  0.7135
 8589TIP3   OH249961   3.054   0.102   1.889 -0.0874 -0.2021 -0.1148
 8589TIP3    H149962   2.996   0.173   1.862  3.2011  2.7335 -0.2679
 8589TIP3    H249963   3.056   0.107   1.984  1.5418  1.2920 -0.1798
 8590TIP3   OH249964   2.303   5.120   7.584  0.0380  0.7406  0.0226
 8590TIP3    H149965   2.360   5.081   7.650  0.1867 -0.5014 -0.7892
 8590TIP3    H249966   2.218   5.077   7.597 -0.3472  1.5920  0.3620
 8591TIP3   OH249967   1.580   2.845   8.332 -0.1347  0.0107 -0.0218
 8591TIP3    H149968   1.589   2.876   8.422 -1.1505 -0.4324  0.2477
 8591TIP3    H249969   1.619   2.758   8.332  0.1478  0.1393 -0.0796
 8592TIP3   OH249970   3.174   5.279   9.597  0.4488  0.1310 -0.4141
 8592TIP3    H149971   3.183   5.290   9.502  1.8843  1.5922 -0.1481
 8592TIP3    H249972   3.085   5.308   9.616  0.4119  0.5701 -1.2165
 8593TIP3   OH249973   0.990   1.072   2.070  0.1788 -0.3979 -0.0091
 8593TIP3    H149974   1.057   1.021   2.024  1.6195  1.2505  0.1243
 8593TIP3    H249975   0.993   1.158   2.028 -2.5734 -0.5179 -0.6263
 8594TIP3   OH249976   0.804   0.336   2.395  0.8787  0.0435 -0.2295
 8594TIP3    H149977   0.746   0.332   2.319  1.9985 -1.1838 -1.0712
 8594TIP3    H249978   0.833   0.428   2.398 -1.0459  0.6776  0.2096
 8595TIP3   OH249979   3.417   0.481   2.223  0.2976  0.4258 -0.4567
 8595TIP3    H149980   3.426   0.538   2.299 -0.5568 -1.1679  0.9223
 8595TIP3    H249981   3.331   0.439   2.235  0.8271 -1.0331 -1.4479
 8596TIP3   OH249982   3.746   2.254   7.615  0.2610  0.2197 -0.0104
 8596TIP3    H149983   3.806   2.190   7.577 -0.4766  0.1397 -1.0902
 8596TIP3    H249984   3.665   2.205   7.628  0.1641  0.5446  0.6162
 8597TIP3   OH249985   6.285   4.118   8.142 -0.1874  0.4653  0.5278
 8597TIP3    H149986   6.203   4.139   8.187  0.4683  0.6889  1.6536
 8597TIP3    H249987   6.262   4.120   8.049 -1.4047  0.7525  0.8157
 8598TIP3   OH249988   1.067   4.299   8.920  0.1886 -0.5299  0.5847
 8598TIP3    H149989   1.002   4.368   8.907 -0.1404 -1.1324 -1.2583
 8598TIP3    H249990   1.140   4.343   8.964 -0.0037  0.9992 -0.5411
 8599TIP3   OH249991   6.136   1.981   9.125  0.0092  0.1547  0.1527
 8599TIP3    H149992   6.115   1.995   9.217 -0.6278  0.7737 -0.0798
 8599TIP3    H249993   6.066   1.923   9.093  0.4281 -0.3526  0.1379
 8600TIP3   OH249994   4.578   2.580   7.369  0.4938  0.3457  0.1610
 8600TIP3    H149995   4.658   2.590   7.318  0.8105 -0.5052  0.4909
 8600TIP3    H249996   4.530   2.662   7.353  2.1400  1.5893  1.2566
 8601TIP3   OH249997   3.372   1.280   9.441 -0.5654 -0.4522  0.3484
 8601TIP3    H149998   3.284   1.311   9.462 -0.6032  0.9207 -1.5964
 8601TIP3    H249999   3.430   1.353   9.464 -0.2828 -0.1905 -1.0861
 8602TIP3   OH250000   5.945   4.866   0.516  0.2895 -0.6380 -0.2313
 8602TIP3    H150001   6.022   4.814   0.492  0.4521 -1.1749  1.3751
 8602TIP3    H250002   5.929   4.845   0.608 -0.2247  1.4226  0.2041
 8603TIP3   OH250003   6.437   3.297   7.658  0.2622  0.6510 -0.2256
 8603TIP3    H150004   6.365   3.296   7.594  1.8667  1.9624 -2.2060
 8603TIP3    H250005   6.484   3.216   7.641  1.0614  1.2984 -1.2445
 8604TIP3   OH250006   6.982   1.483   9.883  0.5203  0.0269  0.8194
 8604TIP3    H150007   7.026   1.419   9.939  0.1204 -1.5297 -0.5447
 8604TIP3    H250008   7.034   1.485   9.803 -0.9782 -0.7379 -0.2384
 8605TIP3   OH250009   1.540   0.734   9.610 -0.2811 -0.5435 -0.0541
 8605TIP3    H150010   1.505   0.659   9.562 -0.6266 -0.0104 -0.6482
 8605TIP3    H250011   1.568   0.697   9.694  3.3424 -2.1855 -1.7536
 8606TIP3   OH250012   4.947   2.471   8.768 -0.1585 -0.0711  0.5357
 8606TIP3    H150013   5.002   2.398   8.798 -1.2185 -0.4954  1.5022
 8606TIP3    H250014   4.905   2.438   8.689 -0.5540 -0.4874  0.9130
 8607TIP3   OH250015   1.984   3.307   1.592  0.4678 -0.3933  0.1998
 8607TIP3    H150016   2.031   3.308   1.675 -1.6156 -1.2565  1.4652
 8607TIP3    H250017   2.003   3.222   1.554  0.6401 -0.3857  0.2695
 8608TIP3   OH250018   3.057   3.990   1.435 -0.3701  0.2093  0.1477
 8608TIP3    H150019   3.004   3.937   1.377 -0.6476  0.3615  0.2610
 8608TIP3    H250020   3.125   3.931   1.467 -0.3533  0.0675 -0.1520
 8609TIP3   OH250021   1.995   6.769   0.889  0.7161 -0.2416 -0.1208
 8609TIP3    H150022   2.076   6.718   0.893 -0.8046 -2.7312  0.7274
 8609TIP3    H250023   1.928   6.711   0.923 -1.3343  2.0434  0.0123
 8610TIP3   OH250024   0.513   0.329   1.806  0.0024  0.0768 -0.1249
 8610TIP3    H150025   0.485   0.249   1.762  0.8323 -0.6716  0.6758
 8610TIP3    H250026   0.469   0.327   1.891  0.5867  0.1021  0.1830
 8611TIP3   OH250027   7.330   5.133   0.238 -0.0961  0.0011  0.3788
 8611TIP3    H150028   7.291   5.046   0.232  1.0205 -0.8368  3.3790
 8611TIP3    H250029   7.424   5.117   0.233  0.1281  1.6279 -3.4929
 8612TIP3   OH250030   2.334   5.214   9.011 -0.0532 -0.1742 -0.5716
 8612TIP3    H150031   2.260   5.200   9.069  0.2520 -0.4190 -0.2372
 8612TIP3    H250032   2.394   5.268   9.062  1.4316 -2.5902  0.3811
 8613TIP3   OH250033   2.676   4.993   7.447  0.2963  0.1786 -0.1338
 8613TIP3    H150034   2.689   4.916   7.502 -0.1763  0.0992 -0.1278
 8613TIP3    H250035   2.581   4.999   7.435  0.2666  1.1898  0.4823
 8614TIP3   OH250036   6.403   0.243   0.688 -0.1059  0.6752  0.2355
 8614TIP3    H150037   6.310   0.267   0.692 -0.6502 -0.8134 -1.7164
 8614TIP3    H250038   6.420   0.198   0.770 -1.7718 -1.0002 -0.2646
 8615TIP3   OH250039   1.477   2.374   8.623 -0.5585 -0.0162  0.0785
 8615TIP3    H150040   1.497   2.310   8.555  1.2230 -1.4388  1.8260
 8615TIP3    H250041   1.549   2.437   8.619 -1.4836  1.0401 -0.5995
 8616TIP3   OH250042   3.958   3.195   6.724 -0.2582  0.1648 -0.2101
 8616TIP3    H150043   3.883   3.243   6.759  0.2861  0.5827  0.4069
 8616TIP3    H250044   3.921   3.139   6.656 -0.9130  1.5255 -1.0132
 8617TIP3   OH250045   7.107   2.216   0.052  0.1005 -0.3191  0.9192
 8617TIP3    H150046   7.087   2.133   0.096 -0.3105  0.0326  1.4093
 8617TIP3    H250047   7.091   2.199  -0.040  0.0672 -0.8029  1.0126
 8618TIP3   OH250048   7.124   6.257   0.668  0.1771  0.5883 -0.1262
 8618TIP3    H150049   7.108   6.322   0.599 -0.8668  0.2913 -0.1834
 8618TIP3    H250050   7.054   6.274   0.732  0.1771 -0.1732  0.0775
 8619TIP3   OH250051   1.462   0.161   7.853 -0.0662 -0.1728  0.4113
 8619TIP3    H150052   1.454   0.164   7.758 -0.5730  1.0159  0.4833
 8619TIP3    H250053   1.481   0.069   7.872 -0.1472 -0.4602 -0.8170
 8620TIP3   OH250054   6.089   4.334   9.297  0.2865  0.4912  1.1815
 8620TIP3    H150055   5.996   4.317   9.284  0.5261 -0.0933  0.1418
 8620TIP3    H250056   6.098   4.341   9.392 -0.8900  1.0359  1.2709
 8621TIP3   OH250057   6.603   0.358   0.095  0.1337 -0.3635 -0.5755
 8621TIP3    H150058   6.655   0.298   0.148 -0.1879 -1.0261 -0.9761
 8621TIP3    H250059   6.655   0.438   0.089  0.5714 -0.6023 -0.0166
 8622TIP3   OH250060   1.753   6.627   0.922  0.7663 -0.2055  0.4990
 8622TIP3    H150061   1.754   6.673   0.838  0.6100  0.0034  0.6122
 8622TIP3    H250062   1.661   6.626   0.948  0.7008 -1.0036  0.2674
 8623TIP3   OH250063   0.058   7.030   8.810 -0.5559  0.0819  0.0524
 8623TIP3    H150064   0.062   6.937   8.835  0.4395 -0.2305 -1.1475
 8623TIP3    H250065   0.008   7.031   8.729 -0.6931  0.6122  0.1424
 8624TIP3   OH250066   5.279   4.104   2.411 -0.1700 -0.0691 -0.2582
 8624TIP3    H150067   5.267   4.009   2.411 -1.9825  0.0594  1.9288
 8624TIP3    H250068   5.191   4.139   2.428  0.8911  1.8370  1.9570
 8625TIP3   OH250069   0.346   3.577   8.457 -0.4500 -0.2897 -0.9285
 8625TIP3    H150070   0.328   3.646   8.521 -0.8461 -1.6458  0.4513
 8625TIP3    H250071   0.436   3.596   8.427 -0.5276  0.7752 -0.5458
 8626TIP3   OH250072   4.819   0.231   2.998  0.2288  0.4186 -0.2917
 8626TIP3    H150073   4.818   0.236   3.094  0.3776 -0.5998 -0.2322
 8626TIP3    H250074   4.733   0.197   2.975  0.2003  0.6459 -0.5268
 8627TIP3   OH250075   2.658   5.043   1.539  0.2041  0.1837 -0.1880
 8627TIP3    H150076   2.679   4.977   1.473  0.5420  0.8411 -0.7433
 8627TIP3    H250077   2.696   5.124   1.506  0.3397  0.5342  0.7929
 8628TIP3   OH250078   7.670   7.062   0.482  0.1165 -0.0111  0.4891
 8628TIP3    H150079   7.677   7.087   0.389  2.0296 -1.2397  0.2444
 8628TIP3    H250080   7.760   7.066   0.514 -0.7477  2.5066  2.9519
 8629TIP3   OH250081   1.661   2.220   1.445  0.3250  0.0891  0.4070
 8629TIP3    H150082   1.721   2.150   1.471  0.1284  0.0402  0.7360
 8629TIP3    H250083   1.604   2.180   1.380  0.5406  0.0867  0.2194
 8630TIP3   OH250084   6.588   3.313   8.553 -0.0098 -0.1760 -0.3163
 8630TIP3    H150085   6.648   3.367   8.604  0.8881 -1.3051 -0.1361
 8630TIP3    H250086   6.537   3.375   8.502  0.2249  0.8917  0.7119
 8631TIP3   OH250087   5.768   6.843   1.309 -0.1036  0.3265  0.6189
 8631TIP3    H150088   5.706   6.847   1.237 -0.7947  0.4102  1.2097
 8631TIP3    H250089   5.758   6.927   1.354  0.9396  0.6267  0.3212
 8632TIP3   OH250090   3.187   3.053   1.338  0.3574  0.3041  0.2917
 8632TIP3    H150091   3.112   3.074   1.282  1.2757 -0.3271 -1.2627
 8632TIP3    H250092   3.257   3.109   1.305  0.7160  0.5023  1.3773
 8633TIP3   OH250093   3.732   6.223   8.126 -0.2345 -0.6202  0.0352
 8633TIP3    H150094   3.679   6.293   8.088 -1.6921 -1.0394  1.2040
 8633TIP3    H250095   3.702   6.216   8.217  0.2762 -2.3716  0.1132
 8634TIP3   OH250096   0.500   5.339   9.933 -0.2986  0.0512  0.2616
 8634TIP3    H150097   0.455   5.342   9.849 -0.0591 -0.1704  0.1236
 8634TIP3    H250098   0.534   5.428   9.945 -0.1791  0.0350  0.0424
 8635TIP3   OH250099   7.471   1.727   9.367  0.6416  0.3132 -0.0295
 8635TIP3    H150100   7.462   1.722   9.462  1.2587 -3.4731  0.0145
 8635TIP3    H250101   7.518   1.808   9.351  0.8991  0.8452  2.9383
 8636TIP3   OH250102   0.885   3.876   1.063  0.2774 -0.8692 -0.4081
 8636TIP3    H150103   0.834   3.818   1.006 -0.0158 -0.8557 -0.1613
 8636TIP3    H250104   0.951   3.819   1.103 -0.4496 -1.1832  0.3714
 8637TIP3   OH250105   5.653   3.693   2.463 -0.1113  0.4549 -0.1965
 8637TIP3    H150106   5.625   3.661   2.549  0.9694  0.8370  0.3074
 8637TIP3    H250107   5.667   3.786   2.475 -1.4451  0.8187 -1.2015
 8638TIP3   OH250108   7.026   5.706   9.456  0.6885  0.2150  0.6110
 8638TIP3    H150109   7.032   5.798   9.482 -1.2523  0.9198 -1.1116
 8638TIP3    H250110   6.933   5.685   9.466  0.4780 -0.5183 -2.1119
 8639TIP3   OH250111   0.665   0.231   3.037 -0.2159 -0.1217  0.3057
 8639TIP3    H150112   0.742   0.252   3.089  0.1387 -1.0732  0.1831
 8639TIP3    H250113   0.662   0.135   3.036 -1.5584 -0.0953  0.5369
 8640TIP3   OH250114   7.614   3.114   1.290 -0.0950 -0.9518  0.1141
 8640TIP3    H150115   7.694   3.067   1.267 -0.1858 -1.4763  0.8226
 8640TIP3    H250116   7.571   3.058   1.355  0.0220  0.3203  1.3426
 8641TIP3   OH250117   4.327   2.237   1.310  0.2524 -0.0143  0.3783
 8641TIP3    H150118   4.343   2.151   1.274 -0.2607  0.2822 -0.5831
 8641TIP3    H250119   4.235   2.255   1.289  0.4466  0.9009  0.2728
 8642TIP3   OH250120   1.101   0.288   1.401  0.2148  0.1444  0.4758
 8642TIP3    H150121   1.169   0.231   1.438  0.4986 -0.7320 -1.2736
 8642TIP3    H250122   1.130   0.377   1.422  2.3696 -0.1679 -0.8815
 8643TIP3   OH250123   6.273   7.385   1.210 -0.7947 -0.0812  0.0690
 8643TIP3    H150124   6.288   7.318   1.275 -1.8361 -0.1142  0.2945
 8643TIP3    H250125   6.259   7.337   1.128  1.4601 -0.0073 -0.4114
 8644TIP3   OH250126   5.608   5.307   0.568 -0.1869 -0.2200  0.1393
 8644TIP3    H150127   5.696   5.296   0.603 -0.0505 -2.3553 -0.7201
 8644TIP3    H250128   5.581   5.219   0.542 -2.2318  0.5169 -0.4542
 8645TIP3   OH250129   2.057   0.605   2.257  0.5860  0.3121 -0.2887
 8645TIP3    H150130   2.132   0.549   2.239  1.4592  0.9921  1.1060
 8645TIP3    H250131   2.092   0.694   2.260 -0.2334  0.6281  0.5431
 8646TIP3   OH250132   5.749   3.844   9.498 -0.2464 -0.5467  0.6660
 8646TIP3    H150133   5.715   3.819   9.584 -0.7777 -0.0005  0.6225
 8646TIP3    H250134   5.816   3.910   9.517 -0.2536 -0.5409  0.6714
 8647TIP3   OH250135   0.311   0.210   9.843 -0.2290  0.5257  0.5290
 8647TIP3    H150136   0.318   0.144   9.911  1.4466  1.0421  0.9102
 8647TIP3    H250137   0.345   0.290   9.883  0.7283  0.8576 -0.8602
 8648TIP3   OH250138   3.551   2.974   8.317 -0.5173 -0.1306 -0.1114
 8648TIP3    H150139   3.572   2.930   8.235  2.5826  3.2157 -1.3771
 8648TIP3    H250140   3.600   2.926   8.384  1.0323  0.0217 -1.0867
 8649TIP3   OH250141   5.671   3.731   0.507 -0.2222  0.0571  0.2887
 8649TIP3    H150142   5.680   3.697   0.418 -1.2289  1.3593 -0.3483
 8649TIP3    H250143   5.706   3.820   0.503  1.7567 -0.5609  1.7615
 8650TIP3   OH250144   3.268   0.259   7.494 -0.6059  0.0257  0.5032
 8650TIP3    H150145   3.249   0.306   7.412 -2.5884 -1.5455 -0.0237
 8650TIP3    H250146   3.187   0.267   7.545 -0.0311 -0.5529  1.5343
 8651TIP3   OH250147   5.113   2.998   9.433 -0.0337 -0.1959 -0.1258
 8651TIP3    H150148   5.191   2.999   9.488  0.8764 -0.9916 -1.3695
 8651TIP3    H250149   5.146   2.991   9.344 -1.5227 -0.2703 -0.6979
 8652TIP3   OH250150   2.468   2.231   8.209 -0.2816  0.3325  0.7095
 8652TIP3    H150151   2.440   2.207   8.120  0.6053 -0.2948  0.5842
 8652TIP3    H250152   2.544   2.175   8.226 -1.2686 -0.5443  2.4069
 8653TIP3   OH250153   4.906   5.657   2.433  0.2610 -0.5759  0.3796
 8653TIP3    H150154   4.992   5.632   2.467  0.2942 -0.9239  0.0464
 8653TIP3    H250155   4.853   5.577   2.441 -0.2049 -0.2015  1.1313
 8654TIP3   OH250156   2.430   3.247   1.347 -0.2061 -0.1902 -0.6401
 8654TIP3    H150157   2.492   3.319   1.362  0.3404 -1.0887  2.0167
 8654TIP3    H250158   2.392   3.266   1.261  1.7602  1.8699 -1.1733
 8655TIP3   OH250159   3.795   5.696   8.719 -0.5787  0.2492  0.2926
 8655TIP3    H150160   3.851   5.717   8.645 -1.1400  0.6000 -0.0393
 8655TIP3    H250161   3.798   5.601   8.726  0.6384  0.3051  0.7454
 8656TIP3   OH250162   6.751   2.427   7.578  0.4934  0.4219  0.0023
 8656TIP3    H150163   6.799   2.469   7.507 -0.4846 -0.5922 -1.3157
 8656TIP3    H250164   6.818   2.403   7.642  1.4044  1.2727 -0.6100
 8657TIP3   OH250165   2.574   4.500   1.090 -0.6315  0.4786 -0.2369
 8657TIP3    H150166   2.556   4.470   1.179 -1.5730  1.9549  0.1055
 8657TIP3    H250167   2.611   4.424   1.046 -2.0488 -0.8927  0.8364
 8658TIP3   OH250168   1.715   7.493   0.120 -0.2213 -0.3309  0.4805
 8658TIP3    H150169   1.643   7.431   0.109 -0.7938  0.6075 -1.3874
 8658TIP3    H250170   1.741   7.516   0.031  1.7473  0.1137  1.1247
 8659TIP3   OH250171   2.985   4.360   1.591  0.3316  0.1174 -0.1137
 8659TIP3    H150172   2.978   4.329   1.500 -0.5045 -0.0122 -0.0158
 8659TIP3    H250173   3.076   4.342   1.615  0.7355  0.7340 -1.1280
 8660TIP3   OH250174   0.298   0.498   0.267  0.1926  0.3660 -0.2815
 8660TIP3    H150175   0.259   0.420   0.227 -0.0311  1.4754 -2.3932
 8660TIP3    H250176   0.233   0.527   0.331 -1.0709  0.4065 -1.5195
 8661TIP3   OH250177   7.675   0.500   9.904  0.2131  0.2805  0.0175
 8661TIP3    H150178   7.628   0.540   9.977 -1.2218 -1.0875 -0.1089
 8661TIP3    H250179   7.686   0.571   9.840 -1.1587  0.7867  0.3109
 8662TIP3   OH250180   0.816   3.927   9.529  0.2238  0.7212 -0.1371
 8662TIP3    H150181   0.904   3.960   9.508  0.6765 -0.3318  0.0299
 8662TIP3    H250182   0.832   3.846   9.577 -0.8273 -0.4585 -1.6897
 8663TIP3   OH250183   5.584   3.027   8.514 -0.6414 -0.2808 -0.3557
 8663TIP3    H150184   5.528   2.955   8.483  0.6597 -1.7029  0.4460
 8663TIP3    H250185   5.604   3.077   8.435 -0.2172 -1.7858 -1.2410
 8664TIP3   OH250186   0.207   4.595   9.905 -0.6559  0.0227  0.0463
 8664TIP3    H150187   0.149   4.631   9.973 -1.9669 -0.4428 -0.7977
 8664TIP3    H250188   0.189   4.648   9.828  1.1985  0.8777  0.1466
 8665TIP3   OH250189   4.056   7.638   8.843  0.7560 -0.7233  0.3906
 8665TIP3    H150190   4.134   7.602   8.884  0.3477 -0.9814  0.9469
 8665TIP3    H250191   3.983   7.593   8.885  0.2983 -0.3568  0.0056
 8666TIP3   OH250192   3.720   2.208   9.681 -0.2395  0.3502  0.1678
 8666TIP3    H150193   3.778   2.160   9.741 -0.8903  0.3740  0.8279
 8666TIP3    H250194   3.773   2.220   9.602 -0.3932 -2.4025 -0.4658
 8667TIP3   OH250195   0.886   5.096   1.487  0.3521 -0.6994 -0.2952
 8667TIP3    H150196   0.861   5.184   1.517  0.1745 -0.4360 -1.1620
 8667TIP3    H250197   0.811   5.041   1.509  0.0642 -0.4335 -0.5975
 8668TIP3   OH250198   5.682   2.246   9.141 -0.1562 -0.6463 -0.3263
 8668TIP3    H150199   5.681   2.291   9.056 -0.9861  0.7420  0.3910
 8668TIP3    H250200   5.697   2.154   9.119  1.4547 -0.0764 -1.8506
 8669TIP3   OH250201   7.273   4.404   1.978  0.0128  0.1755  0.5201
 8669TIP3    H150202   7.226   4.433   1.900  0.1848  1.0995  0.7399
 8669TIP3    H250203   7.213   4.345   2.023 -0.6741  0.8005  0.4424
 8670TIP3   OH250204   5.979   5.678   9.502 -0.2113  0.4519 -0.6879
 8670TIP3    H150205   6.048   5.744   9.510  0.7186 -0.5907  0.3736
 8670TIP3    H250206   6.025   5.597   9.479 -1.0415 -0.3015  0.1865
 8671TIP3   OH250207   0.962   2.918   0.861 -0.3277  0.1103 -0.0091
 8671TIP3    H150208   0.983   3.000   0.905 -0.2130  0.5464 -0.8620
 8671TIP3    H250209   0.935   2.860   0.932  1.0882  0.3785  0.7923
 8672TIP3   OH250210   2.441   6.674   9.431  0.5003  0.3300  0.5679
 8672TIP3    H150211   2.386   6.612   9.479  0.3357  0.5618  0.6833
 8672TIP3    H250212   2.482   6.622   9.362  1.7752 -0.3061  1.7471
 8673TIP3   OH250213   2.769   7.083   7.699  0.7050 -0.7488 -0.3211
 8673TIP3    H150214   2.792   7.140   7.626 -0.4186 -0.7084 -0.6520
 8673TIP3    H250215   2.674   7.082   7.701  0.6861 -2.3793 -0.1510
 8674TIP3   OH250216   6.997   5.716   1.826  0.2423  0.2167  0.1776
 8674TIP3    H150217   7.049   5.673   1.894  1.1227 -0.0880 -0.6680
 8674TIP3    H250218   6.951   5.786   1.872 -1.2474 -1.5846  1.6087
 8675TIP3   OH250219   1.351   3.387   9.344  0.4366 -0.1280 -0.9640
 8675TIP3    H150220   1.322   3.337   9.421  0.7711  0.0698 -0.7081
 8675TIP3    H250221   1.272   3.432   9.314  0.6763  1.2722  0.3890
 8676TIP3   OH250222   7.511   6.939   7.700  0.1839  0.1467 -0.0101
 8676TIP3    H150223   7.424   6.901   7.714  0.0419  0.1331 -0.8925
 8676TIP3    H250224   7.572   6.872   7.729 -0.0895  0.6906  1.9862
 8677TIP3   OH250225   1.095   1.025   2.427 -0.2688  0.3028 -0.0622
 8677TIP3    H150226   1.110   0.957   2.362 -1.9092 -1.9648  1.7643
 8677TIP3    H250227   1.146   0.997   2.503 -3.6632 -0.9328  1.9521
 8678TIP3   OH250228   0.362   5.661   8.063 -0.0077  0.0804  0.3126
 8678TIP3    H150229   0.288   5.715   8.037  0.0433 -0.1085 -0.2340
 8678TIP3    H250230   0.389   5.616   7.983 -0.4550 -1.2495  0.8714
 8679TIP3   OH250231   2.101   3.327   1.831 -0.1403 -0.0493 -0.1115
 8679TIP3    H150232   2.098   3.289   1.919  1.1978 -0.3376 -0.1623
 8679TIP3    H250233   2.166   3.397   1.838  0.1585 -0.2352 -0.9171
 8680TIP3   OH250234   4.834   3.972   8.998 -1.1001  1.0411 -0.0251
 8680TIP3    H150235   4.772   3.986   8.926 -0.4918  1.2966 -0.5068
 8680TIP3    H250236   4.884   4.054   9.003  0.0030  0.4203 -0.4391
 8681TIP3   OH250237   0.087   4.756   8.380  0.8911 -0.0163 -0.3155
 8681TIP3    H150238   0.027   4.714   8.318 -1.7233  3.7505 -0.7125
 8681TIP3    H250239   0.059   4.722   8.466 -0.7632  0.4034 -0.6446
 8682TIP3   OH250240   0.571   7.033   0.336 -0.6999  0.2025 -0.5322
 8682TIP3    H150241   0.532   7.108   0.381  1.2895  0.3304  1.1459
 8682TIP3    H250242   0.507   7.008   0.270 -3.4033  0.6640  1.7159
 8683TIP3   OH250243   6.858   7.111   2.470 -0.3529  0.9136  0.3633
 8683TIP3    H150244   6.896   7.184   2.520  2.5976 -1.2410  1.5785
 8683TIP3    H250245   6.928   7.086   2.409 -0.8508 -1.5354  0.7234
 8684TIP3   OH250246   7.345   0.499   8.181 -0.0147 -0.0266 -0.0051
 8684TIP3    H150247   7.427   0.473   8.224  0.3309  0.1318 -0.5557
 8684TIP3    H250248   7.277   0.448   8.224  0.5330 -1.1389 -0.4283
 8685TIP3   OH250249   0.236   2.583   9.430  0.3656  0.4368  0.2574
 8685TIP3    H150250   0.212   2.600   9.521 -0.4124  1.8116 -0.1681
 8685TIP3    H250251   0.166   2.623   9.379  0.4805 -0.8300 -0.9548
 8686TIP3   OH250252   1.424   3.649   9.209 -0.6710 -0.3439 -0.3052
 8686TIP3    H150253   1.460   3.563   9.232 -1.0594 -0.1512  1.1066
 8686TIP3    H250254   1.434   3.702   9.289  2.2216  1.8930 -1.9439
 8687TIP3   OH250255   5.501   1.286   1.620 -0.0772 -0.1180 -0.1058
 8687TIP3    H150256   5.431   1.352   1.611 -0.9914 -1.1202 -0.6499
 8687TIP3    H250257   5.466   1.222   1.683 -0.4400 -1.5682 -1.7057
 8688TIP3   OH250258   4.586   1.116   8.233 -0.2641 -0.2634  0.1594
 8688TIP3    H150259   4.601   1.206   8.262  0.2296 -0.3940  0.3254
 8688TIP3    H250260   4.627   1.111   8.147 -0.6433 -0.2200 -0.0239
 8689TIP3   OH250261   7.544   1.443   0.090 -0.7919  0.0832  0.0790
 8689TIP3    H150262   7.612   1.493   0.044 -0.5963 -0.1625  0.0988
 8689TIP3    H250263   7.496   1.398   0.020 -0.1010 -0.7841  0.1499
 8690TIP3   OH250264   2.645   2.486   0.029 -0.3459  0.0038  0.3113
 8690TIP3    H150265   2.676   2.397   0.048  2.0015  1.0815  2.0335
 8690TIP3    H250266   2.725   2.537   0.015 -1.5867  2.0518  0.2011
 8691TIP3   OH250267   4.396   1.655   9.491  0.2913 -0.7784  0.0248
 8691TIP3    H150268   4.480   1.675   9.449 -0.4606  0.9432 -0.7455
 8691TIP3    H250269   4.363   1.740   9.520 -0.7576 -1.5510  1.1950
 8692TIP3   OH250270   4.189   6.711   0.346 -0.1966  0.7068  0.3889
 8692TIP3    H150271   4.122   6.672   0.289  0.5577 -1.0034  0.5882
 8692TIP3    H250272   4.202   6.799   0.312 -1.0874  0.3621 -0.9326
 8693TIP3   OH250273   6.370   7.450   8.555 -0.0612 -0.2876 -0.2979
 8693TIP3    H150274   6.359   7.412   8.642 -0.3540  2.3480  0.9068
 8693TIP3    H250275   6.290   7.425   8.509 -0.5605 -0.5423  0.6697
 8694TIP3   OH250276   6.591   3.834   8.911  0.0596  0.4049 -0.2592
 8694TIP3    H150277   6.661   3.773   8.890 -0.0507 -0.0779  0.7256
 8694TIP3    H250278   6.511   3.781   8.912 -0.2772  0.8747 -0.9847
 8695TIP3   OH250279   0.096   1.683   8.900  0.0366  0.0982  0.4206
 8695TIP3    H150280   0.132   1.743   8.965 -0.5077  1.0072 -0.0943
 8695TIP3    H250281   0.167   1.621   8.882  0.2220 -0.1330  1.8124
 8696TIP3   OH250282   3.223   1.360   0.856  0.0493 -0.4515 -0.0905
 8696TIP3    H150283   3.153   1.404   0.809 -0.1832  0.0157  0.6817
 8696TIP3    H250284   3.290   1.427   0.868  1.0106 -1.0868 -1.5222
 8697TIP3   OH250285   0.094   7.601   9.560 -0.0075 -0.2262  0.0401
 8697TIP3    H150286   0.085   7.646   9.477 -1.1179  0.5406  0.5565
 8697TIP3    H250287   0.107   7.671   9.624  2.7819 -0.8646  0.3397
 8698TIP3   OH250288   4.976   5.021   2.654  0.0769  0.4167 -0.0135
 8698TIP3    H150289   5.018   5.100   2.687  1.2267  0.1409 -0.7586
 8698TIP3    H250290   4.893   5.051   2.617  0.3739  1.2249 -0.0353
 8699TIP3   OH250291   0.615   5.824   9.554 -0.6817  0.0640 -0.3116
 8699TIP3    H150292   0.607   5.911   9.594 -0.2652 -0.3836  0.7930
 8699TIP3    H250293   0.611   5.763   9.628 -0.0934 -0.8129 -0.9775
 8700TIP3   OH250294   7.411   2.943   1.466  0.3250  0.1198 -0.1274
 8700TIP3    H150295   7.426   3.007   1.535  1.4163  0.9544 -1.0992
 8700TIP3    H250296   7.338   2.889   1.499 -1.1771  2.3228  0.4115
 8701TIP3   OH250297   7.504   4.986   8.580 -0.3067  0.0766  0.1740
 8701TIP3    H150298   7.490   5.014   8.671 -1.0653  0.0399  0.0797
 8701TIP3    H250299   7.539   4.898   8.587 -1.2245 -0.2819  0.4315
 8702TIP3   OH250300   3.975   4.532   1.174  0.3609  0.3032  0.2485
 8702TIP3    H150301   3.933   4.459   1.128  1.1366  1.2106 -2.0567
 8702TIP3    H250302   4.042   4.492   1.228 -0.1129 -0.7697  0.0572
 8703TIP3   OH250303   4.802   2.043   0.156 -0.3404  0.6740 -0.1549
 8703TIP3    H150304   4.840   2.112   0.211 -1.2423  1.3103 -0.3169
 8703TIP3    H250305   4.709   2.043   0.178 -0.6146  0.5630 -1.2942
 8704TIP3   OH250306   3.174   3.489   1.512  0.0174 -0.0549  0.2010
 8704TIP3    H150307   3.084   3.471   1.485 -0.7627  3.3394  0.1096
 8704TIP3    H250308   3.177   3.466   1.605 -1.0997  0.2505  0.3203
 8705TIP3   OH250309   5.948   3.720   7.490  0.0945  0.3404  0.0016
 8705TIP3    H150310   5.944   3.815   7.484  0.0398  0.4975  2.0961
 8705TIP3    H250311   6.040   3.698   7.470 -0.2521  0.6208 -2.2159
 8706TIP3   OH250312   1.425   2.793   1.227 -0.2938 -0.5147  0.4178
 8706TIP3    H150313   1.505   2.744   1.206  1.0700  1.7615 -0.1154
 8706TIP3    H250314   1.452   2.855   1.295 -1.3543  0.8703 -0.3736
 8707TIP3   OH250315   1.269   7.582   8.429  0.2554  0.5776 -0.4230
 8707TIP3    H150316   1.358   7.611   8.448 -0.4750  1.7936  1.3905
 8707TIP3    H250317   1.216   7.622   8.498 -1.5817 -0.7889 -0.9877
 8708TIP3   OH250318   0.943   2.797   1.132  0.2382 -0.2888 -0.2651
 8708TIP3    H150319   0.899   2.755   1.206  0.5868 -0.6822 -0.2755
 8708TIP3    H250320   0.998   2.864   1.172  0.1386 -0.2448 -0.2002
 8709TIP3   OH250321   4.574   6.695   8.063  0.0535 -0.2194 -0.0621
 8709TIP3    H150322   4.642   6.660   8.005 -0.6362 -1.3546 -0.2014
 8709TIP3    H250323   4.499   6.710   8.006 -0.5841 -1.2059  0.4903
 8710TIP3   OH250324   6.699   0.666   0.023 -0.3078  0.2991 -0.5076
 8710TIP3    H150325   6.733   0.743   0.069 -0.6749  0.4200 -0.4370
 8710TIP3    H250326   6.776   0.610   0.011  0.1204  1.0266 -1.2615
 8711TIP3   OH250327   0.397   5.500   8.667 -0.5480  0.2992 -0.3228
 8711TIP3    H150328   0.365   5.590   8.659 -3.3047 -0.5177  0.6295
 8711TIP3    H250329   0.319   5.446   8.666  1.0355 -2.1460 -0.9132
 8712TIP3   OH250330   5.391   3.129   1.540 -0.2539  0.2198 -0.3109
 8712TIP3    H150331   5.475   3.086   1.556 -0.6836  0.3300  2.8393
 8712TIP3    H250332   5.392   3.206   1.598 -1.4309  1.8421 -2.3087
 8713TIP3   OH250333   3.647   2.154   8.078 -0.2513  0.0564 -0.0953
 8713TIP3    H150334   3.687   2.176   7.994 -3.7461  0.4236 -1.8470
 8713TIP3    H250335   3.604   2.235   8.105 -0.0482 -0.3610  1.5940
 8714TIP3   OH250336   7.330   6.181   0.869  0.0633 -0.5163 -0.2072
 8714TIP3    H150337   7.295   6.205   0.783 -0.4431  1.4165  0.4894
 8714TIP3    H250338   7.368   6.262   0.903 -0.1709 -1.1231  1.5970
 8715TIP3   OH250339   0.695   3.230   1.288 -0.1641  0.2891  0.5859
 8715TIP3    H150340   0.758   3.158   1.298 -0.4839 -0.0711  0.1067
 8715TIP3    H250341   0.705   3.257   1.197 -1.1525 -0.2187  0.3065
 8716TIP3   OH250342   6.573   7.002   0.688 -0.8371 -0.3555 -0.0392
 8716TIP3    H150343   6.547   7.006   0.780  0.0055 -1.5050  0.2628
 8716TIP3    H250344   6.654   6.953   0.687 -1.1890 -0.9774 -1.4730
 8717TIP3   OH250345   5.625   4.530   8.093 -0.4277  0.2501  0.4912
 8717TIP3    H150346   5.588   4.615   8.115 -1.7109  0.5684 -2.5051
 8717TIP3    H250347   5.705   4.550   8.044 -0.4202 -0.2902  0.2731
 8718TIP3   OH250348   1.393   7.130   0.988 -0.2092 -0.4322 -0.5604
 8718TIP3    H150349   1.359   7.176   1.065 -1.3634  0.0093 -1.3039
 8718TIP3    H250350   1.326   7.064   0.968 -0.2036 -0.1697 -1.4979
 8719TIP3   OH250351   2.777   1.398   0.432 -0.1388 -0.0812 -0.2263
 8719TIP3    H150352   2.722   1.319   0.425  0.5693 -0.7259  1.0009
 8719TIP3    H250353   2.796   1.404   0.526  2.4131 -0.2761 -0.6771
 8720TIP3   OH250354   4.907   0.192   9.244 -0.7065 -0.2862  0.2035
 8720TIP3    H150355   4.931   0.180   9.152 -1.4985 -1.5483  0.1412
 8720TIP3    H250356   4.861   0.277   9.246  3.3376  2.1768  0.2943
 8721TIP3   OH250357   5.201   7.570   2.053  0.5253  0.0957 -0.0722
 8721TIP3    H150358   5.205   7.609   1.965 -0.3226 -1.8603 -1.0454
 8721TIP3    H250359   5.134   7.621   2.099  1.4120  1.5434 -0.2931
 8722TIP3   OH250360   4.807   5.403   1.495  0.3195 -0.6522 -0.1624
 8722TIP3    H150361   4.824   5.447   1.411  0.1847  2.6486  1.3873
 8722TIP3    H250362   4.798   5.475   1.558  0.6763 -3.0030  2.7648
 8723TIP3   OH250363   0.234   2.387   8.959  0.2165 -0.1972 -0.0261
 8723TIP3    H150364   0.247   2.408   8.866 -0.8659 -0.9712 -0.3832
 8723TIP3    H250365   0.284   2.453   9.006  3.2527 -1.4901 -1.1720
 8724TIP3   OH250366   1.729   0.220   9.266  0.0258  0.0362  0.1744
 8724TIP3    H150367   1.724   0.303   9.219  1.2104 -0.2121 -0.4211
 8724TIP3    H250368   1.638   0.193   9.278 -0.3203  0.1643 -1.8759
 8725TIP3   OH250369   6.925   7.476   9.476 -0.3187 -0.1042  0.0001
 8725TIP3    H150370   7.013   7.457   9.508  0.2549  1.5803 -0.4871
 8725TIP3    H250371   6.895   7.549   9.530 -0.8485  0.2576 -0.7638
 8726TIP3   OH250372   3.951   0.271   9.102 -0.0701  0.6784 -0.2640
 8726TIP3    H150373   3.885   0.317   9.155  0.6415  0.2508  1.0290
 8726TIP3    H250374   3.969   0.331   9.029 -0.3964  1.7082  0.4758
 8727TIP3   OH250375   0.852   1.176   8.680 -0.0115 -0.2460  0.0904
 8727TIP3    H150376   0.872   1.231   8.756 -1.2734 -0.8364  0.8934
 8727TIP3    H250377   0.764   1.204   8.653  0.0492 -0.6799 -0.5727
 8728TIP3   OH250378   5.929   7.418   8.182 -0.0890  0.1625 -0.8750
 8728TIP3    H150379   5.961   7.508   8.181 -1.7567  0.8111  0.4366
 8728TIP3    H250380   5.914   7.398   8.274  1.3372 -1.9105 -1.0048
 8729TIP3   OH250381   1.730   6.216   9.331 -0.3164  0.3500 -0.5161
 8729TIP3    H150382   1.746   6.306   9.358  0.3342  0.3465 -0.8560
 8729TIP3    H250383   1.741   6.216   9.236 -1.1483  0.0760 -0.6182
 8730TIP3   OH250384   5.276   7.211   8.758  0.4019  0.0198 -0.0384
 8730TIP3    H150385   5.303   7.269   8.687 -0.4587 -1.2103 -1.4385
 8730TIP3    H250386   5.221   7.266   8.814  0.1910  0.7558 -0.9346
 8731TIP3   OH250387   6.073   3.791   9.846  0.1936  0.2662  0.2456
 8731TIP3    H150388   6.073   3.886   9.843  0.7222  0.3498  1.8119
 8731TIP3    H250389   6.034   3.764   9.763  0.4264  1.8276 -0.4003
 8732TIP3   OH250390   4.646   7.445   8.785 -0.1130  0.2439 -0.0007
 8732TIP3    H150391   4.561   7.440   8.743 -0.4102 -0.2115  0.6491
 8732TIP3    H250392   4.627   7.452   8.879  0.5060  2.1527  0.0302
 8733TIP3   OH250393   1.955   3.963   2.032  0.0524  0.3002  0.3759
 8733TIP3    H150394   1.980   3.950   1.941 -2.3688  2.0420 -0.6233
 8733TIP3    H250395   1.882   3.903   2.046  0.9439 -0.5689  1.4672
 8734TIP3   OH250396   3.861   3.855   7.067  0.0497 -0.5146 -0.0978
 8734TIP3    H150397   3.927   3.792   7.096 -0.4676 -1.9921 -1.9338
 8734TIP3    H250398   3.844   3.909   7.144  3.6149  0.1737  0.3507
 8735TIP3   OH250399   3.898   6.404   3.042  0.2741 -0.0446 -0.1261
 8735TIP3    H150400   3.858   6.333   2.992 -0.6628 -0.2411  0.8631
 8735TIP3    H250401   3.950   6.360   3.110 -0.6006  0.1876  0.7155
 8736TIP3   OH250402   4.919   0.469   8.559  0.2145 -0.3111 -0.2215
 8736TIP3    H150403   4.928   0.379   8.587 -0.5362 -0.1516  0.5678
 8736TIP3    H250404   4.883   0.463   8.470 -0.3555 -0.7836  0.0361
 8737TIP3   OH250405   1.576   7.230   1.198  0.1021 -0.4195  0.5555
 8737TIP3    H150406   1.553   7.231   1.105  2.2381  1.6654 -0.0371
 8737TIP3    H250407   1.493   7.211   1.242 -1.5360  0.9966 -1.6587
 8738TIP3   OH250408   0.399   0.940   0.263  0.3681 -0.1038  0.3251
 8738TIP3    H150409   0.305   0.947   0.281  0.2338 -0.2066 -0.3209
 8738TIP3    H250410   0.429   0.870   0.321 -0.8257 -3.2766 -2.5082
 8739TIP3   OH250411   6.382   5.652   9.872 -0.1379  0.7369 -0.7100
 8739TIP3    H150412   6.297   5.608   9.863  1.2638 -2.4828  0.3259
 8739TIP3    H250413   6.396   5.658   9.967  1.2664  0.0861 -0.8505
 8740TIP3   OH250414   1.917   5.150   2.501  0.2401 -0.1548 -1.0056
 8740TIP3    H150415   1.899   5.062   2.533 -0.1159  0.4711  0.5927
 8740TIP3    H250416   1.848   5.204   2.539 -0.0605  0.6959 -2.6649
 8741TIP3   OH250417   2.392   0.319   1.675  0.3063  0.0985  0.1883
 8741TIP3    H150418   2.298   0.338   1.681  0.3607  0.0844  1.4697
 8741TIP3    H250419   2.434   0.405   1.677  0.3545  0.0718  1.0278
 8742TIP3   OH250420   3.875   7.607   1.734 -0.1162 -0.1247  0.2439
 8742TIP3    H150421   3.843   7.672   1.796  0.6239  1.1693 -0.6818
 8742TIP3    H250422   3.952   7.648   1.693 -0.9329 -0.6330 -1.9775
 8743TIP3   OH250423   5.432   3.928   8.596 -0.1905 -0.0021 -0.3460
 8743TIP3    H150424   5.342   3.956   8.581  0.2957  2.7768  1.2263
 8743TIP3    H250425   5.444   3.937   8.690  1.1151 -2.5713 -0.1757
 8744TIP3   OH250426   3.804   5.915   8.912  0.0051  0.3544 -0.2659
 8744TIP3    H150427   3.876   5.887   8.969 -0.5908  1.4844  1.1128
 8744TIP3    H250428   3.814   5.862   8.833 -0.0002 -2.3669  1.4401
 8745TIP3   OH250429   3.219   5.645   9.864 -0.8377  0.3218 -1.1146
 8745TIP3    H150430   3.239   5.626   9.772 -2.4711  0.6167 -1.5635
 8745TIP3    H250431   3.133   5.605   9.878  0.4004 -1.7916  0.9941
 8746TIP3   OH250432   2.658   4.716   7.528 -0.3998 -0.1039 -0.0335
 8746TIP3    H150433   2.614   4.664   7.461  0.4503  0.7747 -1.3412
 8746TIP3    H250434   2.751   4.712   7.504 -0.1325  0.6363  0.8132
 8747TIP3   OH250435   5.007   6.462   2.639  0.1371 -0.0830 -0.5405
 8747TIP3    H150436   4.995   6.452   2.734 -0.7024 -0.2445 -0.6553
 8747TIP3    H250437   5.088   6.416   2.620 -0.6926 -1.7544 -0.1935
 8748TIP3   OH250438   3.992   4.753   0.872  0.2564  0.0647  0.0666
 8748TIP3    H150439   4.085   4.736   0.855 -0.0051 -1.1191 -0.2942
 8748TIP3    H250440   3.992   4.822   0.938  1.4381 -1.0630  1.3302
 8749TIP3   OH250441   3.318   4.378   0.299  0.2881  0.2543  0.2153
 8749TIP3    H150442   3.272   4.390   0.216  0.9860  0.4745 -0.1563
 8749TIP3    H250443   3.351   4.288   0.295 -1.6231 -0.5422  1.2808
 8750TIP3   OH250444   4.348   4.270   9.120  0.1461 -0.3680 -0.3597
 8750TIP3    H150445   4.256   4.276   9.145  0.0676  2.3772 -0.9666
 8750TIP3    H250446   4.346   4.256   9.025  0.3677 -0.3625 -0.3664
 8751TIP3   OH250447   3.795   5.429   8.722 -0.0457  0.0746 -0.4091
 8751TIP3    H150448   3.856   5.434   8.795  0.3647  1.0735 -0.7942
 8751TIP3    H250449   3.790   5.336   8.700 -1.9358 -0.5837  2.3085
 8752TIP3   OH250450   6.991   0.944   0.788  0.1503  0.3361 -0.3484
 8752TIP3    H150451   6.896   0.952   0.781 -0.3724 -3.0702  0.6755
 8752TIP3    H250452   7.025   1.016   0.735 -2.9776  0.9925 -1.7396
 8753TIP3   OH250453   6.357   3.568   1.075 -0.1482 -0.1604 -0.1028
 8753TIP3    H150454   6.421   3.508   1.038  0.8307  0.2742  0.8253
 8753TIP3    H250455   6.325   3.524   1.154  0.5369  0.5002  0.5533
 8754TIP3   OH250456   6.886   3.943   9.650  0.3329 -0.3124  0.1168
 8754TIP3    H150457   6.980   3.930   9.642  0.2590 -0.7348 -0.1062
 8754TIP3    H250458   6.850   3.905   9.570 -0.1685 -1.7510  0.9916
 8755TIP3   OH250459   4.929   3.731   8.862  0.2360  0.3288 -0.1079
 8755TIP3    H150460   4.861   3.722   8.794  0.7483  2.2502 -0.9624
 8755TIP3    H250461   4.880   3.754   8.941 -0.1359  2.1437 -0.8155
 8756TIP3   OH250462   6.782   0.038   8.016  0.1263  0.1478  0.0622
 8756TIP3    H150463   6.864   0.087   8.020 -0.6597  1.4230  1.7613
 8756TIP3    H250464   6.784  -0.007   7.931  2.1923  0.7980 -0.2720
 8757TIP3   OH250465   3.968   2.964   8.912  0.4495 -0.0728  0.0842
 8757TIP3    H150466   3.993   2.960   9.004  0.1349  0.6390  0.2058
 8757TIP3    H250467   4.029   3.027   8.873 -1.1015  1.6861  0.3853
 8758TIP3   OH250468   3.042   0.095   2.161  0.0942  0.0420 -0.2865
 8758TIP3    H150469   3.061   0.163   2.226  1.1991 -0.7472  0.2522
 8758TIP3    H250470   2.973   0.042   2.200 -0.4910  0.6090 -0.5371
 8759TIP3   OH250471   3.079   1.159   9.107 -0.2880 -0.5390  0.1905
 8759TIP3    H150472   3.160   1.132   9.065 -0.0062 -0.4415  0.6645
 8759TIP3    H250473   3.077   1.111   9.190 -0.1678  0.2882  0.6839
 8760TIP3   OH250474   7.248   0.790   9.772  0.2179 -0.0408 -0.6155
 8760TIP3    H150475   7.259   0.723   9.839  1.3088  0.5198 -0.2054
 8760TIP3    H250476   7.185   0.851   9.809 -2.5082 -1.9068 -1.8834
 8761TIP3   OH250477   3.390   6.543   0.211 -0.0332 -0.5076 -0.1424
 8761TIP3    H150478   3.464   6.544   0.151 -0.5602  1.1562 -0.7959
 8761TIP3    H250479   3.319   6.500   0.162 -0.7673  1.7319 -1.1520
 8762TIP3   OH250480   2.569   1.116   1.143  0.8314 -0.3564  0.2280
 8762TIP3    H150481   2.488   1.088   1.188  0.3488 -2.7822 -1.8985
 8762TIP3    H250482   2.548   1.202   1.108 -0.7413 -0.7803  0.0365
 8763TIP3   OH250483   5.743   6.227   7.206  0.5698 -0.1753 -0.4410
 8763TIP3    H150484   5.766   6.317   7.232 -2.9085  1.1919 -1.5017
 8763TIP3    H250485   5.770   6.221   7.115 -0.0207  0.1825 -0.6488
 8764TIP3   OH250486   7.146   6.112   7.593 -0.5088 -0.1728 -0.3322
 8764TIP3    H150487   7.069   6.072   7.552 -1.7287  0.6791  0.9989
 8764TIP3    H250488   7.212   6.113   7.525 -1.0448 -2.6490 -0.9898
 8765TIP3   OH250489   4.858   4.692   0.841 -0.6149 -0.0468 -0.0366
 8765TIP3    H150490   4.807   4.653   0.912  0.7340 -0.7864  0.5546
 8765TIP3    H250491   4.843   4.786   0.850 -0.3097 -0.1163  1.3525
 8766TIP3   OH250492   6.004   2.650   1.743  0.2134  0.0699 -0.0514
 8766TIP3    H150493   5.963   2.586   1.800 -1.0279  0.1591 -0.7919
 8766TIP3    H250494   6.041   2.715   1.803  0.5182 -0.7554  0.6746
 8767TIP3   OH250495   2.180   6.073   9.485  0.0406  0.7394 -0.2571
 8767TIP3    H150496   2.263   6.084   9.438  0.1576  1.5641  0.1241
 8767TIP3    H250497   2.132   6.154   9.468 -0.3682  0.5876  0.1605
 8768TIP3   OH250498   2.075   3.096   9.151 -0.1306 -0.0999 -1.1628
 8768TIP3    H150499   2.109   3.007   9.160  1.2976  0.3848 -1.4875
 8768TIP3    H250500   2.024   3.110   9.231  0.1538 -0.9842 -0.8078
 8769TIP3   OH250501   4.147   1.383   8.932  0.2743  0.2313 -0.1963
 8769TIP3    H150502   4.225   1.434   8.908  0.5641 -0.8655 -1.7163
 8769TIP3    H250503   4.079   1.412   8.872 -0.0963  0.1633  0.1840
 8770TIP3   OH250504   4.475   1.758   9.824 -0.3898 -0.1168  0.0148
 8770TIP3    H150505   4.433   1.811   9.756 -0.5741 -0.7643 -0.3766
 8770TIP3    H250506   4.422   1.679   9.829  1.2709 -1.3674 -1.1249
 8771TIP3   OH250507   3.341   3.506   8.902 -0.3079 -0.1864  0.1459
 8771TIP3    H150508   3.282   3.437   8.874  0.1652 -0.2527 -0.7233
 8771TIP3    H250509   3.421   3.491   8.852  1.6906 -2.0250  3.5334
 8772TIP3   OH250510   7.371   1.555   8.408  0.1017 -0.1973 -1.0174
 8772TIP3    H150511   7.432   1.602   8.465 -0.0631  0.1235 -1.1043
 8772TIP3    H250512   7.417   1.547   8.325  0.5883 -1.2021 -0.6716
 8773TIP3   OH250513   4.746   0.746   2.225 -0.7807 -0.1312  0.0314
 8773TIP3    H150514   4.827   0.702   2.247 -0.3969  1.2297  1.4644
 8773TIP3    H250515   4.747   0.827   2.276 -1.4830  1.5392 -2.4113
 8774TIP3   OH250516   3.367   4.343   7.583 -0.1797 -0.1364 -0.0052
 8774TIP3    H150517   3.301   4.412   7.582  0.8548  0.9333 -2.4360
 8774TIP3    H250518   3.353   4.296   7.500  2.1516  0.2236 -0.6606
 8775TIP3   OH250519   5.309   1.106   1.344 -0.0598  0.0858 -1.1127
 8775TIP3    H150520   5.256   1.130   1.420  2.2352 -0.0852  0.6718
 8775TIP3    H250521   5.310   1.185   1.290  0.0081  0.9799  0.1437
 8776TIP3   OH250522   4.001   7.384   9.683 -0.1455  0.0976  0.1735
 8776TIP3    H150523   4.041   7.341   9.608  0.3039 -0.7348  0.8792
 8776TIP3    H250524   4.063   7.453   9.707  1.1010 -1.3763  1.4521
 8777TIP3   OH250525   7.421   4.522   0.418  0.5075 -0.0977  0.4089
 8777TIP3    H150526   7.351   4.545   0.478 -1.1375  0.1402 -1.4719
 8777TIP3    H250527   7.381   4.457   0.359  2.1576 -0.6481 -0.1633
 8778TIP3   OH250528   5.137   2.683   1.385 -0.0314  0.0929 -0.5917
 8778TIP3    H150529   5.220   2.730   1.396  0.3511  0.0298 -2.7609
 8778TIP3    H250530   5.142   2.611   1.448  0.8824  0.9228  0.3435
 8779TIP3   OH250531   2.658   0.606   8.876  0.0802 -0.2760  0.4036
 8779TIP3    H150532   2.703   0.665   8.816 -1.3338 -0.2691 -0.7064
 8779TIP3    H250533   2.601   0.553   8.819  0.0163 -1.5007  1.5601
 8780TIP3   OH250534   3.986   1.066   8.263  0.8437 -0.6131 -0.3196
 8780TIP3    H150535   3.951   1.142   8.217  2.2590 -0.3455 -1.0223
 8780TIP3    H250536   3.969   1.084   8.355 -2.3719 -1.3211 -0.6552
 8781TIP3   OH250537   0.504   3.580   8.954  0.1443  0.4172  0.3856
 8781TIP3    H150538   0.584   3.583   9.007  0.3581  0.2352  0.0731
 8781TIP3    H250539   0.457   3.661   8.977  0.5089  0.6202  0.4260
 8782TIP3   OH250540   3.364   1.781   3.024 -0.5512  0.0223  0.0562
 8782TIP3    H150541   3.303   1.851   3.003 -1.4655 -1.1218 -1.3030
 8782TIP3    H250542   3.319   1.729   3.090  0.1999  0.7626  1.1972
 8783TIP3   OH250543   4.709   5.733   8.397 -0.5994 -0.5887  0.1457
 8783TIP3    H150544   4.646   5.674   8.355  0.1176 -0.1038 -1.7089
 8783TIP3    H250545   4.692   5.818   8.358  1.3905 -0.5142 -0.6793
 8784TIP3   OH250546   7.020   1.190   8.264  0.0845 -0.0995 -0.4536
 8784TIP3    H150547   6.985   1.246   8.194  1.1895 -0.7328 -1.5495
 8784TIP3    H250548   7.060   1.252   8.326 -0.1263  0.4211 -0.8314
 8785TIP3   OH250549   7.207   7.160   1.806  0.4045 -0.2534  0.0404
 8785TIP3    H150550   7.231   7.131   1.894  0.2051 -0.6623 -0.0400
 8785TIP3    H250551   7.255   7.102   1.747  1.1155  0.4886 -0.1291
 8786TIP3   OH250552   4.005   6.199   1.963  0.3166  0.0071 -0.5775
 8786TIP3    H150553   4.050   6.225   1.882  0.5376 -0.6368 -0.6632
 8786TIP3    H250554   3.948   6.127   1.936 -3.1065  2.6415 -1.1554
 8787TIP3   OH250555   6.802   7.235   1.519  0.5587  0.2663  0.3561
 8787TIP3    H150556   6.823   7.160   1.464 -0.1258  0.5232 -0.2850
 8787TIP3    H250557   6.884   7.259   1.562  0.9393 -0.3844 -0.0061
 8788TIP3   OH250558   4.854   5.955   0.048 -0.3994 -0.4730 -0.6885
 8788TIP3    H150559   4.891   5.969   0.135 -0.9170 -0.2061 -0.5033
 8788TIP3    H250560   4.786   5.889   0.062 -2.4492  1.5840 -0.3218
 8789TIP3   OH250561   4.310   3.359   7.931 -0.1381  0.3023 -0.3796
 8789TIP3    H150562   4.291   3.449   7.903  1.8295  0.7439 -0.4486
 8789TIP3    H250563   4.343   3.316   7.852 -1.1156 -0.5320 -0.3620
 8790TIP3   OH250564   5.976   0.928   0.639 -0.5674 -0.4889  0.1090
 8790TIP3    H150565   5.894   0.949   0.596  0.0121  0.3357 -0.6331
 8790TIP3    H250566   5.961   0.842   0.679 -1.8400 -0.2582  0.1639
 8791TIP3   OH250567   3.894   0.600   0.124  0.0968  0.1764 -0.0037
 8791TIP3    H150568   3.808   0.640   0.136 -0.1098 -0.2602 -0.0136
 8791TIP3    H250569   3.939   0.613   0.208  0.0420  0.4507 -0.0169
 8792TIP3   OH250570   0.076   1.124   9.354  0.1500  0.0627 -0.3873
 8792TIP3    H150571   0.115   1.204   9.318 -1.6261  1.1826  0.0324
 8792TIP3    H250572  -0.018   1.133   9.337 -0.3196 -1.0529  1.3026
 8793TIP3   OH250573   6.406   4.871   9.826 -0.6338 -0.0778  0.0148
 8793TIP3    H150574   6.413   4.934   9.754  0.5592  1.6251  1.5101
 8793TIP3    H250575   6.488   4.822   9.822 -0.2285  0.5264  0.6121
 8794TIP3   OH250576   7.215   3.532   8.169 -0.7401  0.5413 -0.0414
 8794TIP3    H150577   7.225   3.456   8.112 -2.5292 -0.2415  0.6041
 8794TIP3    H250578   7.232   3.607   8.113  0.7761 -0.3032 -0.7702
 8795TIP3   OH250579   2.955   2.172   0.558  0.4083 -0.0066 -0.3718
 8795TIP3    H150580   3.049   2.157   0.550  0.0647 -2.6998 -0.5065
 8795TIP3    H250581   2.933   2.143   0.647 -0.4449 -0.7736 -0.8023
 8796TIP3   OH250582   0.648   7.003   9.371 -0.1750  0.3455  0.5134
 8796TIP3    H150583   0.712   6.967   9.432 -0.0559 -1.8396 -0.7554
 8796TIP3    H250584   0.690   7.080   9.334  2.0451 -1.2766 -0.6337
 8797TIP3   OH250585   4.931   2.171   1.195 -0.0676  0.1965 -0.3636
 8797TIP3    H150586   4.937   2.092   1.140 -0.9371 -0.3657  0.3168
 8797TIP3    H250587   5.021   2.204   1.199  0.2322 -0.4975 -1.0357
 8798TIP3   OH250588   2.321   2.647   9.430 -0.3185 -0.5809 -0.0379
 8798TIP3    H150589   2.300   2.575   9.489  1.3020 -1.8192 -0.8817
 8798TIP3    H250590   2.247   2.707   9.438 -1.5631 -2.1600  0.9599
 8799TIP3   OH250591   2.266   6.778   8.763 -0.1200  0.4572  0.7948
 8799TIP3    H150592   2.174   6.767   8.785 -0.5546 -2.0430 -1.7514
 8799TIP3    H250593   2.273   6.868   8.732 -1.3653  1.1174  2.2954
 8800TIP3   OH250594   7.464   3.357   1.242  0.1409 -0.1475 -0.2132
 8800TIP3    H150595   7.521   3.283   1.259 -0.7478 -0.9142 -0.4689
 8800TIP3    H250596   7.391   3.347   1.303 -0.4982 -0.0726 -0.9382
 8801TIP3   OH250597   3.082   0.797   8.538 -0.2576 -0.6349  0.0519
 8801TIP3    H150598   3.054   0.753   8.458 -1.0561  0.5084 -0.3192
 8801TIP3    H250599   3.056   0.888   8.526  1.3206 -0.0351  0.8079
 8802TIP3   OH250600   0.615   6.406   1.014  0.1796 -0.5760 -0.4871
 8802TIP3    H150601   0.592   6.499   1.003 -0.3705 -0.6751 -0.2094
 8802TIP3    H250602   0.530   6.361   1.020  0.4337 -1.1974 -1.4100
 8803TIP3   OH250603   6.382   3.847   8.568 -0.1901  0.1636  0.1508
 8803TIP3    H150604   6.452   3.814   8.511 -0.5837 -0.5908  0.0995
 8803TIP3    H250605   6.322   3.892   8.509  0.3020  0.9314  0.2101
 8804TIP3   OH250606   1.262   2.408   8.820  0.1927 -0.2103 -0.2366
 8804TIP3    H150607   1.317   2.349   8.769  0.1181  0.1358 -0.7276
 8804TIP3    H250608   1.221   2.352   8.886 -0.6036 -0.8977 -1.2835
 8805TIP3   OH250609   0.221   3.621   1.500 -0.4256  0.0655  0.4547
 8805TIP3    H150610   0.228   3.553   1.433  1.0182  1.2103 -0.6375
 8805TIP3    H250611   0.308   3.628   1.538 -0.3193  1.7551  0.0215
 8806TIP3   OH250612   3.829   4.965   9.197 -0.8929 -0.4212  0.2968
 8806TIP3    H150613   3.838   5.049   9.152  1.3172 -0.6575  0.1817
 8806TIP3    H250614   3.857   4.983   9.287 -3.1726 -0.4347  1.0502
 8807TIP3   OH250615   0.697   0.396   0.937  0.3058 -0.4766  0.4797
 8807TIP3    H150616   0.650   0.426   1.015  0.5199  0.0502  0.4090
 8807TIP3    H250617   0.661   0.309   0.920 -0.8442  0.0308  0.2609
 8808TIP3   OH250618   2.123   4.890   2.394  0.4062 -0.1445  0.4976
 8808TIP3    H150619   2.114   4.812   2.338  0.6725  0.6268 -0.6529
 8808TIP3    H250620   2.080   4.960   2.346  2.2271  0.9559  0.3526
 8809TIP3   OH250621   4.952   6.810   8.345 -0.6327 -0.2110 -0.2239
 8809TIP3    H150622   4.957   6.742   8.412 -0.0116  0.1796  0.1392
 8809TIP3    H250623   4.859   6.815   8.322 -0.8022 -0.5793  0.3678
 8810TIP3   OH250624   6.064   1.735   2.164 -0.2041  0.5722 -0.2623
 8810TIP3    H150625   6.035   1.691   2.244  0.2821  0.1161 -0.3303
 8810TIP3    H250626   6.160   1.728   2.166 -0.1847  0.6137 -0.8510
 8811TIP3   OH250627   5.410   5.762   8.875  0.4628 -0.4559  0.3991
 8811TIP3    H150628   5.419   5.669   8.853 -0.0155 -0.8571  1.8361
 8811TIP3    H250629   5.332   5.790   8.826  0.0055 -1.0718  0.7618
 8812TIP3   OH250630   3.875   6.163   8.668  0.2526 -0.2578 -0.3844
 8812TIP3    H150631   3.825   6.097   8.620  2.1771 -2.6263  0.6717
 8812TIP3    H250632   3.922   6.212   8.600 -0.8457 -0.2538 -1.1670
 8813TIP3   OH250633   2.518   4.724   8.861 -0.0972 -0.5083  0.4150
 8813TIP3    H150634   2.500   4.804   8.910 -0.9378  0.0205 -0.7245
 8813TIP3    H250635   2.580   4.750   8.793 -1.8446 -0.3218 -1.2011
 8814TIP3   OH250636   0.255   3.194   1.519  0.3445  0.2014  0.1513
 8814TIP3    H150637   0.192   3.265   1.507 -0.6220 -0.0224  3.1603
 8814TIP3    H250638   0.321   3.230   1.579  0.2359 -1.1765  1.1482
 8815TIP3   OH250639   4.372   0.130   8.026 -0.1236 -0.1685  0.0825
 8815TIP3    H150640   4.443   0.193   8.019  1.3075 -1.8251 -1.5786
 8815TIP3    H250641   4.298   0.172   7.984  0.3057  1.0339  0.5032
 8816TIP3   OH250642   1.904   5.642   1.283  0.0130 -0.8712 -0.1493
 8816TIP3    H150643   1.814   5.629   1.254 -0.5727 -0.6349  1.4862
 8816TIP3    H250644   1.926   5.731   1.255  0.0179 -1.1889 -1.1971
 8817TIP3   OH250645   1.848   7.295   6.988  0.2085 -0.0747 -0.5320
 8817TIP3    H150646   1.832   7.242   6.909  0.2517 -1.5409  0.4050
 8817TIP3    H250647   1.853   7.385   6.956  0.2404 -0.6377 -2.2094
 8818TIP3   OH250648   7.509   0.766   9.342  0.2136 -0.2285  0.1006
 8818TIP3    H150649   7.451   0.741   9.415 -1.0131  0.7251 -0.5268
 8818TIP3    H250650   7.587   0.800   9.385 -1.3410  2.3785  1.0782
 8819TIP3   OH250651   3.922   4.009   1.144 -0.0367 -0.1057  0.3590
 8819TIP3    H150652   3.992   3.963   1.099  1.9782  1.0193  2.1328
 8819TIP3    H250653   3.909   3.958   1.225 -0.5763  0.2493  0.4990
 8820TIP3   OH250654   5.244   0.193   7.395  0.1777 -0.1086 -0.2732
 8820TIP3    H150655   5.157   0.207   7.358  0.0382 -2.2764 -0.8947
 8820TIP3    H250656   5.295   0.155   7.324  2.0078  2.1262 -0.2515
 8821TIP3   OH250657   3.652   1.058   7.674  0.0221  0.0897 -0.0359
 8821TIP3    H150658   3.654   1.151   7.653  1.1920  0.1479  0.3087
 8821TIP3    H250659   3.728   1.043   7.729 -1.1315 -0.7398  1.4185
 8822TIP3   OH250660   2.192   3.450   2.256 -0.1420 -0.0175  0.5021
 8822TIP3    H150661   2.097   3.449   2.248 -0.1751 -2.7465  0.5162
 8822TIP3    H250662   2.211   3.395   2.332  1.4467  0.9027  0.8276
 8823TIP3   OH250663   5.049   7.504   1.611  0.3022 -0.0173  0.0115
 8823TIP3    H150664   5.101   7.579   1.582 -0.9169  0.1980 -1.8051
 8823TIP3    H250665   5.086   7.429   1.565 -0.3445 -0.0202 -0.5251
 8824TIP3   OH250666   3.879   2.369   0.365 -0.0889 -0.0737 -0.0226
 8824TIP3    H150667   3.871   2.442   0.304  1.7539 -0.0885 -0.3149
 8824TIP3    H250668   3.807   2.310   0.341 -1.7806  1.7123  0.3891
 8825TIP3   OH250669   1.402   5.031   1.402 -0.2885  0.4322  0.3887
 8825TIP3    H150670   1.357   5.038   1.317  0.7806 -2.8125 -0.5576
 8825TIP3    H250671   1.331   5.022   1.465 -1.0686 -1.0066 -0.6468
 8826TIP3   OH250672   7.284   3.000   9.259  0.4213  0.1276 -0.4944
 8826TIP3    H150673   7.281   2.964   9.171 -1.0449  1.6670 -1.1265
 8826TIP3    H250674   7.192   3.005   9.287  0.7743  0.7143  0.6535
 8827TIP3   OH250675   6.888   2.234   1.246  0.0632  0.1962 -0.0324
 8827TIP3    H150676   6.954   2.225   1.177  0.1410 -0.6370  0.1435
 8827TIP3    H250677   6.804   2.226   1.201  0.0742  1.0093 -0.2190
 8828TIP3   OH250678   0.905   0.774   0.645 -0.1003 -0.2592  0.4384
 8828TIP3    H150679   0.961   0.731   0.581 -0.2044 -0.5446  0.5399
 8828TIP3    H250680   0.852   0.704   0.683  0.5974 -0.2520  1.4931
 8829TIP3   OH250681   4.804   5.898   0.521  0.0987 -0.4352  0.1710
 8829TIP3    H150682   4.822   5.916   0.614  0.9299  0.6022 -0.1720
 8829TIP3    H250683   4.735   5.960   0.498  0.1053 -0.4855  0.0192
 8830TIP3   OH250684   2.592   0.351   9.283 -0.4305  0.1981 -0.0153
 8830TIP3    H150685   2.674   0.368   9.330 -0.2750 -1.8191  0.5270
 8830TIP3    H250686   2.570   0.260   9.305 -2.3475  0.4081 -0.8741
 8831TIP3   OH250687   5.222   6.764   2.562  0.3300  0.7269  0.2494
 8831TIP3    H150688   5.303   6.715   2.573 -0.6951 -1.7812 -1.9674
 8831TIP3    H250689   5.167   6.736   2.635 -0.1248 -1.3616 -0.8131
 8832TIP3   OH250690   5.588   6.631   8.009 -0.0635  0.5461 -1.0288
 8832TIP3    H150691   5.567   6.722   7.988 -0.8225  0.7477  0.4693
 8832TIP3    H250692   5.520   6.580   7.963 -0.1377  0.7851 -1.1871
 8833TIP3   OH250693   1.384   6.943   1.804 -0.6493  0.6107 -0.3223
 8833TIP3    H150694   1.299   6.985   1.791 -1.7949 -1.2840  0.4796
 8833TIP3    H250695   1.443   7.014   1.828 -1.4777  2.2766 -2.8158
 8834TIP3   OH250696   1.137   2.736   1.880 -0.1770  0.0017 -0.3436
 8834TIP3    H150697   1.178   2.816   1.846 -0.0544 -0.2385 -0.7751
 8834TIP3    H250698   1.197   2.705   1.947 -0.4521  0.5185  0.1469
 8835TIP3   OH250699   0.318   2.231   0.019  0.2203 -0.2350  1.3032
 8835TIP3    H150700   0.227   2.250  -0.003  0.2120 -0.7162  0.9176
 8835TIP3    H250701   0.370   2.286  -0.040  0.1878  1.1458  2.5034
 8836TIP3   OH250702   0.914   0.948   9.865  0.0421  0.1079 -0.4615
 8836TIP3    H150703   0.993   0.963   9.813  0.6555  0.2514  0.4877
 8836TIP3    H250704   0.901   0.853   9.861 -0.1181  0.1488 -1.1454
 8837TIP3   OH250705   2.905   5.047   9.580  0.4180  0.3093  0.9120
 8837TIP3    H150706   2.965   5.042   9.506  1.9745  0.9834  2.0749
 8837TIP3    H250707   2.886   5.140   9.590 -3.2207  0.0157 -1.1674
 8838TIP3   OH250708   3.840   7.570   0.337 -0.4774 -0.1224  0.4584
 8838TIP3    H150709   3.755   7.563   0.294 -0.1078  1.4254 -0.6033
 8838TIP3    H250710   3.822   7.616   0.419 -0.7777 -0.6218  0.6782
 8839TIP3   OH250711   1.306   1.842   8.142  1.2310 -0.1185 -0.3691
 8839TIP3    H150712   1.234   1.883   8.094  1.5538  0.4004 -0.4104
 8839TIP3    H250713   1.340   1.911   8.198  2.9012  0.1988 -1.6988
 8840TIP3   OH250714   6.515   2.499   8.475 -0.3462  0.0519  0.8541
 8840TIP3    H150715   6.536   2.407   8.488 -2.1007 -0.4333  0.5537
 8840TIP3    H250716   6.519   2.512   8.380  2.7800  1.0925  1.0147
 8841TIP3   OH250717   0.635   3.395   1.481 -0.2625  0.6870 -0.0890
 8841TIP3    H150718   0.644   3.327   1.414 -2.8074  0.7480 -0.6002
 8841TIP3    H250719   0.600   3.471   1.434  0.5638  1.6730  0.8392
 8842TIP3   OH250720   4.095   4.792   1.374 -0.1277 -0.3224 -0.0202
 8842TIP3    H150721   4.148   4.732   1.426 -0.3768 -1.8472 -1.4625
 8842TIP3    H250722   4.036   4.736   1.324 -0.2390  1.1018 -1.5816
 8843TIP3   OH250723   3.298   1.809   9.627 -0.4654 -0.6333  0.8573
 8843TIP3    H150724   3.334   1.798   9.715  0.6575 -1.1411  0.3586
 8843TIP3    H250725   3.230   1.742   9.619  0.2040 -1.3409  0.9618
 8844TIP3   OH250726   3.655   4.878   8.990 -0.3361  0.0363  0.0006
 8844TIP3    H150727   3.699   4.917   9.065  0.8150 -0.4760 -0.3872
 8844TIP3    H250728   3.613   4.952   8.945 -0.8476  0.3722  1.0136
 8845TIP3   OH250729   0.219   5.980   7.361  0.0307 -0.1075  1.0519
 8845TIP3    H150730   0.160   5.917   7.401 -1.6578 -1.0802 -2.5030
 8845TIP3    H250731   0.173   6.064   7.369 -2.1080 -0.8466 -1.6377
 8846TIP3   OH250732   6.719   6.203   0.560  0.0723 -0.2958 -0.1664
 8846TIP3    H150733   6.691   6.164   0.478 -0.9679  0.6715 -0.2928
 8846TIP3    H250734   6.687   6.293   0.556  1.9421  0.4409  0.3378
 8847TIP3   OH250735   4.099   4.237   2.452 -0.4777  0.3488 -0.0459
 8847TIP3    H150736   4.134   4.318   2.415  0.7719 -0.1125  0.0827
 8847TIP3    H250737   4.055   4.265   2.533  1.1148  0.7635  0.7159
 8848TIP3   OH250738   4.386   1.379   9.508 -0.6500 -0.2204  0.0136
 8848TIP3    H150739   4.399   1.466   9.544  2.0836 -1.0905  1.3287
 8848TIP3    H250740   4.294   1.360   9.526 -1.3300  2.3275 -0.2996
 8849TIP3   OH250741   7.525   1.064   1.073 -0.0673 -0.1266 -0.6879
 8849TIP3    H150742   7.467   0.993   1.044  1.7016 -1.0134 -2.3227
 8849TIP3    H250743   7.504   1.137   1.015  0.9963 -0.7596 -1.9623
 8850TIP3   OH250744   5.628   0.745   0.528 -0.2925 -0.3155  0.0957
 8850TIP3    H150745   5.554   0.752   0.467  1.2307 -1.4619 -2.0345
 8850TIP3    H250746   5.687   0.817   0.502  0.3801 -0.8267  0.1798
 8851TIP3   OH250747   4.046   2.121   8.184 -0.2385  0.0381 -0.0824
 8851TIP3    H150748   4.114   2.133   8.250  0.7109  0.3176 -1.0748
 8851TIP3    H250749   3.972   2.171   8.217  0.0354 -0.2531  1.0132
 8852TIP3   OH250750   4.652   4.086   1.640 -0.3621 -0.2541 -0.3417
 8852TIP3    H150751   4.589   4.050   1.702  0.0448  1.1156  0.9278
 8852TIP3    H250752   4.734   4.042   1.660 -0.1320  0.4944  0.4175
 8853TIP3   OH250753   6.760   1.185   2.485  0.3581  0.1724  0.0875
 8853TIP3    H150754   6.849   1.169   2.453  0.1972 -1.1756  0.2356
 8853TIP3    H250755   6.761   1.151   2.574  0.2449  2.0504  0.8323
 8854TIP3   OH250756   4.716   0.911   2.470 -0.6798 -0.0100  0.0437
 8854TIP3    H150757   4.703   0.824   2.508 -0.3686 -0.2103 -0.3089
 8854TIP3    H250758   4.703   0.971   2.544 -1.1111 -0.3418  0.2432
 8855TIP3   OH250759   5.982   4.772   8.939 -0.3634  0.3004 -0.1149
 8855TIP3    H150760   5.934   4.713   8.881 -0.6229 -0.3363  0.7284
 8855TIP3    H250761   6.045   4.715   8.983  0.4204  0.9288 -0.3951
 8856TIP3   OH250762   4.383   3.729   9.370  0.3363  0.0492 -0.3047
 8856TIP3    H150763   4.297   3.730   9.329 -0.5276 -1.9377  1.2884
 8856TIP3    H250764   4.408   3.821   9.377 -1.5305  0.6484 -1.0394
 8857TIP3   OH250765   2.600   0.503   0.586 -0.2027 -0.3845  0.5103
 8857TIP3    H150766   2.580   0.457   0.668  0.1364  0.5640  1.1537
 8857TIP3    H250767   2.568   0.445   0.517 -0.7343 -1.0933  1.3265
 8858TIP3   OH250768   0.281   5.354   1.734 -0.0818 -0.0868  0.2965
 8858TIP3    H150769   0.235   5.437   1.724 -2.2326 -0.6462  3.8251
 8858TIP3    H250770   0.319   5.357   1.822 -0.6496 -2.9788  0.7684
 8859TIP3   OH250771   7.300   4.183   8.945  0.0288  0.6354 -0.3812
 8859TIP3    H150772   7.389   4.153   8.965  0.3333  1.5752 -0.2842
 8859TIP3    H250773   7.271   4.126   8.874  1.3938  1.4459 -1.6518
 8860TIP3   OH250774   1.648   3.596   8.706 -0.2928 -0.0148  0.3328
 8860TIP3    H150775   1.674   3.623   8.618 -0.5495 -3.1994 -0.8489
 8860TIP3    H250776   1.721   3.622   8.762  1.2298 -0.5595 -1.3378
 8861TIP3   OH250777   0.696   3.975   8.249 -0.4868 -0.1609 -0.0571
 8861TIP3    H150778   0.757   3.930   8.307 -1.2271 -0.3910  0.5487
 8861TIP3    H250779   0.676   4.057   8.293  0.1806  0.3840 -0.7469
 8862TIP3   OH250780   4.249   3.867   8.243  0.3022 -0.0300  0.2369
 8862TIP3    H150781   4.327   3.828   8.202 -1.0827 -0.4916 -2.1616
 8862TIP3    H250782   4.190   3.793   8.257 -0.8569  0.6661 -0.7962
 8863TIP3   OH250783   0.534   7.306   7.510 -0.0241  0.2217  0.0126
 8863TIP3    H150784   0.472   7.232   7.504 -0.2259  0.3215  0.8338
 8863TIP3    H250785   0.492   7.367   7.570  1.5719 -0.4068  1.8738
 8864TIP3   OH250786   2.542   3.337   2.200  0.0305  0.1788  0.0323
 8864TIP3    H150787   2.454   3.312   2.170  0.7014 -0.1372 -1.7761
 8864TIP3    H250788   2.548   3.430   2.180  0.2063  0.1431 -0.0753
 8865TIP3   OH250789   5.408   4.983   1.056 -0.1049  0.3616 -0.8895
 8865TIP3    H150790   5.342   4.971   0.987 -0.2046  2.2654 -1.1897
 8865TIP3    H250791   5.377   5.059   1.106  0.4901 -0.3646  0.6578
 8866TIP3   OH250792   4.250   5.683   1.916  0.4147 -0.1865 -0.3883
 8866TIP3    H150793   4.293   5.713   1.996  1.8934 -1.0911 -0.8203
 8866TIP3    H250794   4.307   5.615   1.882 -0.2076  0.1502 -2.2038
 8867TIP3   OH250795   3.098   1.606   1.239 -0.1138 -0.3286  0.3038
 8867TIP3    H150796   3.091   1.578   1.330 -0.7139  0.8283  0.6372
 8867TIP3    H250797   3.018   1.575   1.197  0.3524 -1.2263  0.0472
 8868TIP3   OH250798   1.813   6.038   1.955  0.4674 -0.4667  0.2538
 8868TIP3    H150799   1.890   5.989   1.925  0.5529 -0.0967 -0.1368
 8868TIP3    H250800   1.780   6.081   1.877 -1.6448 -2.6035 -0.1550
 8869TIP3   OH250801   7.479   7.311   8.818 -0.2140  0.0393 -0.4823
 8869TIP3    H150802   7.451   7.221   8.834  0.2551 -0.1645 -0.7659
 8869TIP3    H250803   7.398   7.360   8.807 -0.5467  0.0734  1.7584
 8870TIP3   OH250804   2.625   5.152   9.728  0.0310  0.1776 -0.1712
 8870TIP3    H150805   2.609   5.082   9.664  0.0123 -0.7080  0.7733
 8870TIP3    H250806   2.579   5.228   9.692 -1.1726 -0.6789 -0.5194
 8871TIP3   OH250807   0.825   2.363   9.548  0.2451 -0.3966  0.2724
 8871TIP3    H150808   0.853   2.277   9.517  0.7455 -0.8003  1.7297
 8871TIP3    H250809   0.906   2.412   9.559  0.1365 -0.4112  1.2735
 8872TIP3   OH250810   5.948   0.578   7.149  0.4109  0.2920 -0.0225
 8872TIP3    H150811   5.928   0.548   7.060  0.9629  1.3475 -0.5216
 8872TIP3    H250812   5.898   0.659   7.159 -0.7293 -0.4981  1.1540
 8873TIP3   OH250813   1.937   3.974   9.735  0.0248 -0.3773  0.0152
 8873TIP3    H150814   1.945   4.067   9.716  0.1332 -0.7284 -1.7947
 8873TIP3    H250815   1.850   3.950   9.704  0.1536 -0.9596  0.0886
 8874TIP3   OH250816   5.223   5.378   9.071  0.0358  0.3743 -0.4480
 8874TIP3    H150817   5.146   5.322   9.080  0.2266  0.1486 -0.1975
 8874TIP3    H250818   5.237   5.385   8.976 -0.5864  0.8307 -0.5185
 8875TIP3   OH250819   4.680   0.067   8.899 -0.1966  0.1711 -0.1149
 8875TIP3    H150820   4.624   0.106   8.832 -1.6385  0.8239  1.4118
 8875TIP3    H250821   4.627  -0.003   8.937  0.0965  0.6237  1.1795
 8876TIP3   OH250822   7.248   4.623   0.883  0.5137  0.4467  0.5293
 8876TIP3    H150823   7.317   4.557   0.879 -0.5971 -0.7780  0.6591
 8876TIP3    H250824   7.266   4.672   0.963  1.6579  0.6784  0.1558
 8877TIP3   OH250825   2.328   0.523   2.241  0.6440  0.3397 -0.6384
 8877TIP3    H150826   2.396   0.525   2.174 -0.2817  3.5025 -1.7064
 8877TIP3    H250827   2.375   0.513   2.323  2.2795  1.0083 -1.4506
 8878TIP3   OH250828   5.758   5.174   9.124 -0.3365  0.1606  0.1092
 8878TIP3    H150829   5.739   5.263   9.095  1.2632  0.3428 -0.4759
 8878TIP3    H250830   5.817   5.139   9.057 -0.7615 -1.2758  0.4450
 8879TIP3   OH250831   3.662   4.289   7.498 -0.2059  0.1241 -0.1677
 8879TIP3    H150832   3.579   4.312   7.539 -0.7872  0.7696 -1.6357
 8879TIP3    H250833   3.642   4.287   7.404  0.7869 -2.4296 -0.3893
 8880TIP3   OH250834   4.434   4.357   0.412 -0.0007 -0.1108  0.1129
 8880TIP3    H150835   4.417   4.408   0.490  2.2848  1.8196 -0.5523
 8880TIP3    H250836   4.353   4.362   0.361 -0.3182  1.6117  0.7581
 8881TIP3   OH250837   1.445   0.764   2.446 -0.1010 -0.7017 -0.2142
 8881TIP3    H150838   1.434   0.808   2.530  0.0861  2.2553 -1.5856
 8881TIP3    H250839   1.377   0.696   2.445 -0.3507 -0.5652  2.1349
 8882TIP3   OH250840   3.030   2.337   1.639 -0.2794 -0.0921  0.3385
 8882TIP3    H150841   3.035   2.421   1.685  0.3333 -0.5568  1.1509
 8882TIP3    H250842   3.006   2.360   1.549  2.3856  1.1985 -0.1463
 8883TIP3   OH250843   1.333   6.573   8.917  0.2961 -0.1712 -0.2390
 8883TIP3    H150844   1.369   6.652   8.956  1.2248 -1.1270  0.9301
 8883TIP3    H250845   1.405   6.535   8.866 -0.3416  0.0641 -1.3598
 8884TIP3   OH250846   4.306   4.676   0.521 -1.3192  0.2783 -0.3328
 8884TIP3    H150847   4.371   4.697   0.588 -0.0390  0.6213 -1.6384
 8884TIP3    H250848   4.246   4.750   0.522  0.4153  1.8096 -1.5832
 8885TIP3   OH250849   2.410   3.208   1.054  0.0693 -0.0077  0.5296
 8885TIP3    H150850   2.371   3.293   1.074 -0.9083 -0.3471  0.1321
 8885TIP3    H250851   2.462   3.223   0.975 -0.9157  0.0148 -0.1307
 8886TIP3   OH250852   2.692   1.118   8.190 -0.1635 -0.2150 -0.7912
 8886TIP3    H150853   2.670   1.177   8.263 -0.1432 -0.4745 -0.5745
 8886TIP3    H250854   2.632   1.144   8.120  1.0183  1.2575 -1.3224
 8887TIP3   OH250855   5.650   3.926   9.113 -0.3824 -0.0851  0.2920
 8887TIP3    H150856   5.739   3.960   9.112 -0.6866  0.7496 -0.8439
 8887TIP3    H250857   5.660   3.833   9.132  0.9718 -0.5559 -2.2969
 8888TIP3   OH250858   1.763   0.376   7.199  0.3312  0.2551 -0.3213
 8888TIP3    H150859   1.700   0.353   7.131  0.4142  0.0343 -0.3236
 8888TIP3    H250860   1.736   0.464   7.228  0.3399  0.3775 -0.6842
 8889TIP3   OH250861   5.444   5.433   8.485  0.0837  0.1478 -0.5518
 8889TIP3    H150862   5.445   5.527   8.505  0.2880 -0.0736  0.5365
 8889TIP3    H250863   5.424   5.429   8.391  1.2581  1.3164 -0.8841
 8890TIP3   OH250864   0.599   4.431   7.705  0.5813  0.1084  0.0548
 8890TIP3    H150865   0.608   4.391   7.618  1.5075 -2.9233  1.3861
 8890TIP3    H250866   0.574   4.357   7.762  0.6442  1.8467  2.4819
 8891TIP3   OH250867   1.770   1.670   2.758  0.4779  0.1394  0.4046
 8891TIP3    H150868   1.733   1.588   2.725  0.0930 -0.3171  1.8671
 8891TIP3    H250869   1.812   1.645   2.841  1.7034  1.1549  0.1102
 8892TIP3   OH250870   2.112   6.996   7.052  0.1523 -0.9596 -0.4756
 8892TIP3    H150871   2.150   6.934   6.989 -1.0457  0.7397 -3.0286
 8892TIP3    H250872   2.019   6.997   7.031 -0.3384 -0.5267  1.5782
 8893TIP3   OH250873   5.946   6.875   7.852 -0.0276 -0.7067  0.4245
 8893TIP3    H150874   6.003   6.896   7.926  0.7758 -0.0935 -0.3575
 8893TIP3    H250875   5.885   6.949   7.847 -0.2291 -0.8586  0.6085
 8894TIP3   OH250876   4.651   3.189   0.691 -0.3320  0.4003 -0.2954
 8894TIP3    H150877   4.740   3.217   0.713 -0.5440 -0.9084  2.6471
 8894TIP3    H250878   4.650   3.187   0.595  3.2205 -0.8137 -0.4524
 8895TIP3   OH250879   1.764   1.477   1.012 -0.3552  0.4730 -0.2878
 8895TIP3    H150880   1.851   1.494   1.047  0.4623 -1.0148 -1.4404
 8895TIP3    H250881   1.705   1.486   1.087  0.9804 -0.0448  0.8669
 8896TIP3   OH250882   6.861   1.336   8.092  0.0878 -0.1272  0.1515
 8896TIP3    H150883   6.800   1.408   8.106  0.2133  0.3056 -1.4322
 8896TIP3    H250884   6.807   1.265   8.057 -0.0270 -0.8312  1.6603
 8897TIP3   OH250885   2.077   1.726   0.021 -0.0636 -0.0664  0.2204
 8897TIP3    H150886   2.117   1.694   0.102  0.4627 -0.0493 -0.0261
 8897TIP3    H250887   1.997   1.770   0.049 -0.6760 -1.3684  0.5888
 8898TIP3   OH250888   0.146   1.551   2.749 -0.6465  0.0859 -0.2678
 8898TIP3    H150889   0.173   1.620   2.688 -2.5490 -0.0595 -1.3478
 8898TIP3    H250890   0.052   1.565   2.761 -0.9183 -1.8428  0.1133
 8899TIP3   OH250891   4.559   4.553   8.253  0.3045 -0.0908  0.0101
 8899TIP3    H150892   4.603   4.544   8.337 -0.7688  0.0922  0.6140
 8899TIP3    H250893   4.555   4.648   8.238 -0.5788 -0.0672  0.3529
 8900TIP3   OH250894   3.872   3.240   0.740  0.0856  0.0206  0.2303
 8900TIP3    H150895   3.914   3.327   0.745 -0.0437  0.0494  0.9289
 8900TIP3    H250896   3.819   3.235   0.820 -2.3033  0.5074 -1.2321
 8901TIP3   OH250897   7.374   2.929   7.985 -0.2586 -0.2407 -0.4426
 8901TIP3    H150898   7.416   2.995   7.930  1.4521 -1.2383 -0.4089
 8901TIP3    H250899   7.413   2.846   7.957 -0.3130 -0.9234  1.3689
 8902TIP3   OH250900   3.473   2.782   9.630  0.3411  0.4057  0.0562
 8902TIP3    H150901   3.555   2.831   9.620  0.5027  0.4062  1.1685
 8902TIP3    H250902   3.483   2.737   9.714 -0.3024 -0.5809 -0.3775
 8903TIP3   OH250903   1.982   7.516   2.410 -0.1029  0.1449 -0.5105
 8903TIP3    H150904   1.888   7.503   2.422 -0.0852 -0.9433 -1.4105
 8903TIP3    H250905   2.022   7.445   2.461  0.3062  1.3301  0.9044
 8904TIP3   OH250906   5.615   4.177   1.911  0.6236  0.1332 -0.1003
 8904TIP3    H150907   5.660   4.106   1.956  0.0714 -0.1896 -0.0444
 8904TIP3    H250908   5.549   4.132   1.858 -0.6592  0.6815  1.0008
 8905TIP3   OH250909   2.687   2.943   7.566 -0.3225 -0.0008  0.5157
 8905TIP3    H150910   2.762   2.999   7.547  1.1490 -1.4174  1.8875
 8905TIP3    H250911   2.619   3.004   7.596  0.2038  1.3089 -0.8418
 8906TIP3   OH250912   0.635   4.103   0.565  0.2917  0.1987  0.4178
 8906TIP3    H150913   0.647   4.079   0.657 -1.3650 -0.3255  0.5340
 8906TIP3    H250914   0.572   4.040   0.532  0.3743  0.7836 -0.9147
 8907TIP3   OH250915   2.800   2.836   1.728  0.1111 -0.3525  0.2465
 8907TIP3    H150916   2.765   2.792   1.650  0.4078 -0.1093 -0.0291
 8907TIP3    H250917   2.800   2.769   1.796 -2.2045 -0.0160  0.6618
 8908TIP3   OH250918   3.589   0.286   7.323  0.1558 -0.2075 -0.1519
 8908TIP3    H150919   3.565   0.379   7.320  2.7992  0.5586  0.2361
 8908TIP3    H250920   3.562   0.257   7.410  0.1272  0.4178  0.0505
 8909TIP3   OH250921   7.255   7.235   7.426  0.3487  0.3884  0.0437
 8909TIP3    H150922   7.327   7.194   7.380 -0.3080  1.0035 -1.6091
 8909TIP3    H250923   7.212   7.164   7.473  1.6399 -0.0806  0.5602
 8910TIP3   OH250924   6.938   4.516   8.416 -0.5398  0.2937  0.2178
 8910TIP3    H150925   6.860   4.471   8.385 -0.5087  0.4063 -0.0268
 8910TIP3    H250926   6.905   4.592   8.464 -0.5763  0.4960 -0.1250
 8911TIP3   OH250927   1.764   5.936   0.091  0.4262 -0.3090  0.2541
 8911TIP3    H150928   1.839   5.909   0.038 -0.5871 -1.0166 -0.8700
 8911TIP3    H250929   1.728   5.854   0.124  0.6620  0.0872  1.5463
 8912TIP3   OH250930   4.467   0.492   1.989 -0.4587  0.0386  0.4684
 8912TIP3    H150931   4.541   0.460   1.937 -0.6173 -1.0150  0.8670
 8912TIP3    H250932   4.465   0.586   1.973  0.4331 -0.0520 -0.2296
 8913TIP3   OH250933   6.204   6.524   8.223 -0.0784 -0.0848 -0.4696
 8913TIP3    H150934   6.210   6.615   8.253  1.3931 -0.1641 -0.4297
 8913TIP3    H250935   6.198   6.472   8.303 -0.0982 -0.0732 -0.4631
 8914TIP3   OH250936   3.363   3.791   7.353 -0.5574 -0.3445  0.1477
 8914TIP3    H150937   3.459   3.795   7.351 -0.5803  0.4044  0.2427
 8914TIP3    H250938   3.341   3.713   7.303 -0.0195  1.1794 -2.6896
 8915TIP3   OH250939   5.399   7.456   9.402 -0.0815  0.4107 -0.4642
 8915TIP3    H150940   5.447   7.500   9.331 -0.0378  0.7795 -0.2079
 8915TIP3    H250941   5.358   7.528   9.450  1.7615  0.3682  1.2932
 8916TIP3   OH250942   2.574   0.515   0.020 -0.9830  0.1325  0.2562
 8916TIP3    H150943   2.547   0.535  -0.070 -0.7920 -1.0879 -0.0851
 8916TIP3    H250944   2.512   0.448   0.050  0.6495 -1.5955 -0.0038
 8917TIP3   OH250945   5.530   5.938   8.516  0.1462  0.4518  0.4315
 8917TIP3    H150946   5.573   5.991   8.583  0.4374 -1.4870  1.8652
 8917TIP3    H250947   5.444   5.979   8.504  0.1319  0.9088  1.9203
 8918TIP3   OH250948   5.586   5.302   0.148  0.0567  0.4308  0.2149
 8918TIP3    H150949   5.530   5.365   0.103 -0.0174  0.3092  0.1349
 8918TIP3    H250950   5.560   5.217   0.111  2.8893  0.6268 -2.7284
 8919TIP3   OH250951   2.138   6.667   6.613 -0.7476 -0.4323  0.1122
 8919TIP3    H150952   2.221   6.620   6.621 -0.4313  0.1816  0.4707
 8919TIP3    H250953   2.123   6.674   6.519 -0.5733 -0.8501  0.0506
 8920TIP3   OH250954   1.024   2.145   1.525  0.1646 -1.0319  0.5443
 8920TIP3    H150955   1.069   2.218   1.567 -0.1904 -0.6455  0.2578
 8920TIP3    H250956   0.957   2.186   1.471  0.2811 -1.5473 -0.0035
 8921TIP3   OH250957   0.290   1.957   8.226 -0.0007 -0.1704  0.2875
 8921TIP3    H150958   0.268   2.041   8.268 -3.4127  0.9145 -3.0695
 8921TIP3    H250959   0.248   1.892   8.282 -1.4770  0.8903  0.5016
 8922TIP3   OH250960   2.600   0.225   8.571 -0.2497 -0.6210  0.2092
 8922TIP3    H150961   2.639   0.244   8.485 -0.7405 -0.1445  0.0907
 8922TIP3    H250962   2.670   0.245   8.633 -0.6234  1.3126  0.0763
 8923TIP3   OH250963   4.151   4.223   9.845  0.1107  0.0765  0.1692
 8923TIP3    H150964   4.219   4.277   9.804 -1.0511  0.4662 -1.3295
 8923TIP3    H250965   4.153   4.141   9.796  0.5400 -0.5248  1.1595
 8924TIP3   OH250966   2.793   0.065   8.795 -0.1615 -0.0157 -0.3590
 8924TIP3    H150967   2.745  -0.017   8.783 -1.5214  0.5115  1.2401
 8924TIP3    H250968   2.801   0.100   8.706 -1.2625 -0.9378 -0.8566
 8925TIP3   OH250969   1.159   1.009   8.955  0.0545 -0.2416 -0.0296
 8925TIP3    H150970   1.068   0.989   8.975 -0.0270  0.1494  0.0125
 8925TIP3    H250971   1.188   0.938   8.899 -1.0270  0.8465 -2.0912
 8926TIP3   OH250972   6.175   1.359   9.690  0.2122 -0.3215  0.2568
 8926TIP3    H150973   6.185   1.268   9.661 -0.4002 -0.8348  1.5895
 8926TIP3    H250974   6.175   1.409   9.608  0.8539 -1.4782 -0.4884
 8927TIP3   OH250975   1.516   3.485   9.807 -0.1487  0.0865 -0.4129
 8927TIP3    H150976   1.565   3.548   9.859  0.8894 -0.1999 -1.0170
 8927TIP3    H250977   1.573   3.409   9.800 -1.0243 -0.5903 -0.4348
 8928TIP3   OH250978   6.946   0.055   8.927 -0.9302  0.5388  0.4689
 8928TIP3    H150979   7.039   0.070   8.915 -0.7629 -0.0612  0.9704
 8928TIP3    H250980   6.909   0.057   8.839  0.0867 -2.6636 -0.1744
 8929TIP3   OH250981   5.606   0.319   0.022 -0.6572  0.0950  0.2519
 8929TIP3    H150982   5.688   0.314   0.071  0.0659 -0.7648 -1.0114
 8929TIP3    H250983   5.631   0.343  -0.067 -1.8417  0.3961 -0.0268
 8930TIP3   OH250984   3.554   3.644   0.605 -0.4665  0.2796  0.3621
 8930TIP3    H150985   3.587   3.734   0.607 -1.8554  0.8064  0.4361
 8930TIP3    H250986   3.608   3.598   0.670  0.4763  0.9612  0.0863
 8931TIP3   OH250987   4.219   2.713   2.595 -0.2728  0.3701 -0.5678
 8931TIP3    H150988   4.215   2.761   2.678 -1.8887 -0.6812 -0.0038
 8931TIP3    H250989   4.130   2.717   2.560 -0.1682 -1.1731 -1.0880
 8932TIP3   OH250990   2.999   1.725   9.640 -0.5572  0.0230 -0.2393
 8932TIP3    H150991   3.015   1.716   9.734 -1.4638  0.2119 -0.0602
 8932TIP3    H250992   2.915   1.682   9.626 -0.5561  0.2381 -0.9183
 8933TIP3   OH250993   1.679   2.149   0.364 -0.1127  0.2765  0.0847
 8933TIP3    H150994   1.635   2.168   0.446 -1.0669  0.7428 -0.5101
 8933TIP3    H250995   1.629   2.076   0.326  0.4836 -0.1138  0.0377
 8934TIP3   OH250996   1.616   0.530   8.958  0.1750  0.6675  0.4057
 8934TIP3    H150997   1.620   0.625   8.944 -3.0484  0.9030  0.1371
 8934TIP3    H250998   1.643   0.492   8.874 -0.1732  1.4465 -0.0757
 8935TIP3   OH250999   0.704   0.511   7.849 -0.1686  0.2911 -0.4083
 8935TIP3    H151000   0.707   0.423   7.811  1.1674 -0.2405  0.8269
 8935TIP3    H251001   0.700   0.569   7.774  1.3165 -0.7590 -1.3709
 8936TIP3   OH251002   2.146   4.682   0.764 -0.7706  0.4646 -0.2635
 8936TIP3    H151003   2.220   4.689   0.704  1.2823  0.5232  2.0972
 8936TIP3    H251004   2.175   4.618   0.830 -2.5105  1.0477  1.1364
 8937TIP3   OH251005   5.582   1.619   1.681 -0.7580  0.5126 -0.0253
 8937TIP3    H151006   5.508   1.563   1.657 -0.8012 -0.5112  2.3173
 8937TIP3    H251007   5.542   1.694   1.725 -0.5263  1.2761 -1.0605
 8938TIP3   OH251008   1.936   7.117   7.466 -0.1341 -0.0596  0.2247
 8938TIP3    H151009   1.979   7.061   7.402 -0.1459 -0.8810  0.9156
 8938TIP3    H251010   1.926   7.062   7.544  0.6013  1.1518  1.2264
 8939TIP3   OH251011   2.624   1.443   2.417  0.0507 -0.7576  0.2752
 8939TIP3    H151012   2.583   1.530   2.422 -0.7526 -1.0714 -0.5703
 8939TIP3    H251013   2.609   1.414   2.327  2.1235 -0.9195 -0.0744
 8940TIP3   OH251014   4.634   4.381   9.001  0.0273  0.1695 -0.1699
 8940TIP3    H151015   4.647   4.360   9.093  0.3847  1.5784  0.1225
 8940TIP3    H251016   4.554   4.333   8.977 -0.6255  0.5402  1.1356
 8941TIP3   OH251017   7.498   1.534   8.142 -0.0347  0.6596  0.0642
 8941TIP3    H151018   7.451   1.591   8.082 -0.0203  0.3264 -0.2701
 8941TIP3    H251019   7.466   1.446   8.121 -1.0867  0.6502  1.4954
 8942TIP3   OH251020   6.085   0.358   8.027  0.6176 -0.3947  0.1675
 8942TIP3    H151021   6.143   0.433   8.012 -0.5631  0.7069  0.8786
 8942TIP3    H251022   6.026   0.359   7.952  0.5580 -0.5749  0.2129
 8943TIP3   OH251023   1.973   0.740   9.898  0.0945  0.0237  0.6308
 8943TIP3    H151024   1.989   0.683   9.973  1.6649 -1.1370 -0.5173
 8943TIP3    H251025   2.054   0.790   9.888 -0.8454  1.6679  0.9098
 8944TIP3   OH251026   0.671   5.124   8.362  0.1928 -0.1905 -0.7231
 8944TIP3    H151027   0.753   5.144   8.406  0.6183  0.4411 -1.7642
 8944TIP3    H251028   0.629   5.058   8.418  0.7498  0.4927  0.5530
 8945TIP3   OH251029   2.807   1.387   1.117 -0.5369 -0.8392  0.4724
 8945TIP3    H151030   2.794   1.304   1.073 -1.1921 -0.8656  0.7031
 8945TIP3    H251031   2.783   1.370   1.208  1.0241 -0.8521  0.9119
 8946TIP3   OH251032   3.807   7.467   2.995  0.2046 -0.4969  0.0827
 8946TIP3    H151033   3.837   7.507   2.913  0.4768  0.2663  0.5405
 8946TIP3    H251034   3.757   7.390   2.968  2.4111 -1.7277 -0.7366
 8947TIP3   OH251035   1.038   2.942   7.832 -0.7033 -0.2828 -0.0787
 8947TIP3    H151036   1.091   2.875   7.790 -0.4682  0.8332 -1.6273
 8947TIP3    H251037   1.101   3.008   7.861 -1.0563 -0.0197  0.1003
 8948TIP3   OH251038   3.983   5.054   1.308  0.2808  0.3043  0.2753
 8948TIP3    H151039   4.007   4.964   1.286  0.4810  0.1931  0.9321
 8948TIP3    H251040   4.028   5.071   1.390 -0.7250  0.5908  0.7803
 8949TIP3   OH251041   5.649   5.080   0.972 -0.1295 -0.1532 -1.1197
 8949TIP3    H151042   5.579   5.033   1.017  1.0349 -1.0442 -0.1675
 8949TIP3    H251043   5.604   5.150   0.925 -1.4506  0.7552  1.2876
 8950TIP3   OH251044   3.230   3.533   9.978  0.1766 -0.5517  0.1116
 8950TIP3    H151045   3.315   3.495   9.955 -0.2529 -0.5588 -1.5992
 8950TIP3    H251046   3.166   3.467   9.951 -0.3736 -1.7652  3.8277
 8951TIP3   OH251047   2.478   3.126   0.633  0.5886 -0.0121 -0.2192
 8951TIP3    H151048   2.424   3.048   0.625  1.4742 -0.5854 -0.6887
 8951TIP3    H251049   2.523   3.134   0.549  0.1113  1.3061 -0.3837
 8952TIP3   OH251050   1.874   3.144   2.342 -0.3096 -0.5279 -0.4286
 8952TIP3    H151051   1.965   3.115   2.346 -0.1126  0.1886  0.2743
 8952TIP3    H251052   1.824   3.062   2.348  0.2358 -0.7717  1.8449
 8953TIP3   OH251053   1.863   6.650   8.314  0.4633 -0.3255  0.0152
 8953TIP3    H151054   1.771   6.674   8.300 -0.2307 -3.3939 -1.4043
 8953TIP3    H251055   1.910   6.698   8.245 -0.3418 -0.2836 -0.5248
 8954TIP3   OH251056   3.465   5.907   9.572  0.3392  0.1211 -0.3729
 8954TIP3    H151057   3.538   5.853   9.601  0.3993  0.8066  0.8295
 8954TIP3    H251058   3.389   5.873   9.621  0.8541  2.7529  2.5415
 8955TIP3   OH251059   5.221   0.090   8.504 -0.4701 -0.7047 -0.0240
 8955TIP3    H151060   5.247   0.036   8.430  2.7034  2.8455 -1.7854
 8955TIP3    H251061   5.290   0.077   8.569 -0.1812  0.4847 -0.0825
 8956TIP3   OH251062   3.616   0.218   0.952 -0.4904  0.2688  0.2881
 8956TIP3    H151063   3.528   0.190   0.976 -0.2022 -0.6047  0.3533
 8956TIP3    H251064   3.606   0.309   0.925 -1.5534 -0.0829 -0.5559
 8957TIP3   OH251065   3.705   0.197   1.599  0.0227  0.0720  0.2686
 8957TIP3    H151066   3.768   0.268   1.585  1.7854 -1.3025  0.8407
 8957TIP3    H251067   3.672   0.212   1.688 -1.3349  1.4063 -0.4181
 8958TIP3   OH251068   6.095   4.929   0.198  0.3056  0.4190  0.1134
 8958TIP3    H151069   6.175   4.942   0.248  1.0541  0.6789 -1.0993
 8958TIP3    H251070   6.125   4.893   0.114 -1.0078 -1.3808  0.3505
 8959TIP3   OH251071   1.050   4.177   9.286  0.0943 -0.1760 -0.1612
 8959TIP3    H151072   1.142   4.200   9.278 -0.2640  2.0258  0.9609
 8959TIP3    H251073   1.030   4.126   9.208  2.1615 -0.3844 -0.5971
 8960TIP3   OH251074   6.968   6.414   0.052 -0.5791  0.2644 -0.3840
 8960TIP3    H151075   6.995   6.486   0.108  1.9011 -2.3022  2.0269
 8960TIP3    H251076   6.939   6.345   0.112 -0.3011 -1.7368 -2.3790
 8961TIP3   OH251077   3.756   7.390   9.205 -0.2565  0.0685 -0.1196
 8961TIP3    H151078   3.805   7.321   9.159 -1.1087 -0.9887  0.5012
 8961TIP3    H251079   3.822   7.456   9.226  0.6893 -0.7949 -0.2745
 8962TIP3   OH251080   3.993   2.416   8.438 -0.6834  0.3353  0.1163
 8962TIP3    H151081   3.936   2.452   8.506 -1.3218 -2.0648  0.9360
 8962TIP3    H251082   3.934   2.367   8.381  0.3400 -0.9923  0.1460
 8963TIP3   OH251083   5.457   7.585   9.152  0.2448  0.1759  0.3152
 8963TIP3    H151084   5.412   7.669   9.145  1.4490  0.8134 -0.0150
 8963TIP3    H251085   5.542   7.599   9.111  0.5858 -1.1226  0.5201
 8964TIP3   OH251086   7.629   1.531   9.715 -0.1395  0.0551  0.3153
 8964TIP3    H151087   7.598   1.507   9.628 -0.9365  1.3111  0.2305
 8964TIP3    H251088   7.604   1.457   9.771  1.3806 -1.2820 -0.6865
 8965TIP3   OH251089   2.766   1.939   2.408 -0.3498  0.0850  0.2299
 8965TIP3    H151090   2.703   1.911   2.342 -1.0895  1.8566  0.1071
 8965TIP3    H251091   2.776   1.864   2.466  0.9859 -1.8420 -2.3170
 8966TIP3   OH251092   0.311   6.426   8.795 -0.3900 -0.9349  0.2681
 8966TIP3    H151093   0.337   6.334   8.795  1.2518 -0.5097  0.3430
 8966TIP3    H251094   0.366   6.466   8.727 -0.5994  0.1089  0.6907
 8967TIP3   OH251095   2.113   3.713   9.497 -0.3604  0.7223 -0.0397
 8967TIP3    H151096   2.101   3.766   9.418  0.5961  1.7499  0.4671
 8967TIP3    H251097   2.128   3.778   9.566  0.4321 -0.2081  0.6796
 8968TIP3   OH251098   2.667   3.833   0.818  0.2234 -0.1208  0.3667
 8968TIP3    H151099   2.650   3.765   0.753  1.4408 -1.2585  1.1869
 8968TIP3    H251100   2.683   3.912   0.766 -2.5554 -0.0828 -0.5634
 8969TIP3   OH251101   0.559   0.728   0.402  0.0775  0.7379  0.3269
 8969TIP3    H151102   0.653   0.708   0.406  0.0223  0.5431  0.6749
 8969TIP3    H251103   0.523   0.693   0.484 -0.1745  1.4956  0.5438
 8970TIP3   OH251104   2.783   4.446   0.247 -0.1494 -0.5524  0.3886
 8970TIP3    H151105   2.838   4.412   0.176  0.2731  0.2686  0.3128
 8970TIP3    H251106   2.749   4.529   0.214  1.1077  0.4950  1.6251
 8971TIP3   OH251107   0.571   3.952   0.097 -0.0998  0.3182 -0.3564
 8971TIP3    H151108   0.525   4.017   0.150  1.2916  0.3984  0.8439
 8971TIP3    H251109   0.634   4.003   0.046  2.0138 -0.1073  1.6629
 8972TIP3   OH251110   4.287   4.711   9.224  0.1118  0.4130 -0.5689
 8972TIP3    H151111   4.272   4.806   9.221 -0.5562  0.2937 -1.1649
 8972TIP3    H251112   4.208   4.673   9.187 -0.0590 -0.4343  0.6356
 8973TIP3   OH251113   1.125   6.270   0.514  1.0712  0.0214 -0.0254
 8973TIP3    H151114   1.105   6.295   0.604  1.0835  3.0987 -0.7607
 8973TIP3    H251115   1.180   6.341   0.481 -0.8190  0.2503 -3.1225
 8974TIP3   OH251116   1.643   1.149   7.987 -0.0660  0.6922  0.0514
 8974TIP3    H151117   1.665   1.180   8.075 -2.0951  0.3814  0.7202
 8974TIP3    H251118   1.583   1.215   7.953  0.9530  0.9818 -1.2730
 8975TIP3   OH251119   4.248   0.952   0.621 -0.4725 -0.2602 -0.1729
 8975TIP3    H151120   4.328   0.936   0.672  0.9712  1.0057 -1.8886
 8975TIP3    H251121   4.190   0.999   0.680  0.5887 -0.0311  0.7083
 8976TIP3   OH251122   6.989   3.344   9.126  0.1334  0.6069  0.0789
 8976TIP3    H151123   6.976   3.366   9.218 -1.1917  0.9192 -0.1677
 8976TIP3    H251124   6.962   3.253   9.118 -2.4153  1.3265 -0.4803
 8977TIP3   OH251125   1.338   6.790   3.060  0.1431 -0.1967 -0.4405
 8977TIP3    H151126   1.251   6.773   3.095  0.0068 -0.6193 -0.9628
 8977TIP3    H251127   1.363   6.707   3.018 -0.5205  0.8324 -3.0572
 8978TIP3   OH251128   6.307   6.700   2.517 -0.0830  0.0975  0.5419
 8978TIP3    H151129   6.354   6.655   2.446  1.2753 -0.9180  2.0355
 8978TIP3    H251130   6.350   6.785   2.525 -1.4168  0.9890 -0.9961
 8979TIP3   OH251131   0.870   3.811   1.448 -0.3176  0.1931  0.3397
 8979TIP3    H151132   0.829   3.897   1.456  0.1331  0.3830  0.6678
 8979TIP3    H251133   0.933   3.808   1.520  3.7301  1.8538 -2.7166
 8980TIP3   OH251134   0.890   6.366   7.954  0.1753 -0.0102  0.0201
 8980TIP3    H151135   0.926   6.454   7.939  0.7834  0.0466  1.5925
 8980TIP3    H251136   0.950   6.327   8.018  0.2219 -1.7961 -1.0580
 8981TIP3   OH251137   3.863   0.726   2.031 -0.1490  0.3115  0.0174
 8981TIP3    H151138   3.790   0.771   1.988 -0.5215 -0.2120  0.0926
 8981TIP3    H251139   3.868   0.767   2.118  0.0394  0.7644 -0.2033
 8982TIP3   OH251140   4.039   6.493   6.659  0.3725  0.5161 -0.1137
 8982TIP3    H151141   4.004   6.410   6.628  0.4125  0.9570 -1.3750
 8982TIP3    H251142   4.134   6.480   6.657  0.3650  0.3882  0.2847
 8983TIP3   OH251143   1.375   4.233   3.048 -0.4410  0.6434  0.3164
 8983TIP3    H151144   1.419   4.251   3.131  0.7595  0.7719 -0.3180
 8983TIP3    H251145   1.281   4.233   3.069 -0.2133  1.8120  1.4543
 8984TIP3   OH251146   6.852   5.971   7.663 -0.3864  0.7546 -0.0022
 8984TIP3    H151147   6.786   5.944   7.599  0.2539  0.1700 -0.4256
 8984TIP3    H251148   6.800   6.000   7.739 -1.1365 -0.1280 -0.1470
 8985TIP3   OH251149   0.869   3.663   0.659 -0.3417  0.8199 -0.2101
 8985TIP3    H151150   0.830   3.580   0.685  0.3586  0.7203  0.5756
 8985TIP3    H251151   0.856   3.668   0.564  2.6421 -1.8877 -0.9476
 8986TIP3   OH251152   4.505   1.433   1.601 -0.4853  0.1520  0.4565
 8986TIP3    H151153   4.584   1.387   1.571 -0.6490  0.0271  0.2198
 8986TIP3    H251154   4.516   1.523   1.568 -0.4806  0.1142  0.3558
 8987TIP3   OH251155   3.995   5.212   6.827 -0.3610 -0.3914 -0.3390
 8987TIP3    H151156   3.909   5.195   6.790 -0.2946 -0.1131 -0.6199
 8987TIP3    H251157   4.057   5.181   6.761 -0.2318 -1.3410  0.1935
 8988TIP3   OH251158   0.327   0.468   8.096  0.0601 -0.3682  0.2485
 8988TIP3    H151159   0.415   0.452   8.061 -0.1839 -1.8698  0.2423
 8988TIP3    H251160   0.337   0.545   8.152  1.5361 -0.9564  0.8410
 8989TIP3   OH251161   7.635   4.728   7.565  0.7980  0.5373  0.5335
 8989TIP3    H151162   7.573   4.692   7.629  1.7807 -1.0166  0.6453
 8989TIP3    H251163   7.692   4.784   7.617 -0.8057  2.4740  0.3399
 8990TIP3   OH251164   0.158   7.112   8.442 -0.1385  0.3832 -0.2889
 8990TIP3    H151165   0.084   7.170   8.461 -0.3117  0.0379  0.1314
 8990TIP3    H251166   0.232   7.170   8.429 -0.3973  0.7167 -0.2886
 8991TIP3   OH251167   6.667   2.325   9.409 -0.5187 -0.3155  0.3671
 8991TIP3    H151168   6.741   2.267   9.428 -0.4031 -0.5454 -0.7019
 8991TIP3    H251169   6.651   2.313   9.315 -1.0491  0.7475  0.3086
 8992TIP3   OH251170   0.524   3.543   0.758 -0.5105  0.4568 -0.1594
 8992TIP3    H151171   0.458   3.474   0.751 -1.2094  1.0103  0.8090
 8992TIP3    H251172   0.485   3.618   0.714 -0.6072  0.8432  0.5807
 8993TIP3   OH251173   5.113   0.405   7.842 -0.3728 -1.0242 -0.5245
 8993TIP3    H151174   5.169   0.378   7.769  0.7326  0.5999 -0.3254
 8993TIP3    H251175   5.099   0.499   7.828 -0.1410 -0.6705  1.3183
 8994TIP3   OH251176   3.860   6.554   8.704  0.4250 -0.3805  0.3092
 8994TIP3    H151177   3.769   6.572   8.729  0.9762  1.1772  1.3336
 8994TIP3    H251178   3.855   6.532   8.611 -1.1854 -2.0809  0.7356
 8995TIP3   OH251179   7.185   2.723   0.973  0.3549  0.1961  0.5235
 8995TIP3    H151180   7.220   2.650   1.025  0.8519 -0.1140 -0.2247
 8995TIP3    H251181   7.180   2.796   1.035  1.3142 -0.0568  0.9229
 8996TIP3   OH251182   6.663   7.068   8.307 -0.1243 -0.9319 -0.0883
 8996TIP3    H151183   6.611   7.011   8.364 -0.6595 -1.0253 -0.6645
 8996TIP3    H251184   6.609   7.145   8.293  0.9473  0.1379  1.3912
 8997TIP3   OH251185   6.979   5.031   0.941 -0.4661 -0.3270 -0.5795
 8997TIP3    H151186   6.948   5.095   0.877  1.7993  0.6223 -0.8466
 8997TIP3    H251187   7.012   5.084   1.014 -0.3972 -1.2876  0.1039
 8998TIP3   OH251188   5.406   2.383   8.717  0.3519 -0.2199  0.1754
 8998TIP3    H151189   5.341   2.396   8.786 -0.4049  1.6238 -0.8099
 8998TIP3    H251190   5.426   2.471   8.685  2.8007 -0.7865 -0.0883
 8999TIP3   OH251191   3.552   4.812   6.607  0.2703  0.0824 -0.5164
 8999TIP3    H151192   3.458   4.826   6.617  0.1318 -0.7522 -0.5958
 8999TIP3    H251193   3.584   4.893   6.568 -0.9727 -0.8790 -3.7978
 9000TIP3   OH251194   2.912   5.090   0.591  0.0163  0.6237 -0.0045
 9000TIP3    H151195   2.872   5.165   0.636 -0.2524  0.9455 -0.7632
 9000TIP3    H251196   2.989   5.069   0.644 -1.0338  0.1177  1.3734
 9001TIP3   OH251197   2.172   6.812   6.852 -0.1765  0.7055 -0.2041
 9001TIP3    H151198   2.118   6.771   6.786  0.5814  0.8620 -0.9384
 9001TIP3    H251199   2.260   6.814   6.814  0.3915  0.3110  1.0173
 9002TIP3   OH251200   5.288   4.717   0.842  0.5808  0.0291  0.1810
 9002TIP3    H151201   5.225   4.770   0.890  0.1834 -0.4529  0.2043
 9002TIP3    H251202   5.373   4.756   0.861  0.4105 -0.0607  1.1427
 9003TIP3   OH251203   0.878   3.871   7.856 -0.0422  0.1065  0.5053
 9003TIP3    H151204   0.844   3.955   7.886  1.0134  0.5167  0.6012
 9003TIP3    H251205   0.816   3.843   7.789 -0.9471  0.4792  1.1675
 9004TIP3   OH251206   7.152   0.252   1.042 -0.2667  0.1251 -0.4032
 9004TIP3    H151207   7.073   0.202   1.021 -1.6972  1.5711  1.1970
 9004TIP3    H251208   7.143   0.333   0.991  0.7145 -0.1011 -0.9672
 9005TIP3   OH251209   4.284   4.637   0.874  0.1590 -0.3465  0.0449
 9005TIP3    H151210   4.337   4.695   0.820  0.0196 -0.7932 -0.5905
 9005TIP3    H251211   4.290   4.673   0.962  1.1071 -0.1084 -0.1098
 9006TIP3   OH251212   7.136   3.804   0.451 -0.0332  0.3455  0.1464
 9006TIP3    H151213   7.056   3.774   0.407 -0.3556  1.6038 -0.1671
 9006TIP3    H251214   7.206   3.755   0.407 -0.4719  0.5804 -0.8569
 9007TIP3   OH251215   1.818   1.377   9.273 -0.0870 -0.1490 -0.2734
 9007TIP3    H151216   1.819   1.400   9.180  1.8074 -0.0148 -0.2593
 9007TIP3    H251217   1.885   1.309   9.281  1.1930  1.2075  1.2662
 9008TIP3   OH251218   0.216   4.312   0.748  0.1770  0.1615  0.5017
 9008TIP3    H151219   0.249   4.335   0.661 -1.1576  0.1474 -0.0301
 9008TIP3    H251220   0.150   4.245   0.732 -0.1291  0.2004  1.5269
 9009TIP3   OH251221   4.687   2.936   0.876  0.6310  0.3440  0.5393
 9009TIP3    H151222   4.663   2.895   0.793  1.5423 -0.1573  0.5060
 9009TIP3    H251223   4.708   3.027   0.852  0.4213  0.3305  0.3007
 9010TIP3   OH251224   2.055   2.407   8.883 -0.3096  0.0145 -0.1651
 9010TIP3    H151225   2.046   2.321   8.924  1.5465  0.2474  0.8245
 9010TIP3    H251226   2.126   2.396   8.820  0.6600  1.0690  0.7217
 9011TIP3   OH251227   0.918   6.908   2.482 -0.0444  0.1964 -0.2521
 9011TIP3    H151228   0.975   6.890   2.557  2.2732  2.2079 -1.3726
 9011TIP3    H251229   0.859   6.977   2.513  0.8072  0.9126 -0.1827
 9012TIP3   OH251230   2.168   1.672   1.726 -0.3592  0.7225 -0.1031
 9012TIP3    H151231   2.213   1.757   1.725  1.4087 -0.1859 -0.0299
 9012TIP3    H251232   2.123   1.668   1.642  2.4059  0.2941 -1.6823
 9013TIP3   OH251233   2.613   3.955   7.285 -0.1119 -0.2587  0.9523
 9013TIP3    H151234   2.577   3.951   7.196  2.1751  0.5547 -0.0831
 9013TIP3    H251235   2.536   3.960   7.342 -1.6506  1.3877 -1.1024
 9014TIP3   OH251236   7.398   4.939   8.342 -0.5490 -0.3229 -0.2865
 9014TIP3    H151237   7.446   4.960   8.422  0.2338  0.0937 -0.8462
 9014TIP3    H251238   7.349   5.018   8.322  1.6447  0.7388 -1.8630
 9015TIP3   OH251239   2.125   1.404   7.035  0.1662  0.0654  0.3159
 9015TIP3    H151240   2.037   1.441   7.029  0.2620  0.5590  1.7637
 9015TIP3    H251241   2.129   1.340   6.963 -0.7011  1.3803 -0.9532
 9016TIP3   OH251242   2.485   0.053   8.970 -0.0633 -0.5047 -0.0054
 9016TIP3    H151243   2.524   0.139   8.958  0.1444 -0.5819  0.1157
 9016TIP3    H251244   2.470   0.021   8.881  0.5838 -0.6702 -0.0612
 9017TIP3   OH251245   4.798   4.987   0.843 -0.6054 -0.3156  0.2054
 9017TIP3    H151246   4.788   5.082   0.844 -0.4949 -0.3019  0.9035
 9017TIP3    H251247   4.815   4.964   0.935  0.0067 -0.9391 -0.0526
 9018TIP3   OH251248   0.233   7.426   2.459 -0.6382  0.3231 -0.2164
 9018TIP3    H151249   0.271   7.510   2.434 -3.3107  0.9236 -2.7396
 9018TIP3    H251250   0.294   7.361   2.424 -0.7921  1.2434 -2.3659
 9019TIP3   OH251251   0.880   4.864   7.391  0.4709 -0.1749 -0.2068
 9019TIP3    H151252   0.954   4.873   7.451 -0.1796 -0.2939  0.6474
 9019TIP3    H251253   0.916   4.823   7.313  1.0503 -1.4890  0.7187
 9020TIP3   OH251254   3.081   2.853   8.686 -0.2057 -0.5469  0.7371
 9020TIP3    H151255   3.108   2.780   8.631  0.8401 -0.3452  0.9658
 9020TIP3    H251256   2.986   2.859   8.674  0.1597  0.6499 -2.4581
 9021TIP3   OH251257   0.172   2.416   0.864 -0.0832  0.2245  0.2243
 9021TIP3    H151258   0.243   2.365   0.903  2.8137  1.6145 -2.7037
 9021TIP3    H251259   0.111   2.351   0.830  2.9034 -1.4684 -2.3755
 9022TIP3   OH251260   4.065   6.074   8.385  0.0665  0.1202  0.2405
 9022TIP3    H151261   4.136   6.021   8.351  1.7627  2.2886  0.2010
 9022TIP3    H251262   4.009   6.091   8.309  0.9998  0.6323 -0.3449
 9023TIP3   OH251263   1.955   0.554   0.689 -0.0734 -0.2562 -0.4484
 9023TIP3    H151264   1.942   0.561   0.784  3.3006  0.7174  0.0720
 9023TIP3    H251265   1.959   0.460   0.672 -0.1748 -0.4379  0.4754
 9024TIP3   OH251266   5.112   0.626   8.763  0.0046 -0.7131 -0.1146
 9024TIP3    H151267   5.076   0.647   8.677 -0.0818 -0.7964 -0.0983
 9024TIP3    H251268   5.050   0.564   8.801  0.2880 -1.0402 -0.1840
 9025TIP3   OH251269   2.591   4.236   1.011  0.1495 -0.3516 -0.5231
 9025TIP3    H151270   2.619   4.175   1.079  0.2366  0.4473  0.1787
 9025TIP3    H251271   2.641   4.211   0.933  2.5998  0.7660  0.5687
 9026TIP3   OH251272   4.596   1.888   0.486  0.0203 -0.0403  0.4915
 9026TIP3    H151273   4.612   1.982   0.498 -0.0854  0.0067  0.2593
 9026TIP3    H251274   4.668   1.859   0.430  0.0496 -0.0983  0.5587
 9027TIP3   OH251275   3.790   4.047   8.457  0.2968 -0.4197 -0.3932
 9027TIP3    H151276   3.861   4.028   8.519 -0.3307 -0.3828  0.3488
 9027TIP3    H251277   3.743   4.120   8.497  0.4849  0.2755 -1.4205
 9028TIP3   OH251278   6.798   0.722   1.189  0.2210 -0.3673 -0.7578
 9028TIP3    H151279   6.846   0.743   1.269  1.1190  2.5417 -1.9363
 9028TIP3    H251280   6.821   0.632   1.169 -0.8817 -1.5853  2.7701
 9029TIP3   OH251281   5.129   3.323   7.224  0.2922  0.7514 -0.0909
 9029TIP3    H151282   5.065   3.386   7.191  1.1200  1.2774 -0.7452
 9029TIP3    H251283   5.096   3.238   7.193  0.3428  1.1028 -1.1469
 9030TIP3   OH251284   0.098   2.900   0.268 -0.4916  0.2095 -0.3215
 9030TIP3    H151285   0.107   2.905   0.173 -1.3496 -0.2174 -0.4309
 9030TIP3    H251286   0.147   2.975   0.301  1.1886 -0.5371 -1.0022
 9031TIP3   OH251287   1.314   7.194   1.264  0.0771 -0.3204  0.0811
 9031TIP3    H151288   1.221   7.185   1.245 -0.4974  2.6968  0.9516
 9031TIP3    H251289   1.326   7.153   1.349 -0.3835 -0.9432 -0.1487
 9032TIP3   OH251290   1.166   6.679   2.299 -0.0966 -0.1154  0.3993
 9032TIP3    H151291   1.121   6.625   2.234  1.7827 -0.5524 -0.6280
 9032TIP3    H251292   1.131   6.649   2.383 -0.1642 -1.9441 -0.2331
 9033TIP3   OH251293   1.356   6.048   0.268 -0.0080  0.0206 -0.7472
 9033TIP3    H151294   1.425   6.079   0.326  0.3637 -1.2234 -0.5143
 9033TIP3    H251295   1.275   6.060   0.318  0.3673 -1.6084  0.2848
 9034TIP3   OH251296   0.833   5.256   9.539 -0.1040 -0.2958 -0.3121
 9034TIP3    H151297   0.821   5.305   9.457 -0.4358 -0.5183 -0.4000
 9034TIP3    H251298   0.745   5.249   9.576 -0.1874 -1.4685 -0.6836
 9035TIP3   OH251299   2.464   5.988   8.903  0.1658 -0.8184  0.0685
 9035TIP3    H151300   2.525   5.957   8.971  1.1881  1.2460  0.1866
 9035TIP3    H251301   2.520   6.004   8.827 -0.8124 -2.1059 -0.9661
 9036TIP3   OH251302   4.615   2.788   0.194  0.2318  0.9877 -0.2351
 9036TIP3    H151303   4.562   2.840   0.133  1.9593  2.1330 -0.8190
 9036TIP3    H251304   4.705   2.807   0.170  0.9488 -1.6698  0.1149
 9037TIP3   OH251305   3.809   0.944   1.333  0.0927 -0.0062 -0.1908
 9037TIP3    H151306   3.888   0.894   1.311  0.1188  0.4814 -1.2590
 9037TIP3    H251307   3.801   0.935   1.428  0.4212 -1.5427 -0.2852
 9038TIP3   OH251308   5.398   3.747   0.277  0.0157  0.2547  0.0753
 9038TIP3    H151309   5.329   3.742   0.211  0.4992  2.6288 -0.7036
 9038TIP3    H251310   5.464   3.805   0.238  0.9272  0.6832  2.1328
 9039TIP3   OH251311   1.540   1.491   7.717 -0.2263 -0.9099 -0.1394
 9039TIP3    H151312   1.527   1.420   7.654  1.4043 -1.0417 -0.3702
 9039TIP3    H251313   1.604   1.549   7.675  2.9394 -2.3021  2.3047
 9040TIP3   OH251314   4.284   7.209   9.054  0.0624  0.4639 -0.2841
 9040TIP3    H151315   4.249   7.137   9.106  2.6609 -0.6843  0.0195
 9040TIP3    H251316   4.258   7.288   9.103 -0.5627 -0.3956  0.8348
 9041TIP3   OH251317   1.527   4.734   7.786 -0.1228 -0.4169 -0.0782
 9041TIP3    H151318   1.542   4.679   7.863  0.5454 -0.5330 -0.2790
 9041TIP3    H251319   1.539   4.823   7.818 -2.2434 -0.2930  0.4857
 9042TIP3   OH251320   0.043   0.060   0.086  0.0494  0.5032  0.4642
 9042TIP3    H151321  -0.031   0.033   0.031  1.7554 -0.0903 -1.6465
 9042TIP3    H251322   0.039  -0.001   0.161 -1.6734  0.6115  0.5127
 9043TIP3   OH251323   4.574   5.329   2.635  0.0501  0.1730  0.2642
 9043TIP3    H151324   4.613   5.251   2.595 -0.2811 -0.4809  1.1717
 9043TIP3    H251325   4.499   5.294   2.684 -1.4554  1.3264 -1.1073
 9044TIP3   OH251326   3.182   7.140   0.126  0.0390 -0.4352 -0.2117
 9044TIP3    H151327   3.169   7.235   0.117  0.8248  0.2217  3.6125
 9044TIP3    H251328   3.274   7.126   0.104 -0.0370 -0.2664 -0.6329
 9045TIP3   OH251329   1.375   5.177   9.737 -0.3601 -0.6474 -0.3002
 9045TIP3    H151330   1.379   5.128   9.654 -3.0449  0.9488 -1.4928
 9045TIP3    H251331   1.336   5.116   9.799 -0.4433 -1.1381 -0.8257
 9046TIP3   OH251332   6.293   5.944   7.788  0.0285 -0.0588 -0.2820
 9046TIP3    H151333   6.276   5.965   7.880  1.9467 -2.3367  0.6969
 9046TIP3    H251334   6.247   6.013   7.739 -0.8107  1.4074  2.3518
 9047TIP3   OH251335   1.707   7.189   9.131  0.0246 -0.2379 -0.3205
 9047TIP3    H151336   1.646   7.154   9.065  0.2331  3.7089 -2.9411
 9047TIP3    H251337   1.651   7.215   9.204 -0.5575 -2.1165 -0.0303
 9048TIP3   OH251338   3.170   0.090   1.296 -0.4262 -0.4638  0.2611
 9048TIP3    H151339   3.195   0.155   1.230 -1.4608  1.0792  1.3246
 9048TIP3    H251340   3.253   0.065   1.337 -0.0449  0.6472  0.2145
 9049TIP3   OH251341   5.483   4.033   2.614 -0.4098  0.1120 -0.6886
 9049TIP3    H151342   5.396   4.043   2.651 -0.1815  0.6996 -0.2936
 9049TIP3    H251343   5.469   3.994   2.528 -1.1895  1.6019 -1.2765
 9050TIP3   OH251344   6.274   7.183   2.485  0.0766  0.1743 -0.1358
 9050TIP3    H151345   6.266   7.272   2.517  1.0750  0.6724 -1.2073
 9050TIP3    H251346   6.185   7.158   2.460 -0.1037  1.1461 -0.5107
 9051TIP3   OH251347   0.388   1.572   0.080  0.5959 -0.4086  0.1533
 9051TIP3    H151348   0.449   1.630   0.036  1.3657 -1.0057  0.4152
 9051TIP3    H251349   0.375   1.499   0.020 -0.4113  0.0360 -0.1996
 9052TIP3   OH251350   1.727   2.291   2.512 -0.0447  0.2843 -0.0203
 9052TIP3    H151351   1.660   2.296   2.445  0.2864  1.6443 -0.2947
 9052TIP3    H251352   1.685   2.247   2.586 -1.4990  1.7541  0.0826
 9053TIP3   OH251353   2.475   5.455   6.859 -0.0136 -0.2564  0.5504
 9053TIP3    H151354   2.433   5.428   6.941  0.6665 -0.9042  0.6881
 9053TIP3    H251355   2.487   5.374   6.810 -0.9601  0.1816 -0.4745
 9054TIP3   OH251356   3.603   6.528   7.997  0.5502 -0.8011  0.4418
 9054TIP3    H151357   3.536   6.576   8.047  1.4339  1.5296 -0.4838
 9054TIP3    H251358   3.553   6.482   7.929 -0.1389  3.2650 -2.1639
 9055TIP3   OH251359   2.049   0.644   9.630  0.1630 -0.7124  0.6180
 9055TIP3    H151360   2.094   0.692   9.561 -0.3202 -2.6512 -1.1480
 9055TIP3    H251361   2.076   0.687   9.711  0.3678  1.9580 -0.7656
 9056TIP3   OH251362   3.947   3.781   8.032  0.5149 -0.5669 -0.1567
 9056TIP3    H151363   3.983   3.776   8.121  0.4268  0.6817 -0.0302
 9056TIP3    H251364   3.985   3.707   7.986  0.5425 -1.2491  0.9347
 9057TIP3   OH251365   3.397   1.250   7.481  0.2995  0.2454  0.5370
 9057TIP3    H151366   3.473   1.265   7.537  0.4429 -1.0835  0.7283
 9057TIP3    H251367   3.433   1.217   7.399 -0.0261  0.3174  0.3630
 9058TIP3   OH251368   3.100   5.588   8.878 -0.3048 -0.5961  0.6719
 9058TIP3    H151369   3.165   5.599   8.809  0.9948  0.4762  2.0014
 9058TIP3    H251370   3.017   5.613   8.838  0.4179  0.0413 -0.4698
 9059TIP3   OH251371   0.375   5.359   0.992 -0.0890 -0.3556  0.1631
 9059TIP3    H151372   0.398   5.341   1.083 -0.6573 -1.3961  0.1125
 9059TIP3    H251373   0.454   5.337   0.943  0.1758  0.0877  0.3773
 9060TIP3   OH251374   0.796   7.662   1.988  0.0323 -0.2606 -0.1773
 9060TIP3    H151375   0.871   7.720   1.976  0.4624 -0.0709  2.6391
 9060TIP3    H251376   0.834   7.577   2.007 -0.4437 -0.3120  0.6036
 9061TIP3   OH251377   3.304   1.179   8.456  0.4608  0.5417  0.3419
 9061TIP3    H151378   3.249   1.252   8.427 -0.7891 -0.7287 -0.6719
 9061TIP3    H251379   3.256   1.142   8.531  0.4457  0.0371  0.0872
 9062TIP3   OH251380   3.647   3.818   8.074 -0.3160  0.3085 -0.1758
 9062TIP3    H151381   3.651   3.902   8.119 -0.4591 -0.6920  1.7795
 9062TIP3    H251382   3.739   3.793   8.063 -0.2439  0.9958 -1.3992
 9063TIP3   OH251383   4.234   7.306   7.467 -0.1305  0.3389  0.3779
 9063TIP3    H151384   4.324   7.278   7.484 -0.0296  0.3882 -0.0666
 9063TIP3    H251385   4.241   7.396   7.438 -0.0761 -0.4016 -2.0710
 9064TIP3   OH251386   0.045   6.415   1.188  0.4816  0.1483  0.5393
 9064TIP3    H151387   0.007   6.499   1.214  0.5076  0.8209 -1.4521
 9064TIP3    H251388   0.068   6.373   1.271 -0.3358  1.7139  1.6174
 9065TIP3   OH251389   1.301   5.549   8.841 -0.0513  0.0611 -0.0284
 9065TIP3    H151390   1.206   5.542   8.829  0.1025  0.1641 -1.6446
 9065TIP3    H251391   1.325   5.472   8.893 -1.0884  0.3952  0.9859
 9066TIP3   OH251392   2.293   2.780   9.812  0.3400 -0.3653  0.0464
 9066TIP3    H151393   2.225   2.738   9.866  0.1862  0.6993  0.7004
 9066TIP3    H251394   2.256   2.864   9.786  2.2194  1.3731  2.4410
 9067TIP3   OH251395   1.937   3.253   9.750  0.2078  0.0571  0.1701
 9067TIP3    H151396   1.945   3.291   9.838 -1.0305 -2.7219  1.6068
 9067TIP3    H251397   1.870   3.306   9.707  1.1034  1.7059  0.6849
 9068TIP3   OH251398   2.852   4.804   7.934  0.2981  0.0972  0.1101
 9068TIP3    H151399   2.876   4.893   7.910  0.5914  0.4174  1.4931
 9068TIP3    H251400   2.929   4.770   7.980 -0.8325  0.1594  2.1443
 9069TIP3   OH251401   3.573   4.596   9.504 -0.0182 -0.3148  0.2967
 9069TIP3    H151402   3.535   4.682   9.522 -0.0114 -0.3964  0.7243
 9069TIP3    H251403   3.571   4.551   9.589  2.6648  0.3318  0.8158
 9070TIP3   OH251404   4.589   0.118   2.904  0.0464 -0.8911  0.4073
 9070TIP3    H151405   4.566   0.052   2.840  0.0700 -1.0315  0.5418
 9070TIP3    H251406   4.516   0.180   2.903  0.9476  0.1940 -1.1772
 9071TIP3   OH251407   2.740   6.622   8.704  0.1399  0.2849 -0.1497
 9071TIP3    H151408   2.651   6.647   8.678  0.3819  0.6365 -0.6788
 9071TIP3    H251409   2.730   6.536   8.744 -0.5436  0.6673  0.5263
 9072TIP3   OH251410   2.189   0.303   3.556 -0.3640 -0.3398 -0.5884
 9072TIP3    H151411   2.147   0.283   3.639  0.8074  0.8681  0.3359
 9072TIP3    H251412   2.177   0.397   3.545  1.5630 -0.0614 -0.5661
 9073TIP3   OH251413   3.849   1.940   8.872  0.2995  0.4873  0.1061
 9073TIP3    H151414   3.905   1.892   8.934  1.0476  0.9955 -0.1631
 9073TIP3    H251415   3.902   1.948   8.793 -0.9434 -0.8480 -0.9017
 9074TIP3   OH251416   7.527   3.863   1.223 -0.7226 -0.0630  0.2177
 9074TIP3    H151417   7.525   3.769   1.203 -0.8030  0.0254 -0.1997
 9074TIP3    H251418   7.473   3.903   1.155  0.6670  0.4653 -0.6176
 9075TIP3   OH251419   0.913   4.249   9.911 -0.0503 -0.3240  0.1061
 9075TIP3    H151420   0.868   4.278   9.991 -0.6300 -0.6890 -0.0750
 9075TIP3    H251421   0.848   4.262   9.842 -1.2986 -4.1585  0.3109
 9076TIP3   OH251422   2.741   3.159   2.231 -0.2125 -0.4862 -0.6295
 9076TIP3    H151423   2.817   3.192   2.182  0.4057  1.2192  1.3339
 9076TIP3    H251424   2.684   3.235   2.241 -1.1916 -1.2450 -0.2767
 9077TIP3   OH251425   2.981   3.115   8.978 -0.5205 -0.2429 -0.2738
 9077TIP3    H151426   3.008   3.032   8.938  0.5517  1.1807 -2.7242
 9077TIP3    H251427   3.062   3.164   8.992 -1.2276  0.9833 -0.2763
 9078TIP3   OH251428   5.072   5.333   8.803 -0.1563 -0.4328  0.3057
 9078TIP3    H151429   5.024   5.266   8.754 -1.7207  0.8780 -0.0676
 9078TIP3    H251430   5.003   5.386   8.843  1.0582  0.3201  1.4606
 9079TIP3   OH251431   2.165   5.184   2.059  0.5311  0.3135  0.0627
 9079TIP3    H151432   2.083   5.211   2.102  1.1613  1.5528  0.5196
 9079TIP3    H251433   2.168   5.089   2.073  0.1657  0.5165  1.8364
 9080TIP3   OH251434   1.585   6.752   8.944 -0.6358  0.4928 -0.0753
 9080TIP3    H151435   1.579   6.665   8.905 -0.7286  0.9278 -1.0606
 9080TIP3    H251436   1.522   6.750   9.016  1.4796 -1.2256  1.8872
 9081TIP3   OH251437   6.146   1.087   8.944  0.1439 -0.0537  1.2219
 9081TIP3    H151438   6.098   1.006   8.959 -0.4304  0.1437  0.4839
 9081TIP3    H251439   6.110   1.123   8.863  0.3129  1.0027  1.5919
 9082TIP3   OH251440   6.647   1.375   0.928  0.2538  0.6028 -0.1632
 9082TIP3    H151441   6.698   1.297   0.907 -0.9691 -0.3557  0.2437
 9082TIP3    H251442   6.606   1.354   1.012 -0.1398  1.6619 -0.0764
 9083TIP3   OH251443   7.196   2.551   1.187 -0.0532  0.1520 -0.1458
 9083TIP3    H151444   7.210   2.535   1.281 -1.0974 -0.4281 -0.0811
 9083TIP3    H251445   7.103   2.572   1.179  0.1060  0.5756 -1.0101
 9084TIP3   OH251446   2.571   5.468   0.219 -0.0215  0.3416  0.0553
 9084TIP3    H151447   2.508   5.414   0.172  0.6148  0.7940 -1.3747
 9084TIP3    H251448   2.521   5.505   0.292 -1.5281  0.9865 -1.2479
 9085TIP3   OH251449   3.264   7.555   9.935 -0.2196 -0.6074 -0.1206
 9085TIP3    H151450   3.207   7.607   9.992  1.1760  0.1854  0.6126
 9085TIP3    H251451   3.301   7.488   9.993  2.2189  0.9866  0.3521
 9086TIP3   OH251452   0.842   5.609   7.807  0.2185  0.0344  0.2140
 9086TIP3    H151453   0.860   5.684   7.749 -1.2059  0.5841  0.4547
 9086TIP3    H251454   0.777   5.557   7.760 -0.2527 -0.0092  0.9101
 9087TIP3   OH251455   7.300   1.149   2.606  0.3047 -0.2453  1.1208
 9087TIP3    H151456   7.328   1.094   2.533  0.0632 -0.8723  1.4883
 9087TIP3    H251457   7.337   1.107   2.684 -0.4007 -0.2502  1.4652
 9088TIP3   OH251458   1.123   5.893   8.581  0.3518  0.4188 -0.2584
 9088TIP3    H151459   1.181   5.946   8.635 -0.1061 -0.7047  1.3979
 9088TIP3    H251460   1.174   5.815   8.559 -0.4331 -0.5261  1.1222
 9089TIP3   OH251461   1.413   3.748   2.328 -0.2779  0.1312  0.6775
 9089TIP3    H151462   1.481   3.761   2.394 -0.3618  0.3556  0.7206
 9089TIP3    H251463   1.359   3.827   2.334  0.8576  1.1160 -1.0247
 9090TIP3   OH251464   3.179   2.346   1.380 -0.1395  0.8231 -0.2735
 9090TIP3    H151465   3.122   2.290   1.326  0.3320 -0.1478  0.2161
 9090TIP3    H251466   3.148   2.332   1.470 -0.1147  1.4801 -0.1583
 9091TIP3   OH251467   0.616   2.463   7.259 -0.2982 -0.7409 -0.3159
 9091TIP3    H151468   0.674   2.539   7.257 -1.1952 -0.0542 -0.6084
 9091TIP3    H251469   0.629   2.420   7.175  0.0607 -0.8047 -0.2294
 9092TIP3   OH251470   7.407   5.011   1.931 -0.7708 -0.1127 -0.2477
 9092TIP3    H151471   7.430   5.103   1.944 -0.3359 -0.3727  0.9268
 9092TIP3    H251472   7.363   5.009   1.846 -1.6141  1.3150  0.1335
 9093TIP3   OH251473   7.234   2.856   8.750  0.3181 -0.1876 -0.5177
 9093TIP3    H151474   7.188   2.893   8.674  1.2850  0.2593 -0.9000
 9093TIP3    H251475   7.213   2.763   8.748 -0.5228 -0.0026 -0.7139
 9094TIP3   OH251476   4.425   5.351   9.440 -0.4401 -0.1940 -0.3840
 9094TIP3    H151477   4.433   5.304   9.357  0.0167 -1.0748  0.1443
 9094TIP3    H251478   4.472   5.296   9.503 -2.1285 -0.3389  0.7967
 9095TIP3   OH251479   4.030   7.456   1.443  0.3389 -0.5280  0.9191
 9095TIP3    H151480   4.105   7.470   1.500  1.5942 -0.3929 -0.6660
 9095TIP3    H251481   4.069   7.432   1.359 -1.3360  0.6861 -0.2781
 9096TIP3   OH251482   1.589   0.184   1.997 -0.3339 -0.2421 -0.3081
 9096TIP3    H151483   1.599   0.270   1.956 -1.3693  0.0890  0.1033
 9096TIP3    H251484   1.548   0.202   2.081 -0.1849 -1.1140 -0.0374
 9097TIP3   OH251485   6.352   5.696   9.335  0.3351 -0.3545  0.2291
 9097TIP3    H151486   6.316   5.660   9.416 -1.8333 -1.1078 -0.9792
 9097TIP3    H251487   6.275   5.717   9.282  1.6563 -1.6489 -2.3837
 9098TIP3   OH251488   6.687   5.169   0.237  0.0735  0.0899  0.0108
 9098TIP3    H151489   6.751   5.098   0.243 -0.8547 -0.7273  0.3652
 9098TIP3    H251490   6.638   5.165   0.319 -0.9678  0.1940 -0.5893
 9099TIP3   OH251491   1.346   6.060   9.515 -0.5462 -0.2644 -0.1153
 9099TIP3    H151492   1.322   6.054   9.607 -1.4799  1.8196 -0.1857
 9099TIP3    H251493   1.442   6.052   9.515 -0.4632  0.5248  1.1233
 9100TIP3   OH251494   5.197   4.386   7.578 -0.1483 -0.3539 -0.6777
 9100TIP3    H151495   5.212   4.315   7.515 -0.2501 -0.8832 -0.1248
 9100TIP3    H251496   5.102   4.389   7.588 -0.1335 -0.2715 -0.5607
 9101TIP3   OH251497   6.668   7.580   8.232  0.3061 -0.3256 -0.0702
 9101TIP3    H151498   6.683   7.627   8.150 -2.0605  0.2112 -0.2744
 9101TIP3    H251499   6.725   7.504   8.226 -0.3178 -0.7061 -2.6155
 9102TIP3   OH251500   1.778   6.219   0.685 -0.1912  0.1412 -0.2204
 9102TIP3    H151501   1.792   6.257   0.772  0.3800 -0.8798  0.1484
 9102TIP3    H251502   1.791   6.125   0.697  0.9931  0.0913 -1.6291
 9103TIP3   OH251503   6.664   5.106   9.965 -0.2895  0.5689  0.8179
 9103TIP3    H151504   6.654   5.115  10.060 -1.7476  0.1105  0.7314
 9103TIP3    H251505   6.599   5.167   9.928 -1.7637 -1.2772  0.1740
 9104TIP3   OH251506   1.625   3.416   1.114  0.2546 -0.1467 -0.0877
 9104TIP3    H151507   1.612   3.402   1.208 -4.0054 -0.6738 -0.5546
 9104TIP3    H251508   1.621   3.511   1.103 -2.6112 -0.1439  0.0970
 9105TIP3   OH251509   1.456   4.730   1.892 -0.0829 -0.5670  0.3789
 9105TIP3    H151510   1.363   4.739   1.874  0.0159 -0.2445  0.0221
 9105TIP3    H251511   1.465   4.643   1.932 -0.7513  0.0501  1.9129
 9106TIP3   OH251512   5.040   5.962   0.740 -0.0330  0.7168  0.0073
 9106TIP3    H151513   5.119   5.913   0.764 -0.6394 -0.3320 -0.0438
 9106TIP3    H251514   5.069   6.053   0.732  1.7728  0.0489 -2.5888
 9107TIP3   OH251515   7.345   5.405   0.380  0.4431 -0.1502  0.4096
 9107TIP3    H151516   7.315   5.352   0.305 -0.6379  0.2809  0.5137
 9107TIP3    H251517   7.422   5.451   0.347 -0.1059  0.1516 -0.5050
 9108TIP3   OH251518   1.114   3.762   7.919  0.4532 -0.1034 -0.0967
 9108TIP3    H151519   1.025   3.796   7.910  0.2447 -0.2489  1.2101
 9108TIP3    H251520   1.149   3.807   7.996  1.0503 -1.0036  0.1715
 9109TIP3   OH251521   0.004   5.929   0.595 -0.0278  0.1783 -0.3870
 9109TIP3    H151522   0.039   5.996   0.536 -0.6450  0.5713 -0.3102
 9109TIP3    H251523  -0.086   5.915   0.565  0.6533 -2.0172 -1.6301
 9110TIP3   OH251524   6.026   5.829   8.183 -0.4350 -0.4156  0.7398
 9110TIP3    H151525   6.019   5.780   8.101 -0.1907  0.1355  0.3840
 9110TIP3    H251526   6.102   5.790   8.227 -0.8704 -1.0537  0.9503
 9111TIP3   OH251527   3.181   7.483   1.620 -0.4080 -0.1076 -0.1820
 9111TIP3    H151528   3.097   7.493   1.576  0.0298 -1.0371 -1.2677
 9111TIP3    H251529   3.246   7.485   1.550  0.2649 -2.3562  0.2939
 9112TIP3   OH251530   7.201   5.095   9.297  0.3312 -0.2464 -0.2535
 9112TIP3    H151531   7.137   5.162   9.321 -0.4449 -0.4575 -1.6215
 9112TIP3    H251532   7.185   5.024   9.359  0.4598  0.4178  0.5523
 9113TIP3   OH251533   5.897   6.521   0.334 -0.2342 -0.1053  0.0624
 9113TIP3    H151534   5.889   6.616   0.323  0.4243 -0.0692 -0.1246
 9113TIP3    H251535   5.833   6.499   0.401 -0.1390  0.5252  0.3609
 9114TIP3   OH251536   2.232   6.236   1.609  0.4937  0.1213  0.0033
 9114TIP3    H151537   2.294   6.270   1.675  1.7413 -1.3353 -0.3551
 9114TIP3    H251538   2.168   6.307   1.598  0.3633  0.5188  2.5942
 9115TIP3   OH251539   2.022   0.604   8.372  0.1706  0.1533 -0.5643
 9115TIP3    H151540   2.036   0.678   8.313  0.6691 -0.5437 -1.3439
 9115TIP3    H251541   2.014   0.529   8.314  2.2733 -0.7947  0.2904
 9116TIP3   OH251542   0.633   6.685   8.398 -0.0626  0.2049  0.2881
 9116TIP3    H151543   0.590   6.609   8.438 -0.5164  0.5433  0.4503
 9116TIP3    H251544   0.602   6.686   8.308  0.0473  0.1191  0.2497
 9117TIP3   OH251545   4.510   7.147   1.677  0.5274 -0.0281 -0.1054
 9117TIP3    H151546   4.529   7.234   1.712 -0.7085  0.4080 -0.4465
 9117TIP3    H251547   4.566   7.088   1.726  0.1458  0.7736  1.3478
 9118TIP3   OH251548   0.513   2.238   8.362 -0.1459 -0.2972  0.1875
 9118TIP3    H151549   0.548   2.273   8.444 -2.6867  0.5782  0.9822
 9118TIP3    H251550   0.490   2.316   8.310  1.3391 -0.8335 -1.3924
 9119TIP3   OH251551   5.282   7.204   8.346 -0.5023 -0.1903  0.1093
 9119TIP3    H151552   5.352   7.179   8.407 -0.4457 -1.0807 -0.2989
 9119TIP3    H251553   5.202   7.199   8.397 -0.5130 -1.4372 -0.0010
 9120TIP3   OH251554   3.858   1.285   2.303 -0.8479 -0.5291  0.0546
 9120TIP3    H151555   3.910   1.338   2.242  2.2790 -3.1149  0.1885
 9120TIP3    H251556   3.860   1.336   2.385  0.4044  0.0713 -0.3160
 9121TIP3   OH251557   7.440   1.993   8.802  0.1798  0.2010 -0.0751
 9121TIP3    H151558   7.422   1.950   8.885  3.0302 -0.9946  0.0506
 9121TIP3    H251559   7.384   1.950   8.739  0.9867 -1.8665  0.5449
 9122TIP3   OH251560   5.450   1.723   1.900  0.5755 -0.0442  0.3158
 9122TIP3    H151561   5.450   1.647   1.958 -0.4741 -0.6772 -0.4717
 9122TIP3    H251562   5.416   1.795   1.954 -0.4776 -0.6444  0.4712
 9123TIP3   OH251563   7.337   4.415   9.590 -0.1125  0.0316 -0.2261
 9123TIP3    H151564   7.314   4.473   9.518  1.3648  0.7972 -0.1274
 9123TIP3    H251565   7.277   4.342   9.583 -0.0932  0.1603 -2.1462
 9124TIP3   OH251566   3.211   1.571   9.119  0.0045  0.3556  0.0372
 9124TIP3    H151567   3.223   1.478   9.099  0.8355  0.2070  1.1103
 9124TIP3    H251568   3.275   1.615   9.063 -1.4028  0.4588 -1.5939
 9125TIP3   OH251569   0.388   7.573   9.385  0.2493 -0.0953 -0.5372
 9125TIP3    H151570   0.394   7.667   9.367  0.3447 -0.1128 -0.5963
 9125TIP3    H251571   0.466   7.536   9.345  0.5421 -0.1153  0.0406
 9126TIP3   OH251572   1.044   1.889   0.917 -0.5696 -0.0305 -0.0466
 9126TIP3    H151573   1.069   1.807   0.959 -1.4627 -0.2911 -0.0054
 9126TIP3    H251574   1.061   1.956   0.982  0.3453 -0.1571 -0.1463
 9127TIP3   OH251575   1.644   5.919   9.086 -0.2741  0.1021  0.4154
 9127TIP3    H151576   1.619   5.846   9.029 -0.2544 -0.3485  0.9812
 9127TIP3    H251577   1.581   5.916   9.158 -0.3661  0.7379  0.3673
 9128TIP3   OH251578   3.323   4.651   9.226 -0.2372 -0.2064  0.4318
 9128TIP3    H151579   3.382   4.707   9.276 -1.5175  0.7489  0.9410
 9128TIP3    H251580   3.280   4.596   9.292  1.9990 -2.8854 -0.1686
 9129TIP3   OH251581   6.834   7.067   9.679 -1.0035 -0.0382 -0.4658
 9129TIP3    H151582   6.746   7.042   9.705 -1.7914  2.4090 -0.5100
 9129TIP3    H251583   6.880   7.083   9.762 -0.9343 -0.2733 -0.4587
 9130TIP3   OH251584   1.094   3.736   0.862  0.1523  0.0561  0.2620
 9130TIP3    H151585   1.157   3.779   0.804 -0.3388  0.7102  0.1972
 9130TIP3    H251586   1.012   3.735   0.812 -0.1267  0.0848  0.7087
 9131TIP3   OH251587   6.522   2.458   0.125  0.0939 -0.1933  0.6788
 9131TIP3    H151588   6.592   2.521   0.145 -1.4111  2.9593 -2.8925
 9131TIP3    H251589   6.554   2.411   0.048 -1.4149  0.9517 -0.7025
 9132TIP3   OH251590   1.175   5.900   1.155 -0.0688  0.5308 -0.0846
 9132TIP3    H151591   1.139   5.845   1.225 -1.4233 -2.4274 -2.8125
 9132TIP3    H251592   1.268   5.878   1.152  0.0663  0.9160  0.9202
 9133TIP3   OH251593   0.589   3.836   9.354  0.2438 -0.0419 -0.7742
 9133TIP3    H151594   0.659   3.887   9.395 -0.7062 -0.3829  1.4652
 9133TIP3    H251595   0.540   3.800   9.428 -2.2707  0.1335 -2.2238
 9134TIP3   OH251596   7.466   7.535   9.470 -0.4641 -0.0983 -0.8020
 9134TIP3    H151597   7.513   7.519   9.552  3.5853 -0.7282 -3.0206
 9134TIP3    H251598   7.457   7.631   9.466  1.5074  0.1309 -0.6713
 9135TIP3   OH251599   1.581   2.281   2.004  0.4442  0.2303 -0.0303
 9135TIP3    H151600   1.517   2.228   1.956 -0.0747  1.4318 -0.6992
 9135TIP3    H251601   1.657   2.284   1.946 -0.1834  1.6837 -0.8197
 9136TIP3   OH251602   5.381   0.562   8.762 -0.6020  0.4543 -0.2509
 9136TIP3    H151603   5.286   0.568   8.748 -0.7587 -2.7137 -1.2363
 9136TIP3    H251604   5.390   0.530   8.851 -0.6188 -1.3893 -0.8728
 9137TIP3   OH251605   6.001   4.545   0.340  0.1204 -0.3560  0.2362
 9137TIP3    H151606   6.085   4.498   0.340 -0.2873 -1.1565  2.0988
 9137TIP3    H251607   5.943   4.489   0.290  0.0664 -1.0692  1.0686
 9138TIP3   OH251608   0.981   3.913   0.256 -0.0096  0.0645 -0.4030
 9138TIP3    H151609   0.961   3.956   0.172  0.3695  1.6467  0.2727
 9138TIP3    H251610   0.899   3.869   0.280 -0.9580  1.6964 -0.4216
 9139TIP3   OH251611   3.420   1.083   7.821 -0.6921 -0.1549 -0.2515
 9139TIP3    H151612   3.493   1.089   7.760  0.2680  0.1358  0.8894
 9139TIP3    H251613   3.343   1.105   7.768 -0.0869 -1.3493 -1.6839
 9140TIP3   OH251614   0.217   1.239   1.230 -0.5771 -0.1704  0.0625
 9140TIP3    H151615   0.201   1.270   1.141 -1.8932  0.2489  0.4210
 9140TIP3    H251616   0.251   1.316   1.277  0.3424 -0.4519 -0.1155
 9141TIP3   OH251617   2.079   1.162   8.264 -0.2357 -0.0593 -0.2124
 9141TIP3    H151618   2.093   1.096   8.332 -0.9751 -1.1632 -1.0867
 9141TIP3    H251619   2.042   1.237   8.310  1.6917  0.2242  0.9953
 9142TIP3   OH251620   4.379   5.586   0.064 -0.4175 -0.0585  0.2268
 9142TIP3    H151621   4.460   5.609   0.110 -0.2152  0.3235 -0.3065
 9142TIP3    H251622   4.396   5.498   0.028 -0.1370  0.1296 -0.1072
 9143TIP3   OH251623   5.511   4.981   1.549  0.6656  0.2094 -0.2132
 9143TIP3    H151624   5.466   5.062   1.575 -0.6575 -0.4588 -0.2967
 9143TIP3    H251625   5.521   4.932   1.631 -1.8457 -1.0919 -0.5736
 9144TIP3   OH251626   4.828   4.360   2.585  0.2389  0.4146 -0.4451
 9144TIP3    H151627   4.897   4.413   2.625 -0.5027  1.3655 -0.3832
 9144TIP3    H251628   4.753   4.370   2.644  0.4900 -1.9311  0.3793
 9145TIP3   OH251629   4.715   7.470   2.073  0.5719 -0.1472 -0.1716
 9145TIP3    H151630   4.696   7.497   2.163  1.4815  1.0432 -0.2945
 9145TIP3    H251631   4.725   7.375   2.077 -0.2754 -0.2103  0.8046
 9146TIP3   OH251632   1.829   1.472   9.006  0.3370  0.3296  0.0329
 9146TIP3    H151633   1.914   1.515   9.016  1.9859 -2.7814  0.6482
 9146TIP3    H251634   1.817   1.465   8.911  0.9235  0.4831 -0.0585
 9147TIP3   OH251635   6.011   0.240   1.714 -0.2877 -0.2413  0.7345
 9147TIP3    H151636   6.075   0.310   1.704 -0.0640 -0.4125  0.9537
 9147TIP3    H251637   5.938   0.281   1.760  0.3087 -0.4170  1.8969
 9148TIP3   OH251638   1.877   0.973   8.423  0.6632 -0.2051 -0.6876
 9148TIP3    H151639   1.941   1.002   8.488  0.5477 -0.0917 -0.6230
 9148TIP3    H251640   1.793   0.975   8.470  0.7979 -1.6915 -0.3582
 9149TIP3   OH251641   1.685   1.838   7.446 -0.5614 -0.3597 -0.2951
 9149TIP3    H151642   1.639   1.914   7.483  0.4814 -0.4582  1.3183
 9149TIP3    H251643   1.617   1.787   7.403 -1.4010  1.1259 -0.8054
 9150TIP3   OH251644   2.011   3.371   1.096  1.0685 -0.3778  0.1041
 9150TIP3    H151645   2.014   3.279   1.124 -1.1974 -1.0205 -1.5394
 9150TIP3    H251646   2.038   3.369   1.005  1.4249  0.6850  0.1723
 9151TIP3   OH251647   3.607   6.164   9.323  0.4636 -0.4790  0.2937
 9151TIP3    H151648   3.610   6.169   9.227 -0.1081  0.2762  0.2983
 9151TIP3    H251649   3.602   6.071   9.342 -1.3831 -0.6054 -0.5114
 9152TIP3   OH251650   0.497   1.735   7.842  0.2602  0.0510  0.3896
 9152TIP3    H151651   0.401   1.737   7.846  0.1460 -2.8647  3.3721
 9152TIP3    H251652   0.516   1.674   7.770 -0.1186  0.5623 -0.1507
 9153TIP3   OH251653   0.613   0.690   3.037 -0.7243 -0.1730  0.0723
 9153TIP3    H151654   0.600   0.607   3.082  0.3392 -0.6383 -0.4583
 9153TIP3    H251655   0.525   0.715   3.009 -1.2101 -0.5655  1.1705
 9154TIP3   OH251656   3.017   0.294   7.973  0.1190  0.0533 -0.1865
 9154TIP3    H151657   3.091   0.234   7.969 -0.1405 -0.2055 -2.2474
 9154TIP3    H251658   2.948   0.251   7.921 -0.8799  1.0608  0.2572
 9155TIP3   OH251659   5.590   3.058   9.097 -0.2997  1.0013 -0.3139
 9155TIP3    H151660   5.540   3.043   9.017 -0.2763  0.5100 -0.2410
 9155TIP3    H251661   5.680   3.073   9.067 -0.1475  0.0792 -0.3432
 9156TIP3   OH251662   0.634   2.749   8.926 -0.1973  0.5902  0.3673
 9156TIP3    H151663   0.615   2.842   8.911 -0.4789  0.4862  0.0637
 9156TIP3    H251664   0.632   2.739   9.021 -1.1523  0.6960  0.3695
 9157TIP3   OH251665   5.564   0.615   0.097  0.5945  0.9067  0.1551
 9157TIP3    H151666   5.581   0.522   0.080 -1.5325  0.6982 -1.2500
 9157TIP3    H251667   5.644   0.659   0.071  0.3593 -0.2361 -2.9726
 9158TIP3   OH251668   4.170   5.849   2.686 -0.4115 -0.0689  0.3924
 9158TIP3    H151669   4.098   5.788   2.703 -1.0168  0.2677 -0.7761
 9158TIP3    H251670   4.232   5.799   2.633 -0.3476 -0.0216  0.4224
 9159TIP3   OH251671   4.008   6.390   1.234  0.3214 -0.2472  0.7523
 9159TIP3    H151672   4.002   6.478   1.196 -0.6121 -1.2514 -1.5600
 9159TIP3    H251673   4.094   6.358   1.205 -0.2847 -0.9201 -0.3494
 9160TIP3   OH251674   1.651   2.560   7.273  0.0797 -0.2110  0.6280
 9160TIP3    H151675   1.584   2.524   7.215  0.3650 -3.5541  2.1174
 9160TIP3    H251676   1.725   2.579   7.215 -0.6041 -0.7305 -0.4540
 9161TIP3   OH251677   0.199   5.233   9.184 -0.4732 -0.5787  0.0747
 9161TIP3    H151678   0.234   5.144   9.186 -0.9322 -0.9222 -3.0324
 9161TIP3    H251679   0.277   5.289   9.191  0.2271 -1.2883 -1.5623
 9162TIP3   OH251680   7.207   4.062   1.283 -0.3362  0.4242 -0.1188
 9162TIP3    H151681   7.285   4.045   1.231 -0.3609  0.1697 -0.0738
 9162TIP3    H251682   7.228   4.141   1.333 -0.0244  0.2298  0.0612
 9163TIP3   OH251683   0.902   4.870   1.212  0.0990  0.2122 -0.0004
 9163TIP3    H151684   0.814   4.895   1.185  0.6169  0.3811 -1.6395
 9163TIP3    H251685   0.897   4.774   1.222  0.1866 -0.0323 -2.0135
 9164TIP3   OH251686   2.702   5.008   9.962  0.1855  0.6941 -0.0051
 9164TIP3    H151687   2.664   4.926   9.930 -0.2955  0.8038  0.2767
 9164TIP3    H251688   2.678   5.073   9.895  0.9063  0.5344 -0.4300
 9165TIP3   OH251689   3.068   0.522   6.589  0.2608  0.2769 -0.2247
 9165TIP3    H151690   3.046   0.557   6.676 -0.5486 -0.1115 -0.2666
 9165TIP3    H251691   2.984   0.521   6.542  0.2630 -1.6770 -0.2433
 9166TIP3   OH251692   1.108   5.714   7.651  0.1412  0.6913  0.0181
 9166TIP3    H151693   1.093   5.781   7.585  0.7239  0.6502 -0.1603
 9166TIP3    H251694   1.098   5.631   7.604 -1.8561  0.5940  0.5029
 9167TIP3   OH251695   6.698   3.156   8.251  0.5269  0.2597 -0.1661
 9167TIP3    H151696   6.773   3.161   8.192 -0.1602 -0.8960 -1.1784
 9167TIP3    H251697   6.733   3.118   8.331  1.7909  3.1833  0.8199
 9168TIP3   OH251698   2.106   5.614   0.611  0.2899  0.2088 -0.0912
 9168TIP3    H151699   2.200   5.600   0.594  0.0217  0.2963 -1.8160
 9168TIP3    H251700   2.076   5.666   0.536 -1.4947 -1.2264 -0.4312
 9169TIP3   OH251701   5.807   3.145   8.073  0.0416 -0.3890 -0.0779
 9169TIP3    H151702   5.741   3.098   8.123 -3.3200  1.5178 -2.3442
 9169TIP3    H251703   5.818   3.228   8.120  0.5273 -0.5290  0.0605
 9170TIP3   OH251704   3.689   2.474   0.664 -0.5123 -0.3821  0.1234
 9170TIP3    H151705   3.744   2.400   0.688  0.2658 -0.4911 -1.7924
 9170TIP3    H251706   3.605   2.435   0.639 -0.3583 -0.5654 -0.1215
 9171TIP3   OH251707   6.269   2.395   0.745 -0.0757  0.1571  0.0783
 9171TIP3    H151708   6.346   2.338   0.747  0.8794  1.4217  1.3414
 9171TIP3    H251709   6.305   2.483   0.753 -1.5919  0.8810 -0.7245
 9172TIP3   OH251710   5.985   3.048   1.922  0.0962 -0.2262 -0.1447
 9172TIP3    H151711   6.081   3.045   1.930  0.0993 -0.5720 -0.3119
 9172TIP3    H251712   5.954   3.020   2.008  0.1412  1.2887  0.3953
 9173TIP3   OH251713   1.657   1.669   9.581  0.2018  0.0394 -0.2248
 9173TIP3    H151714   1.574   1.707   9.610  0.5978  0.6262  0.1647
 9173TIP3    H251715   1.633   1.607   9.513 -0.4699  0.9286 -0.8143
 9174TIP3   OH251716   3.696   6.438   9.109  0.4930 -0.4281  0.1672
 9174TIP3    H151717   3.746   6.410   9.186  0.3845 -0.0663  0.3700
 9174TIP3    H251718   3.761   6.481   9.054  0.8013 -1.6484 -0.4530
 9175TIP3   OH251719   7.187   5.499   9.514 -0.1610  0.4509  0.4526
 9175TIP3    H151720   7.195   5.495   9.610 -0.8576  1.1166  0.5528
 9175TIP3    H251721   7.143   5.583   9.498 -1.0363 -0.1580 -0.3916
 9176TIP3   OH251722   7.201   0.831   0.125  0.0388 -0.1306 -0.0062
 9176TIP3    H151723   7.267   0.826   0.194 -1.2055 -1.9900  1.1479
 9176TIP3    H251724   7.219   0.755   0.069  1.6635  1.8891 -2.4528
 9177TIP3   OH251725   7.194   4.540   8.520  0.4529  0.0538 -0.1393
 9177TIP3    H151726   7.113   4.542   8.469  0.0651 -1.2193  0.3713
 9177TIP3    H251727   7.258   4.586   8.466 -0.6537  1.2533 -0.4613
 9178TIP3   OH251728   2.660   1.818   1.626  0.6408 -0.4336 -0.0692
 9178TIP3    H151729   2.574   1.860   1.628  0.5915 -0.5306 -0.1344
 9178TIP3    H251730   2.677   1.803   1.533  1.7352  1.6461 -0.2655
 9179TIP3   OH251731   4.635   0.522   8.334 -1.0194  0.4383 -0.1061
 9179TIP3    H151732   4.681   0.439   8.336 -2.7210 -0.5537  0.6709
 9179TIP3    H251733   4.693   0.581   8.286  0.9041 -0.7577  0.6360
 9180TIP3   OH251734   4.162   3.968   9.386  0.1808  0.2023 -0.2521
 9180TIP3    H151735   4.238   3.956   9.329 -0.1122  1.0696 -0.8433
 9180TIP3    H251736   4.090   3.925   9.339  0.1378  0.0684 -0.0656
 9181TIP3   OH251737   1.289   4.713   7.613  0.4801 -0.0020 -0.7819
 9181TIP3    H151738   1.306   4.793   7.564  0.2274  0.6314  0.1535
 9181TIP3    H251739   1.343   4.721   7.692  0.5763 -0.8262 -0.7490
 9182TIP3   OH251740   5.696   6.897   0.851 -0.1804 -0.2496 -0.6079
 9182TIP3    H151741   5.648   6.826   0.894 -0.6608  0.4292 -0.0151
 9182TIP3    H251742   5.678   6.974   0.904 -1.1371  0.7171 -2.2741
 9183TIP3   OH251743   3.410   1.287   0.616 -0.5191 -0.1880 -0.0205
 9183TIP3    H151744   3.319   1.266   0.638 -1.0544  0.6875 -1.2807
 9183TIP3    H251745   3.424   1.246   0.531 -0.1109  0.6452 -0.3636
 9184TIP3   OH251746   7.455   6.586   0.351 -0.0407  0.2971 -0.6626
 9184TIP3    H151747   7.405   6.659   0.316 -2.6479 -1.4935 -0.9796
 9184TIP3    H251748   7.398   6.549   0.419 -0.4223 -3.3499 -2.7182
 9185TIP3   OH251749   4.850   6.921   8.613  0.0697  0.5358 -0.0855
 9185TIP3    H151750   4.850   6.978   8.536 -1.1023  0.3950 -0.2086
 9185TIP3    H251751   4.825   6.978   8.686  1.0452  0.6392  0.1763
 9186TIP3   OH251752   6.121   5.573   9.869  0.4782  0.5055 -0.0583
 9186TIP3    H151753   6.084   5.549   9.954  0.3313 -0.1977 -0.3115
 9186TIP3    H251754   6.051   5.622   9.826 -0.4681 -1.3748 -0.7964
 9187TIP3   OH251755   0.815   6.230   1.001  0.3356  0.2645 -0.0333
 9187TIP3    H151756   0.845   6.217   0.911 -1.3023 -1.4280 -0.4080
 9187TIP3    H251757   0.738   6.286   0.993 -0.2262 -0.4592  0.2239
 9188TIP3   OH251758   1.069   0.664   1.825 -0.2634  0.2260 -0.3765
 9188TIP3    H151759   1.082   0.688   1.917 -1.7469  1.9000 -0.5667
 9188TIP3    H251760   1.121   0.727   1.776  0.6368 -0.7510 -0.7214
 9189TIP3   OH251761   6.742   6.857   1.810 -0.3362 -0.0514  1.1127
 9189TIP3    H151762   6.671   6.884   1.868 -0.6756  0.5862  0.4148
 9189TIP3    H251763   6.740   6.761   1.813 -1.6415 -0.0629  0.6196
 9190TIP3   OH251764   3.477   4.121   6.696  0.2574 -0.6081 -0.0298
 9190TIP3    H151765   3.531   4.178   6.751  1.4640 -1.6093 -0.1320
 9190TIP3    H251766   3.535   4.096   6.624 -0.8589 -0.4578 -0.9988
 9191TIP3   OH251767   5.265   6.411   8.784 -0.2458  0.4720  0.2274
 9191TIP3    H151768   5.258   6.367   8.868  0.3491  1.1980  0.6689
 9191TIP3    H251769   5.222   6.352   8.722  1.5800 -1.3161  0.5699
 9192TIP3   OH251770   2.607   5.101   8.715  0.1845  0.4409  0.1882
 9192TIP3    H151771   2.518   5.068   8.731  0.2159 -0.6465 -1.6146
 9192TIP3    H251772   2.594   5.171   8.652  0.5791  0.5320  0.2112
 9193TIP3   OH251773   1.118   0.111   8.943 -0.7724 -0.6811  0.0231
 9193TIP3    H151774   1.191   0.141   8.888 -0.7769 -0.8435 -0.0755
 9193TIP3    H251775   1.062   0.188   8.953 -0.5561 -0.5404  0.1486
 9194TIP3   OH251776   2.096   1.058   9.996 -0.0523 -0.1727  0.4496
 9194TIP3    H151777   2.003   1.072  10.010  0.2722  1.8850  0.8682
 9194TIP3    H251778   2.109   1.073   9.902  0.0273  0.6796  0.5946
 9195TIP3   OH251779   6.811   5.867   0.403 -0.3073 -0.2891  0.1053
 9195TIP3    H151780   6.806   5.779   0.439 -1.5180 -0.3620 -0.1969
 9195TIP3    H251781   6.850   5.919   0.473 -2.0370 -0.5507  1.3415
 9196TIP3   OH251782   2.812   5.368   8.934  0.2476 -0.2226  0.6600
 9196TIP3    H151783   2.818   5.330   9.022 -0.5994  0.4483  1.0255
 9196TIP3    H251784   2.862   5.450   8.941 -0.6514  0.3236  0.8108
 9197TIP3   OH251785   1.143   1.118   9.959  0.4187  0.0805  0.3109
 9197TIP3    H151786   1.234   1.118   9.989  2.0534  0.6465 -3.9771
 9197TIP3    H251787   1.139   1.047   9.895 -2.7749 -1.1342  1.6566
 9198TIP3   OH251788   6.187   4.344   9.050 -0.1234 -0.1395  0.0395
 9198TIP3    H151789   6.161   4.335   9.142  0.3881  0.9298  0.3061
 9198TIP3    H251790   6.113   4.388   9.008 -0.0863 -0.0249  0.0921
 9199TIP3   OH251791   4.225   5.494   7.851 -0.1664  0.1880  0.7974
 9199TIP3    H151792   4.312   5.461   7.871  0.0195  0.0663 -0.1517
 9199TIP3    H251793   4.228   5.513   7.757 -1.0178  0.6226  0.8508
 9200TIP3   OH251794   1.154   0.183   0.121  0.2051 -0.4546  0.2607
 9200TIP3    H151795   1.121   0.099   0.153  0.5029 -1.5009 -1.9608
 9200TIP3    H251796   1.244   0.187   0.152  0.0199 -0.6811  0.8488
 9201TIP3   OH251797   1.051   7.234   1.063 -0.4033  0.4970 -0.6637
 9201TIP3    H151798   1.021   7.147   1.088 -0.6462 -0.0142 -2.5792
 9201TIP3    H251799   0.972   7.288   1.069 -0.8550  0.0112 -1.8772
 9202TIP3   OH251800   3.547   3.903   8.466  0.4080 -0.1176  0.2567
 9202TIP3    H151801   3.634   3.930   8.436  0.0297  1.5498  0.5762
 9202TIP3    H251802   3.550   3.918   8.561 -0.7989  1.7428  0.0457
 9203TIP3   OH251803   1.032   4.304   1.657  0.2163  0.0448  0.4995
 9203TIP3    H151804   0.942   4.301   1.690  0.0163 -0.3650 -0.0598
 9203TIP3    H251805   1.057   4.396   1.664 -1.2740  0.7367 -2.0392
 9204TIP3   OH251806   1.413   2.429   7.179  0.0950 -0.4730  0.2961
 9204TIP3    H151807   1.440   2.500   7.121 -0.0464 -0.1640  0.6006
 9204TIP3    H251808   1.339   2.466   7.228  0.3697 -0.6436  0.8413
 9205TIP3   OH251809   2.050   7.289   1.838 -0.0325  0.3607  0.1673
 9205TIP3    H151810   2.063   7.383   1.826 -0.1599  0.4363  0.6073
 9205TIP3    H251811   1.971   7.269   1.787  1.6457 -0.0883 -2.4445
 9206TIP3   OH251812   2.162   2.152   0.359  0.1616  0.4462 -0.1333
 9206TIP3    H151813   2.204   2.202   0.289  1.2274 -1.7198 -1.1090
 9206TIP3    H251814   2.069   2.153   0.337  0.3178  0.9681 -0.7933
 9207TIP3   OH251815   7.495   6.937   9.789  0.0557  0.0764 -0.3027
 9207TIP3    H151816   7.572   6.948   9.733 -0.0928 -0.3707 -0.5962
 9207TIP3    H251817   7.421   6.937   9.728 -0.0394 -1.3806 -0.2142
 9208TIP3   OH251818   7.078   4.207   2.043  0.3947 -0.7956  0.4692
 9208TIP3    H151819   7.131   4.177   2.118 -0.6150 -0.6395  1.2749
 9208TIP3    H251820   7.010   4.262   2.083  1.0723  1.0303 -0.7798
 9209TIP3   OH251821   2.748   2.324   9.509  0.3785  0.0055 -0.0766
 9209TIP3    H151822   2.731   2.230   9.507  2.0389 -0.3141 -0.5692
 9209TIP3    H251823   2.689   2.358   9.576  1.2383 -1.7148  1.6288
 9210TIP3   OH251824   4.635   3.694   1.918 -0.7260 -0.5982 -0.5060
 9210TIP3    H151825   4.658   3.639   1.993 -0.4023 -0.3974 -0.4576
 9210TIP3    H251826   4.677   3.778   1.936 -1.9009 -0.0552 -0.1607
 9211TIP3   OH251827   4.282   5.726   8.891  0.2020 -1.0602 -0.5949
 9211TIP3    H151828   4.271   5.731   8.796  0.4326  1.6263 -0.5493
 9211TIP3    H251829   4.208   5.776   8.926  0.7081 -1.1139  0.5798
 9212TIP3   OH251830   6.317   0.603   8.232 -0.4948 -0.1148  0.8314
 9212TIP3    H151831   6.322   0.571   8.142 -0.5832  0.8123  0.4862
 9212TIP3    H251832   6.223   0.610   8.249 -0.4758  0.3043  0.7747
 9213TIP3   OH251833   4.514   4.806   9.070 -0.2620 -0.5021  0.0056
 9213TIP3    H151834   4.447   4.767   9.125 -0.7984 -0.5731 -0.6806
 9213TIP3    H251835   4.561   4.731   9.033  0.3204 -0.4497  0.6305
 9214TIP3   OH251836   2.242   1.451   2.984 -0.3606 -0.1513 -0.0470
 9214TIP3    H151837   2.293   1.528   2.962  2.3905 -1.6597  0.6230
 9214TIP3    H251838   2.229   1.456   3.079  1.3325 -1.2782  0.2877
 9215TIP3   OH251839   6.878   4.431   0.247  0.0518 -0.5949 -0.0870
 9215TIP3    H151840   6.794   4.386   0.247  0.3288 -1.1679  1.4596
 9215TIP3    H251841   6.920   4.403   0.165 -1.1748 -0.4288 -0.7943
 9216TIP3   OH251842   4.324   3.290   7.637 -0.0843  0.0104 -0.0284
 9216TIP3    H151843   4.396   3.285   7.574 -2.4789 -0.5986 -2.9703
 9216TIP3    H251844   4.261   3.225   7.606 -2.1369  0.8546  2.0966
 9217TIP3   OH251845   6.413   4.311   7.564  0.4126  0.5698  0.0037
 9217TIP3    H151846   6.420   4.233   7.509  0.5943  0.7038 -0.1607
 9217TIP3    H251847   6.321   4.312   7.591  0.3513  0.4364 -0.1940
 9218TIP3   OH251848   2.755   5.608   6.915 -0.6705  0.1823  0.0070
 9218TIP3    H151849   2.821   5.539   6.905 -0.3505  0.4301  0.3836
 9218TIP3    H251850   2.671   5.562   6.912 -0.4714 -0.1746 -0.1388
 9219TIP3   OH251851   7.597   4.505   8.819 -0.6595 -0.3140 -0.1206
 9219TIP3    H151852   7.516   4.513   8.869 -0.6318 -0.1156 -0.1063
 9219TIP3    H251853   7.647   4.436   8.864 -1.0061 -0.7413 -0.3878
 9220TIP3   OH251854   2.435   1.586   8.189 -0.0519  0.0450  0.4372
 9220TIP3    H151855   2.360   1.555   8.138  1.6319 -2.8041 -0.5506
 9220TIP3    H251856   2.398   1.614   8.272 -2.3636  0.2023 -0.5811
 9221TIP3   OH251857   2.292   5.721   6.532 -0.6547  0.0343  0.0616
 9221TIP3    H151858   2.357   5.657   6.503 -0.1640  1.9879 -3.7299
 9221TIP3    H251859   2.344   5.786   6.579 -0.1372  0.5268 -1.1451
 9222TIP3   OH251860   1.204   6.774   7.250 -0.3477 -0.0618 -0.0255
 9222TIP3    H151861   1.151   6.763   7.171 -2.3403  0.8136  1.1008
 9222TIP3    H251862   1.285   6.813   7.220 -1.0039  0.1174 -1.6556
 9223TIP3   OH251863   3.648   0.843   1.881 -0.3286  0.1125  0.2672
 9223TIP3    H151864   3.622   0.930   1.851  0.9985  0.0183 -1.2888
 9223TIP3    H251865   3.600   0.783   1.824 -0.1077 -0.1409  0.3478
 9224TIP3   OH251866   3.661   3.261   1.739  0.7081 -0.9612  0.0067
 9224TIP3    H151867   3.587   3.213   1.701  1.2683 -1.5362 -0.3703
 9224TIP3    H251868   3.684   3.211   1.817 -0.2290  0.0340  0.9597
 9225TIP3   OH251869   3.353   1.824   0.541 -0.0246  0.0672  0.0805
 9225TIP3    H151870   3.357   1.732   0.568  0.2314 -0.0307 -0.2812
 9225TIP3    H251871   3.437   1.840   0.498 -0.7806 -0.0504 -1.5236
 9226TIP3   OH251872   7.560   5.610   1.864 -0.2091  0.1702  0.5220
 9226TIP3    H151873   7.583   5.667   1.938 -2.8036  0.8428  0.8906
 9226TIP3    H251874   7.500   5.546   1.902  0.1963 -0.8925 -0.5750
 9227TIP3   OH251875   4.388   1.482   0.155  0.1362 -0.0922  0.7568
 9227TIP3    H151876   4.353   1.530   0.231 -1.8516  0.1067 -0.2178
 9227TIP3    H251877   4.448   1.544   0.114  1.6603 -0.3903  2.4104
 9228TIP3   OH251878   0.525   3.596   2.291 -0.1395  0.2746 -0.0137
 9228TIP3    H151879   0.574   3.524   2.331  2.0059  1.9547  0.5956
 9228TIP3    H251880   0.515   3.570   2.200  3.1033  0.3050 -0.5075
 9229TIP3   OH251881   6.372   6.852   9.053 -0.3275  1.0547 -0.3365
 9229TIP3    H151882   6.345   6.914   9.120  0.6225  0.4758  0.6251
 9229TIP3    H251883   6.320   6.773   9.071  0.4312  0.6561  0.2019
 9230TIP3   OH251884   6.691   5.764   9.788 -0.2229  0.0020  0.5275
 9230TIP3    H151885   6.743   5.692   9.824 -0.9423 -0.2678  1.0583
 9230TIP3    H251886   6.638   5.794   9.862  0.3193  1.3073  0.3998
 9231TIP3   OH251887   0.125   4.155   1.055 -0.0388  0.0296 -0.3607
 9231TIP3    H151888   0.133   4.242   1.015  1.5294  0.3650  0.5950
 9231TIP3    H251889   0.147   4.169   1.147  0.2968 -1.3807 -0.2083
 9232TIP3   OH251890   2.248   1.053   7.396  0.4508  0.2923  0.6730
 9232TIP3    H151891   2.243   0.968   7.440 -1.7553  0.0269  0.0241
 9232TIP3    H251892   2.341   1.068   7.384  0.9052 -2.7969 -0.6471
 9233TIP3   OH251893   0.332   4.947   9.766 -0.0117 -0.7472 -0.1114
 9233TIP3    H151894   0.284   4.889   9.707  0.7541 -2.3590  0.7949
 9233TIP3    H251895   0.363   4.891   9.836 -1.8489  1.2737  2.5524
 9234TIP3   OH251896   2.496   0.745   2.642 -0.3285  0.3666 -0.2128
 9234TIP3    H151897   2.468   0.730   2.552 -0.4849 -1.0412  0.0395
 9234TIP3    H251898   2.440   0.688   2.694  0.2390  0.6241  0.7048
 9235TIP3   OH251899   0.165   1.514   8.143 -0.0121 -0.1614  0.1094
 9235TIP3    H151900   0.099   1.579   8.117  0.8537  0.5036 -0.4726
 9235TIP3    H251901   0.243   1.566   8.163  0.5340 -0.9821  0.1539
 9236TIP3   OH251902   2.066   5.511   1.039 -0.1989 -0.7321  0.4701
 9236TIP3    H151903   2.028   5.494   0.953 -0.7620 -0.5333  0.6694
 9236TIP3    H251904   2.040   5.436   1.093 -1.1152 -0.1593  0.8537
 9237TIP3   OH251905   0.458   4.996   8.576  0.2139  0.4652  0.0713
 9237TIP3    H151906   0.520   5.002   8.649 -0.3211 -1.1316  0.6862
 9237TIP3    H251907   0.462   4.905   8.548 -0.2676  0.8444 -1.3176
 9238TIP3   OH251908   1.855   3.923   9.993  0.4292 -0.2455 -0.4157
 9238TIP3    H151909   1.889   3.920   9.903  2.0978 -0.0601  0.1762
 9238TIP3    H251910   1.811   3.839  10.004  1.4620 -0.8886 -0.9631
 9239TIP3   OH251911   2.033   5.688   0.367  0.0375  0.2168  0.0133
 9239TIP3    H151912   2.095   5.735   0.312  0.9726 -0.4937  0.4199
 9239TIP3    H251913   1.975   5.644   0.305 -2.0923  3.3117 -0.4207
 9240TIP3   OH251914   3.876   1.145   9.824  0.3804 -0.2327  0.3892
 9240TIP3    H151915   3.948   1.094   9.788  0.5289 -0.0470  0.4245
 9240TIP3    H251916   3.849   1.203   9.752  0.8918  0.3692  0.6752
 9241TIP3   OH251917   5.856   4.162   1.084  0.1325 -0.4017  0.6353
 9241TIP3    H151918   5.847   4.238   1.141  1.3945  0.5586 -0.3913
 9241TIP3    H251919   5.798   4.181   1.010  1.7068  0.3964 -0.4384
 9242TIP3   OH251920   2.611   0.288   8.936  0.1050 -0.4690 -0.1158
 9242TIP3    H151921   2.619   0.324   9.025  0.2628 -0.5272 -0.1064
 9242TIP3    H251922   2.580   0.362   8.884 -1.4919 -0.8262  0.2774
 9243TIP3   OH251923   1.529   3.708   8.946  0.1593  0.2901  0.2507
 9243TIP3    H151924   1.575   3.657   8.879  0.5758  0.8417  0.1153
 9243TIP3    H251925   1.484   3.642   8.999 -0.7318 -0.1310 -0.9672
 9244TIP3   OH251926   3.013   7.076   9.926  0.8443  0.0334 -0.1682
 9244TIP3    H151927   3.058   6.997   9.897 -0.3403 -0.4250 -0.8040
 9244TIP3    H251928   3.070   7.112   9.995  1.4922 -1.2542 -0.0047
 9245TIP3   OH251929   7.506   4.960   9.650 -0.0102  0.5673 -0.6269
 9245TIP3    H151930   7.509   4.865   9.663  0.1381  0.6479 -0.0210
 9245TIP3    H251931   7.539   4.974   9.562  1.8603  0.1958 -0.0289
 9246TIP3   OH251932   4.962   1.203   9.646 -0.0290 -0.1699  0.1919
 9246TIP3    H151933   4.874   1.168   9.632 -0.4334  0.5239  0.9065
 9246TIP3    H251934   4.985   1.173   9.735  0.5835 -0.6004 -0.1063
 9247TIP3   OH251935   7.114   7.557   1.099  0.2729 -0.0929  0.1387
 9247TIP3    H151936   7.195   7.540   1.149 -0.0714 -2.4120 -0.0083
 9247TIP3    H251937   7.059   7.481   1.116 -1.8631  1.3837  0.1170
 9248TIP3   OH251938   4.440   3.880   1.600 -0.7076  0.2559 -0.2344
 9248TIP3    H151939   4.354   3.875   1.559 -1.1610 -1.8595  0.8509
 9248TIP3    H251940   4.502   3.862   1.529 -1.2166  0.5941 -0.7722
 9249TIP3   OH251941   1.407   3.668   0.341  0.4428 -0.1542 -0.2122
 9249TIP3    H151942   1.356   3.588   0.354 -0.2885  0.3934  0.3215
 9249TIP3    H251943   1.417   3.675   0.246  1.2427 -1.3191 -0.2521
 9250TIP3   OH251944   2.430   3.171   6.877  0.0681  0.5047  0.8727
 9250TIP3    H151945   2.514   3.213   6.859  0.1583  0.1681  0.5005
 9250TIP3    H251946   2.406   3.130   6.795 -1.0949  1.6792  0.5883
 9251TIP3   OH251947   3.269   4.587   1.810  0.2617 -0.1030 -0.2124
 9251TIP3    H151948   3.261   4.544   1.895 -2.0457  0.9982  0.1991
 9251TIP3    H251949   3.318   4.668   1.829 -0.3598  0.2039  0.1000
 9252TIP3   OH251950   1.770   4.795   0.342 -0.5063  0.1996 -0.4452
 9252TIP3    H151951   1.789   4.847   0.421  1.9312  0.7876 -1.3344
 9252TIP3    H251952   1.675   4.804   0.330 -0.6345  1.8291  1.2314
 9253TIP3   OH251953   4.333   4.379   0.783 -0.0103  0.6047 -0.3808
 9253TIP3    H151954   4.418   4.398   0.743 -0.2791  0.8227 -0.8679
 9253TIP3    H251955   4.310   4.459   0.830  1.1145 -0.2354  1.7539
 9254TIP3   OH251956   5.229   5.335   0.875  0.1748 -0.3290 -0.1170
 9254TIP3    H151957   5.154   5.386   0.905 -0.4580 -0.8748 -0.7384
 9254TIP3    H251958   5.256   5.378   0.794  2.9075  2.1503  1.9068
 9255TIP3   OH251959   1.491   6.562   6.744 -0.0021  0.0093  0.1416
 9255TIP3    H151960   1.558   6.513   6.791  0.3080 -0.6366 -0.9475
 9255TIP3    H251961   1.421   6.575   6.808 -0.0557 -1.7809  0.4812
 9256TIP3   OH251962   5.967   0.305   8.767 -0.3227  0.3608 -0.3498
 9256TIP3    H151963   6.047   0.280   8.720 -0.8401 -1.3049 -0.3893
 9256TIP3    H251964   5.900   0.312   8.699 -0.6077  0.0096 -0.1067
 9257TIP3   OH251965   4.225   7.130   1.735 -0.2390  0.1670  0.1320
 9257TIP3    H151966   4.316   7.114   1.710 -0.9296 -0.4501 -2.2830
 9257TIP3    H251967   4.221   7.224   1.755  0.6707  0.4756 -1.0454
 9258TIP3   OH251968   0.196   5.399   9.923 -0.1220  0.4239  0.2112
 9258TIP3    H151969   0.269   5.417   9.864 -0.6063 -0.3805 -0.6591
 9258TIP3    H251970   0.228   5.327   9.979 -0.1701  0.2127 -0.0309
 9259TIP3   OH251971   1.937   1.393   8.385  0.1426  0.2253  0.1705
 9259TIP3    H151972   1.863   1.448   8.411 -0.6043 -0.4444 -0.4841
 9259TIP3    H251973   2.011   1.425   8.438 -0.8668  0.1449  1.6813
 9260TIP3   OH251974   0.715   1.166   1.012  0.2879 -0.3953 -0.2324
 9260TIP3    H151975   0.713   1.143   0.919 -0.0309 -0.6468 -0.1672
 9260TIP3    H251976   0.655   1.103   1.053  1.3778 -1.1076  0.3309
 9261TIP3   OH251977   0.389   2.706   9.714 -0.0146 -0.6534 -0.0541
 9261TIP3    H151978   0.349   2.769   9.654  0.2477  0.1340  0.5740
 9261TIP3    H251979   0.451   2.758   9.764 -0.5692 -1.2039  1.2318
 9262TIP3   OH251980   3.177   3.771   1.508  0.0644 -0.4228  0.4118
 9262TIP3    H151981   3.129   3.688   1.518 -1.5454  0.3565 -0.4569
 9262TIP3    H251982   3.253   3.749   1.454  0.0324 -1.4482  0.7557
 9263TIP3   OH251983   5.170   3.982   1.974 -0.5701 -0.5517  0.0495
 9263TIP3    H151984   5.225   4.028   2.037  0.2648  2.7649 -2.7823
 9263TIP3    H251985   5.222   3.907   1.945 -0.6544 -1.6616  2.5704
 9264TIP3   OH251986   3.000   1.070   8.484 -0.0425 -0.3049 -0.4057
 9264TIP3    H151987   2.907   1.056   8.466  0.1439  0.7351 -2.5892
 9264TIP3    H251988   3.010   1.165   8.480  1.0657 -0.3899  0.1542
 9265TIP3   OH251989   1.485   5.661   1.626 -0.2700  0.0623 -0.4899
 9265TIP3    H151990   1.484   5.723   1.699  0.7564  0.4686 -0.8064
 9265TIP3    H251991   1.572   5.621   1.631 -0.4478 -0.4026 -1.0822
 9266TIP3   OH251992   3.905   4.885   8.061  0.4842  0.4486  0.2029
 9266TIP3    H151993   3.999   4.872   8.073  0.2348 -1.9264  0.0731
 9266TIP3    H251994   3.866   4.855   8.144 -0.1402  2.2208  0.5880
 9267TIP3   OH251995   5.544   6.528   7.161 -0.3331  0.1081 -0.2578
 9267TIP3    H151996   5.454   6.521   7.129 -0.5780 -0.3901  0.5258
 9267TIP3    H251997   5.538   6.590   7.234 -0.4395 -1.5474  1.1916
 9268TIP3   OH251998   0.983   1.659   8.807  0.0457  0.1035 -0.2493
 9268TIP3    H151999   1.046   1.590   8.828 -1.0751 -0.1671  2.6261
 9268TIP3    H252000   0.981   1.715   8.885 -3.8453 -0.4242  0.2248
 9269TIP3   OH252001   3.774   4.610   2.475 -0.7719  0.1473 -0.5790
 9269TIP3    H152002   3.753   4.537   2.533 -1.1185  1.9515  1.6892
 9269TIP3    H252003   3.866   4.597   2.451 -0.5596 -0.5264  0.5504
 9270TIP3   OH252004   4.144   2.300   0.526 -0.3756 -0.0219  0.2138
 9270TIP3    H152005   4.147   2.228   0.588  1.3401  0.7915  1.1600
 9270TIP3    H252006   4.057   2.295   0.486 -0.3466 -2.5223  0.3191
 9271TIP3   OH252007   5.408   3.480   0.731  0.6100 -0.4749 -0.8237
 9271TIP3    H152008   5.323   3.438   0.750 -0.1940  1.3261 -0.1874
 9271TIP3    H252009   5.401   3.508   0.640  0.2252  0.2858 -0.5681
 9272TIP3   OH252010   6.059   0.615   2.688  1.0862 -0.3662  0.4621
 9272TIP3    H152011   6.016   0.550   2.743  0.9738 -0.7267 -0.0432
 9272TIP3    H252012   6.146   0.579   2.672  0.7895 -0.7372 -0.3877
 9273TIP3   OH252013   5.089   7.599   9.255  0.4695  0.0574 -0.0233
 9273TIP3    H152014   5.050   7.513   9.270  1.3757 -0.1831  1.0244
 9273TIP3    H252015   5.089   7.642   9.340 -1.8567  1.9610 -0.8533
 9274TIP3   OH252016   2.384   4.188   0.688  0.0235 -0.4437 -0.5142
 9274TIP3    H152017   2.448   4.162   0.755 -0.6721 -0.3645  0.1932
 9274TIP3    H252018   2.384   4.115   0.626 -1.4307 -1.9194  1.1106
 9275TIP3   OH252019   6.551   1.011   2.447  0.3688 -0.3433  0.4724
 9275TIP3    H152020   6.603   0.964   2.382 -0.3096  1.1912 -1.2613
 9275TIP3    H252021   6.599   1.092   2.463 -1.2899  1.0555 -1.0789
 9276TIP3   OH252022   7.023   4.691   0.276 -0.1370 -0.1056  0.0225
 9276TIP3    H152023   6.970   4.625   0.231  0.6094  0.4009 -1.6603
 9276TIP3    H252024   7.086   4.721   0.211  0.3705  1.3752  1.1273
 9277TIP3   OH252025   2.220   5.670   7.529  0.0468 -0.5479  0.4568
 9277TIP3    H152026   2.171   5.589   7.536 -0.6137 -0.0256  2.5449
 9277TIP3    H252027   2.173   5.721   7.463  1.2292 -2.2850 -1.8846
 9278TIP3   OH252028   0.007   6.824   9.955 -0.4991 -0.0030 -0.5470
 9278TIP3    H152029  -0.075   6.840   9.908  0.3586  0.1745 -2.0592
 9278TIP3    H252030  -0.003   6.737   9.992 -1.8034  0.4721  0.2642
 9279TIP3   OH252031   0.674   6.078   9.189 -0.3226 -0.1125  0.3041
 9279TIP3    H152032   0.756   6.088   9.237  0.1559 -1.1621 -0.2594
 9279TIP3    H252033   0.684   6.135   9.113 -0.3019  0.0936  0.4591
 9280TIP3   OH252034   5.073   0.506   1.394 -0.4399  0.2597 -0.1138
 9280TIP3    H152035   5.050   0.502   1.302  0.7514 -1.8408 -0.3978
 9280TIP3    H252036   5.119   0.589   1.404  0.5980 -0.0739 -1.7439
 9281TIP3   OH252037   5.061   1.429   7.865  0.0953 -0.3719  0.2374
 9281TIP3    H152038   5.151   1.422   7.899  0.5169 -1.5092 -1.0247
 9281TIP3    H252039   5.033   1.338   7.854 -0.3781 -0.0438 -1.4732
 9282TIP3   OH252040   0.892   3.929   9.983  0.2246 -0.4605  0.2360
 9282TIP3    H152041   0.962   3.975   9.936 -0.0442  2.5731  2.4424
 9282TIP3    H252042   0.832   3.901   9.914  1.7051  0.2948 -1.4726
 9283TIP3   OH252043   4.306   0.144   9.476 -0.3090  0.3184 -0.1255
 9283TIP3    H152044   4.275   0.059   9.447  0.2981 -0.7526  2.1216
 9283TIP3    H252045   4.401   0.135   9.481 -0.2079  1.2337 -0.1392
 9284TIP3   OH252046   1.309   1.709   1.942  0.0174 -0.4512 -0.3804
 9284TIP3    H152047   1.219   1.680   1.932 -0.5596  0.4381  1.7164
 9284TIP3    H252048   1.357   1.629   1.966 -0.3716 -0.7690 -0.6498
 9285TIP3   OH252049   0.578   0.808   0.839 -0.4319  0.1794 -0.2427
 9285TIP3    H152050   0.613   0.892   0.809  0.9844  0.4781  2.0368
 9285TIP3    H252051   0.517   0.782   0.770 -0.3736  2.7147 -1.3735
 9286TIP3   OH252052   4.392   2.491   1.415  0.2816 -0.2402 -0.4994
 9286TIP3    H152053   4.338   2.559   1.373 -1.1953 -0.0250  1.6249
 9286TIP3    H252054   4.368   2.411   1.369 -1.4082 -0.0331 -0.0772
 9287TIP3   OH252055   3.660   6.172   1.820  0.2317 -0.0841 -0.2377
 9287TIP3    H152056   3.649   6.092   1.769  2.1072 -1.3512  1.2154
 9287TIP3    H252057   3.724   6.149   1.887  0.8258  2.6528  0.2367
 9288TIP3   OH252058   7.493   1.551   1.565  0.0264 -0.1373  0.0320
 9288TIP3    H152059   7.493   1.590   1.477  0.7147 -0.3728 -0.0812
 9288TIP3    H252060   7.421   1.595   1.611  0.3544  0.7783 -0.3071
 9289TIP3   OH252061   1.476   2.335   9.735  0.2686 -0.1140  0.2734
 9289TIP3    H152062   1.534   2.359   9.807  0.6059  0.4786 -0.1933
 9289TIP3    H252063   1.494   2.242   9.721 -1.3938 -0.8530  2.4057
 9290TIP3   OH252064   5.040   0.027   8.303  0.6962 -0.2402  0.5277
 9290TIP3    H152065   5.031   0.046   8.210 -3.8265  1.5072  1.0352
 9290TIP3    H252066   5.034  -0.069   8.309 -0.1879 -0.2985 -0.9392
 9291TIP3   OH252067   3.757   6.897   2.075  0.2099 -0.1730 -0.1021
 9291TIP3    H152068   3.780   6.820   2.023 -0.2444  1.1901 -2.4542
 9291TIP3    H252069   3.760   6.970   2.013  1.1509  1.8261  2.1582
 9292TIP3   OH252070   4.830   0.569   7.996  0.2451 -0.5345 -0.4158
 9292TIP3    H152071   4.879   0.496   8.032  1.3997  0.9331  1.1026
 9292TIP3    H252072   4.879   0.595   7.918  2.2236  1.1670  1.2973
 9293TIP3   OH252073   1.164   0.387   1.785 -0.1582  0.6369  0.3024
 9293TIP3    H152074   1.226   0.388   1.712 -0.1250 -0.0193  0.3167
 9293TIP3    H252075   1.115   0.468   1.776  0.2743  0.8583 -0.0816
 9294TIP3   OH252076   2.329   6.364   8.731 -0.1666 -0.1265 -0.2261
 9294TIP3    H152077   2.390   6.403   8.669  0.8942  0.5070  1.1586
 9294TIP3    H252078   2.335   6.270   8.714  1.1747 -0.0747 -0.1751
 9295TIP3   OH252079   3.949   4.302   8.616  0.3561 -0.2642 -0.1861
 9295TIP3    H152080   3.858   4.274   8.609  0.5071 -0.9484  0.4352
 9295TIP3    H252081   3.954   4.348   8.699  1.1367 -2.5920  1.1568
 9296TIP3   OH252082   6.615   2.917   0.697 -0.0644 -0.8205 -0.2736
 9296TIP3    H152083   6.573   2.832   0.682 -1.1367 -0.2623 -0.5456
 9296TIP3    H252084   6.566   2.955   0.770  0.6696 -0.5995  0.1113
 9297TIP3   OH252085   1.808   0.558   2.421  0.2345 -0.4516 -0.0648
 9297TIP3    H152086   1.735   0.524   2.370 -1.9194  2.2203  0.9592
 9297TIP3    H252087   1.883   0.551   2.362 -0.7768 -3.2065 -1.2120
 9298TIP3   OH252088   1.840   2.669   0.935  0.2948 -0.2258  0.0791
 9298TIP3    H152089   1.893   2.679   0.856  0.4550  0.1401  0.2288
 9298TIP3    H252090   1.777   2.742   0.932 -0.8021 -1.1696 -0.5526
 9299TIP3   OH252091   6.252   5.147   1.756  0.0518 -0.0974  0.4087
 9299TIP3    H152092   6.170   5.153   1.706  0.2608  0.3052  0.1040
 9299TIP3    H252093   6.233   5.086   1.827  0.0704 -1.5795 -0.8171
 9300TIP3   OH252094   4.661   1.259   9.383 -0.2833  0.3576  0.4467
 9300TIP3    H152095   4.602   1.196   9.342  0.0952  0.9617 -1.0893
 9300TIP3    H252096   4.709   1.208   9.448  0.4086 -1.0947 -1.1305
 9301TIP3   OH252097   2.506   6.425   8.285  0.7482  0.4687  0.1761
 9301TIP3    H152098   2.531   6.431   8.193 -1.7742  1.6806 -0.5313
 9301TIP3    H252099   2.413   6.399   8.283  0.4798  1.0422  2.3424
 9302TIP3   OH252100   1.026   5.225   9.291  0.1102  0.3438  0.0046
 9302TIP3    H152101   1.045   5.136   9.263 -1.0727  0.2842 -0.6570
 9302TIP3    H252102   0.990   5.216   9.380 -3.2257 -0.2381 -1.2529
 9303TIP3   OH252103   4.897   4.516   1.392 -0.3377  0.6234  0.2601
 9303TIP3    H152104   4.886   4.446   1.328  1.2104  0.5402  0.0427
 9303TIP3    H252105   4.842   4.490   1.466  0.1658 -0.8033  0.1627
 9304TIP3   OH252106   7.286   3.567   8.419  0.4155  0.4921  0.5820
 9304TIP3    H152107   7.252   3.567   8.330 -1.2173 -1.3081  1.1334
 9304TIP3    H252108   7.355   3.633   8.419  0.9843 -0.0168 -2.1891
 9305TIP3   OH252109   4.123   1.638   9.545  0.7837 -0.1926  0.3816
 9305TIP3    H152110   4.205   1.602   9.513  1.1093 -0.4763  1.4879
 9305TIP3    H252111   4.140   1.731   9.557  0.6830 -0.0989 -0.1682
 9306TIP3   OH252112   5.741   1.607   0.244 -0.5685  0.2537 -0.0218
 9306TIP3    H152113   5.782   1.552   0.311  0.4490  1.4504  0.3925
 9306TIP3    H252114   5.659   1.563   0.223 -0.0262 -1.1367  0.6476
 9307TIP3   OH252115   1.864   1.083   0.846 -0.2137 -0.3054  0.2129
 9307TIP3    H152116   1.818   1.165   0.830 -0.3981 -0.3662  0.4303
 9307TIP3    H252117   1.796   1.016   0.842  0.0762 -0.5494 -0.8640
 9308TIP3   OH252118   7.316   5.847   1.795  0.5886  0.0644 -0.4725
 9308TIP3    H152119   7.385   5.902   1.833  1.4128 -2.0109  1.2952
 9308TIP3    H252120   7.268   5.815   1.871 -0.6514 -0.6448 -1.5266
 9309TIP3   OH252121   2.449   1.110   2.367 -0.2323 -0.1296  0.7170
 9309TIP3    H152122   2.540   1.093   2.392  0.3198 -1.2428 -1.7531
 9309TIP3    H252123   2.443   1.079   2.277 -2.9153  0.5257  0.5959
 9310TIP3   OH252124   1.079   5.892   7.450  0.5557  0.0872  0.2460
 9310TIP3    H152125   0.997   5.864   7.408  0.4788  0.8018 -0.0839
 9310TIP3    H252126   1.147   5.871   7.386  0.5608  0.1344  0.2362
 9311TIP3   OH252127   2.793   5.022   8.986  0.0746 -0.1940 -0.0608
 9311TIP3    H152128   2.804   4.932   9.014 -1.9189 -0.8174 -1.0493
 9311TIP3    H252129   2.760   5.068   9.063  2.1672  0.0211  0.7736
 9312TIP3   OH252130   2.774   2.269   1.148  0.0527 -0.2930 -0.1348
 9312TIP3    H152131   2.745   2.360   1.141 -1.7375 -0.7899  0.2308
 9312TIP3    H252132   2.869   2.273   1.137 -0.1288  1.4502 -1.5411
 9313TIP3   OH252133   5.184   6.528   9.079  0.0032 -0.2011  0.2211
 9313TIP3    H152134   5.124   6.592   9.040  0.4037 -1.1098 -2.0549
 9313TIP3    H252135   5.267   6.574   9.088 -0.0139 -0.0536 -0.3386
 9314TIP3   OH252136   0.521   3.089   0.989 -0.2698  0.2090  0.1652
 9314TIP3    H152137   0.541   3.002   1.023 -1.9077  0.7186  2.6594
 9314TIP3    H252138   0.605   3.135   0.991  0.6378 -1.2654 -1.2520
 9315TIP3   OH252139   4.188   3.414   9.726  0.2591 -0.4049  0.2859
 9315TIP3    H152140   4.186   3.323   9.695  0.3998 -0.5440  0.6854
 9315TIP3    H252141   4.246   3.459   9.664  2.5166 -1.1919  1.7085
 9316TIP3   OH252142   5.553   4.028   0.366  0.0110  1.1751 -0.0385
 9316TIP3    H152143   5.496   4.081   0.421  0.3557  0.5363  0.9654
 9316TIP3    H252144   5.640   4.037   0.404  0.4490  1.5291 -1.0970
 9317TIP3   OH252145   5.805   7.199   8.783  0.3227 -0.2162 -0.3502
 9317TIP3    H152146   5.842   7.116   8.754  0.2117 -0.6540  0.7304
 9317TIP3    H252147   5.846   7.216   8.868 -1.6293 -0.5279  0.7218
 9318TIP3   OH252148   5.085   3.409   9.486  0.1956 -0.1688 -0.0040
 9318TIP3    H152149   5.170   3.414   9.529  0.8155 -1.0386 -1.0837
 9318TIP3    H252150   5.077   3.491   9.438 -0.1139  0.4267  1.0362
 9319TIP3   OH252151   7.393   1.789   1.395  0.2698 -0.0926 -0.1495
 9319TIP3    H152152   7.323   1.822   1.453  1.0635  0.5604  0.4590
 9319TIP3    H252153   7.468   1.845   1.415  0.7761 -0.3533 -1.2867
 9320TIP3   OH252154   3.931   5.266   0.415 -0.1081  0.1997 -0.2250
 9320TIP3    H152155   3.967   5.354   0.402  1.3975 -0.1523  1.2812
 9320TIP3    H252156   3.883   5.248   0.334  0.0010  2.1766 -0.7880
 9321TIP3   OH252157   5.762   0.159   0.789  0.1277  0.1352 -0.0364
 9321TIP3    H152158   5.674   0.194   0.797  0.1715 -0.0932  1.7589
 9321TIP3    H252159   5.791   0.187   0.702 -1.7394  0.1091 -0.7078
 9322TIP3   OH252160   0.964   7.054   2.256  0.0122  0.4638  0.2516
 9322TIP3    H152161   0.930   7.000   2.328 -1.9320  0.9119 -0.2615
 9322TIP3    H252162   0.889   7.109   2.231  0.1377 -0.7037 -3.1092
 9323TIP3   OH252163   2.905   7.532   1.494  0.2010 -0.0142 -0.0084
 9323TIP3    H152164   2.815   7.541   1.526 -0.5604 -1.6533 -1.5352
 9323TIP3    H252165   2.934   7.622   1.480 -1.0027  0.5687  0.9715
 9324TIP3   OH252166   4.822   7.284   8.641 -0.8750  0.2003 -0.2691
 9324TIP3    H152167   4.833   7.210   8.700  1.7272  1.0892  0.5007
 9324TIP3    H252168   4.768   7.347   8.690  1.0636  0.8334  1.1804
 9325TIP3   OH252169   4.020   3.627   0.152 -0.6287  0.5918 -0.2004
 9325TIP3    H152170   4.014   3.533   0.170 -0.6949  0.8224  1.0021
 9325TIP3    H252171   4.082   3.633   0.079 -1.5008 -0.4652 -1.0772
 9326TIP3   OH252172   6.307   3.353   0.478 -0.0007 -0.1339 -0.8366
 9326TIP3    H152173   6.289   3.369   0.570  0.3544 -1.4846 -0.5069
 9326TIP3    H252174   6.223   3.328   0.440 -0.3226  1.2753 -1.0939
 9327TIP3   OH252175   1.152   1.897   0.654  0.0148 -0.2447 -0.0421
 9327TIP3    H152176   1.126   1.815   0.613 -0.3757 -0.6306  0.9316
 9327TIP3    H252177   1.093   1.906   0.729 -0.1353  1.0743 -0.2968
 9328TIP3   OH252178   1.260   4.279   0.513 -0.1736 -0.3957  0.1266
 9328TIP3    H152179   1.229   4.213   0.574 -0.6076 -0.1113  0.2230
 9328TIP3    H252180   1.247   4.240   0.426 -0.2980 -0.4928  0.1889
 9329TIP3   OH252181   2.177   1.012   8.467 -0.5118 -0.2921  0.0864
 9329TIP3    H152182   2.198   1.087   8.524 -1.8375  0.5610 -0.4921
 9329TIP3    H252183   2.248   0.950   8.483 -0.0541  0.5426  1.5588
 9330TIP3   OH252184   5.714   6.156   7.476 -0.1423  0.0332  0.0703
 9330TIP3    H152185   5.725   6.150   7.381 -0.6315  0.5210 -0.0239
 9330TIP3    H252186   5.673   6.242   7.490  0.8925  0.4320  0.8067
 9331TIP3   OH252187   5.506   6.629   9.581  0.2703  0.1265 -0.3842
 9331TIP3    H152188   5.597   6.602   9.598 -0.3788 -0.9085  1.8775
 9331TIP3    H252189   5.460   6.607   9.662 -2.1763 -0.1257 -1.7629
 9332TIP3   OH252190   4.956   5.841   1.842  0.4060 -0.2662 -0.1149
 9332TIP3    H152191   5.028   5.787   1.873  0.3888  0.1475  0.6539
 9332TIP3    H252192   4.889   5.834   1.910  0.2603  0.4295 -0.1830
 9333TIP3   OH252193   7.405   3.695   1.418  0.1404  0.8695  0.1882
 9333TIP3    H152194   7.353   3.629   1.372  0.2811 -0.6119  2.0283
 9333TIP3    H252195   7.452   3.741   1.348  0.1638 -1.0943 -1.1808
 9334TIP3   OH252196   5.191   6.048   9.311 -0.3183  0.5590  0.3780
 9334TIP3    H152197   5.098   6.047   9.331 -0.2093 -1.3561  0.9668
 9334TIP3    H252198   5.196   6.019   9.219 -0.2681 -0.4607  0.6870
 9335TIP3   OH252199   1.183   3.730   9.053  0.3153  0.0532 -0.6471
 9335TIP3    H152200   1.240   3.714   9.128 -1.1483  1.3302  0.7893
 9335TIP3    H252201   1.209   3.816   9.020 -1.0041  0.8164  0.2579
 9336TIP3   OH252202   1.766   2.690   7.771 -0.1845  0.2893  0.5190
 9336TIP3    H152203   1.854   2.652   7.771 -0.6740 -0.9215  0.1392
 9336TIP3    H252204   1.733   2.675   7.682 -0.3248  1.8575  0.2882
 9337TIP3   OH252205   2.675   3.806   9.469 -0.1013 -0.2029 -0.4824
 9337TIP3    H152206   2.592   3.762   9.489 -0.0696 -0.7490 -1.4608
 9337TIP3    H252207   2.696   3.854   9.549 -0.9477 -0.7034  0.0703
 9338TIP3   OH252208   1.572   6.489   8.840  0.3273 -0.1857 -0.0670
 9338TIP3    H152209   1.540   6.398   8.832 -0.5242  0.1838 -1.2883
 9338TIP3    H252210   1.664   6.484   8.814 -0.1500 -0.4674 -1.8689
 9339TIP3   OH252211   0.905   4.205   0.565  0.2469 -0.2066  0.2492
 9339TIP3    H152212   0.925   4.267   0.635 -0.3964 -0.1362  0.3746
 9339TIP3    H252213   0.814   4.178   0.581  0.9660 -2.3273  1.0849
 9340TIP3   OH252214   2.542   0.636   8.489  0.7726  0.0062  0.0590
 9340TIP3    H152215   2.462   0.604   8.530  0.6483 -0.3253 -0.4417
 9340TIP3    H252216   2.530   0.730   8.482  0.5157 -0.0184  0.1794
 9341TIP3   OH252217   1.097   0.649   9.721 -0.1573 -0.2904  0.3879
 9341TIP3    H152218   1.142   0.577   9.764 -1.9661 -2.3579 -0.9456
 9341TIP3    H252219   1.007   0.617   9.708  0.2342 -0.2432 -5.1940
 9342TIP3   OH252220   1.020   3.096   0.111 -0.2036 -0.0300 -0.2622
 9342TIP3    H152221   1.010   3.063   0.022 -0.3175 -0.7206  0.0005
 9342TIP3    H252222   0.931   3.093   0.148 -0.0136 -0.6339  0.1708
 9343TIP3   OH252223   7.134   6.682   1.619 -0.1775  1.0934 -0.4435
 9343TIP3    H152224   7.195   6.638   1.560  1.4110  0.9862  1.2016
 9343TIP3    H252225   7.071   6.614   1.645  0.3964  0.5994 -0.3397
 9344TIP3   OH252226   2.915   1.657   7.975 -0.1723 -0.4151 -0.5080
 9344TIP3    H152227   2.961   1.622   7.899 -0.5876  0.9036 -1.4142
 9344TIP3    H252228   2.870   1.582   8.013  1.5158 -1.4560 -0.4494
 9345TIP3   OH252229   0.321   2.204   1.464  0.0073 -0.3970 -0.4027
 9345TIP3    H152230   0.335   2.234   1.375  1.7293  0.1635  0.0302
 9345TIP3    H252231   0.264   2.127   1.455 -0.6849  0.2629 -1.8723
 9346TIP3   OH252232   3.939   3.806   1.343  0.0285 -0.4464 -0.6319
 9346TIP3    H152233   3.941   3.771   1.432 -2.1421  1.5401  0.2747
 9346TIP3    H252234   4.020   3.856   1.335 -0.6714  1.0587  1.0261
 9347TIP3   OH252235   1.550   1.533   7.119  0.1995 -0.5403  0.3454
 9347TIP3    H152236   1.551   1.620   7.159 -0.4184 -0.4520  0.1822
 9347TIP3    H252237   1.471   1.492   7.154 -2.1084  0.6111 -2.9602
 9348TIP3   OH252238   4.981   3.446   1.275 -0.0299  0.1445 -0.5036
 9348TIP3    H152239   4.986   3.351   1.286 -1.5522  0.2649  2.1093
 9348TIP3    H252240   5.032   3.481   1.349 -1.5196  1.2979  0.0402
 9349TIP3   OH252241   7.589   4.911   1.074 -0.1554  0.0395 -1.0832
 9349TIP3    H152242   7.520   4.972   1.049 -0.3468  0.3679  0.1650
 9349TIP3    H252243   7.585   4.908   1.170  1.0412 -0.5419 -1.0270
 9350TIP3   OH252244   0.405   3.473   9.782  0.3109  0.7360 -0.1888
 9350TIP3    H152245   0.444   3.549   9.739  0.7440  0.6883  0.1090
 9350TIP3    H252246   0.313   3.474   9.755  0.5758  0.6905 -1.1359
 9351TIP3   OH252247   5.117   4.274   9.577 -0.0052  0.7712 -0.9503
 9351TIP3    H152248   5.141   4.243   9.664  1.2606  2.8208 -0.5181
 9351TIP3    H252249   5.027   4.243   9.566  1.0481 -2.9506 -0.6230
 9352TIP3   OH252250   1.292   6.847   9.712 -0.2471  0.2669 -0.0283
 9352TIP3    H152251   1.230   6.919   9.727 -2.0012 -1.0392 -0.6380
 9352TIP3    H252252   1.327   6.828   9.799 -1.9859 -0.0215  0.6694
 9353TIP3   OH252253   5.826   7.025   9.391 -0.0655  0.4881 -0.3466
 9353TIP3    H152254   5.755   6.990   9.337 -0.7734  0.6419  0.4481
 9353TIP3    H252255   5.830   7.118   9.368 -0.6917  0.6602  0.1763
 9354TIP3   OH252256   6.628   1.848   9.027 -0.3701  0.7784  0.1644
 9354TIP3    H152257   6.714   1.852   9.068 -0.9443  1.4096  1.3630
 9354TIP3    H252258   6.641   1.886   8.940  0.8889 -0.6584 -0.3192
 9355TIP3   OH252259   2.089   1.973   7.328  0.2632  0.5183  0.2023
 9355TIP3    H152260   2.056   1.920   7.256  0.3251  0.5809  0.1279
 9355TIP3    H252261   2.096   2.061   7.292  1.2466  0.3590 -0.0125
 9356TIP3   OH252262   5.637   5.745   1.605 -0.0242  0.0209 -0.5165
 9356TIP3    H152263   5.659   5.652   1.604  1.2667  0.3142 -0.3407
 9356TIP3    H252264   5.717   5.789   1.579 -0.7200  1.0779 -0.9153
 9357TIP3   OH252265   5.621   1.471   9.561 -0.0652 -0.4669 -0.1799
 9357TIP3    H152266   5.670   1.509   9.634  0.3220 -1.1935 -0.0587
 9357TIP3    H252267   5.645   1.525   9.486 -1.1490  0.8471  0.3726
 9358TIP3   OH252268   4.877   5.963   8.510  0.1297  0.0574 -0.0199
 9358TIP3    H152269   4.878   5.871   8.480 -1.3513  0.6433 -2.1549
 9358TIP3    H252270   4.784   5.988   8.506  0.3447  1.3321  1.7245
 9359TIP3   OH252271   4.150   0.162   2.499  0.1396 -0.0216  0.1681
 9359TIP3    H152272   4.189   0.082   2.533 -0.8404 -0.8603 -0.6415
 9359TIP3    H252273   4.225   0.219   2.481  0.9385 -1.1891 -0.3433
 9360TIP3   OH252274   3.312   5.839   0.428 -0.6207  0.4716 -0.0058
 9360TIP3    H152275   3.250   5.876   0.491  0.8030  1.0070  1.1167
 9360TIP3    H252276   3.257   5.786   0.370 -1.9641 -0.3388  1.8783
 9361TIP3   OH252277   5.397   2.971   0.941 -0.1604  0.2635 -0.2586
 9361TIP3    H152278   5.316   3.001   0.899  0.2274  0.5517 -0.8222
 9361TIP3    H252279   5.434   2.909   0.878  1.2055  1.8412 -1.1036
 9362TIP3   OH252280   3.627   0.313   1.866  0.2271  0.6236  0.4879
 9362TIP3    H152281   3.631   0.316   1.962  1.0836 -1.3251  0.5528
 9362TIP3    H252282   3.533   0.322   1.846 -0.1920 -0.7757  1.6289
 9363TIP3   OH252283   2.053   2.663   9.886 -0.2336 -0.0214 -0.4785
 9363TIP3    H152284   2.103   2.583   9.879  0.7737  0.5989 -0.5015
 9363TIP3    H252285   1.992   2.647   9.958  0.8136 -0.3535  0.3525
 9364TIP3   OH252286   5.955   5.216   9.424  0.1203  0.5045  0.4851
 9364TIP3    H152287   5.913   5.300   9.443  0.5625  0.5715  1.2073
 9364TIP3    H252288   5.988   5.225   9.335 -0.0736  0.9986  0.4582
 9365TIP3   OH252289   3.389   6.310   0.701 -0.3312 -0.0834  0.4248
 9365TIP3    H152290   3.437   6.353   0.771 -0.8893  1.0465  0.1459
 9365TIP3    H252291   3.456   6.271   0.646  0.1150 -1.0198  1.5867
 9366TIP3   OH252292   2.918   0.982   1.993 -1.0023  0.2369 -0.0398
 9366TIP3    H152293   3.007   0.949   2.005 -0.6752  1.7937  2.9484
 9366TIP3    H252294   2.908   0.991   1.898  0.6569 -3.2922 -0.7059
 9367TIP3   OH252295   3.130   1.986   2.004 -0.1023  0.3888  0.5940
 9367TIP3    H152296   3.081   1.921   1.954  0.5367  0.7623 -0.5488
 9367TIP3    H252297   3.077   2.001   2.082 -1.1880 -0.1276 -0.0228
 9368TIP3   OH252298   1.860   2.231   0.881  0.3730 -0.4856 -0.2193
 9368TIP3    H152299   1.798   2.162   0.857 -0.2094 -1.0323  2.4712
 9368TIP3    H252300   1.805   2.303   0.911  1.0196  0.0440 -0.2881
 9369TIP3   OH252301   0.078   0.658   8.554 -0.4758 -0.0999  0.2702
 9369TIP3    H152302   0.152   0.719   8.550 -1.4797  1.1062 -0.6812
 9369TIP3    H252303   0.022   0.692   8.623  0.8518 -2.2699  2.5774
 9370TIP3   OH252304   6.538   1.067   9.430 -0.0204  0.1136 -0.1824
 9370TIP3    H152305   6.559   1.078   9.523 -1.4002 -2.4282  0.5233
 9370TIP3    H252306   6.452   1.109   9.419 -1.9389 -3.1775  0.8447
 9371TIP3   OH252307   3.726   2.658   2.621 -0.0354  0.2935 -0.9083
 9371TIP3    H152308   3.747   2.621   2.535  1.1818 -0.4592 -0.3232
 9371TIP3    H252309   3.668   2.732   2.602  0.5441  0.4013 -2.4076
 9372TIP3   OH252310   1.842   0.637   7.885 -0.0820  0.1396  0.6176
 9372TIP3    H152311   1.916   0.688   7.852  0.5242 -1.1005  0.0256
 9372TIP3    H252312   1.832   0.565   7.823 -1.5507  0.0638  0.9035
 9373TIP3   OH252313   6.783   3.296   0.656 -0.3962 -0.2162 -0.0395
 9373TIP3    H152314   6.841   3.250   0.717 -1.6600 -1.3819  0.3252
 9373TIP3    H252315   6.826   3.381   0.641  1.3269 -0.9995  0.2910
 9374TIP3   OH252316   5.204   6.850   1.645 -0.4626  0.0499  0.6902
 9374TIP3    H152317   5.181   6.758   1.653  0.4895 -0.0994  2.0861
 9374TIP3    H252318   5.156   6.894   1.715 -1.4245  0.7521 -0.3663
 9375TIP3   OH252319   1.342   1.397   0.076  0.2196  0.0526  0.3736
 9375TIP3    H152320   1.431   1.433   0.087  0.9981 -1.5193 -0.5401
 9375TIP3    H252321   1.335   1.330   0.144  0.1080 -0.5328 -0.2164
 9376TIP3   OH252322   7.576   3.773   9.729 -0.2527  0.1125  0.4595
 9376TIP3    H152323   7.540   3.862   9.736  0.1784  0.2727  0.7004
 9376TIP3    H252324   7.605   3.752   9.818 -0.4132 -0.2973  0.4167
 9377TIP3   OH252325   7.126   1.815   9.516  0.1142 -0.1074 -0.0011
 9377TIP3    H152326   7.132   1.860   9.432 -0.9221  1.9630  0.9616
 9377TIP3    H252327   7.214   1.781   9.531  0.7133  0.8156 -1.2236
 9378TIP3   OH252328   6.422   6.430   1.732  0.2425 -0.8687  0.5389
 9378TIP3    H152329   6.497   6.411   1.676 -0.1890 -2.4941  0.4720
 9378TIP3    H252330   6.458   6.487   1.800  1.1670 -0.3282 -0.3685
 9379TIP3   OH252331   1.080   3.320   0.249 -0.1635  0.4330  0.1796
 9379TIP3    H152332   1.079   3.245   0.189  2.2428  0.3583  0.1493
 9379TIP3    H252333   1.048   3.393   0.197  1.2976  0.2396 -1.0554
 9380TIP3   OH252334   1.951   4.605   7.729 -0.0802  0.0246 -0.3765
 9380TIP3    H152335   2.030   4.592   7.676 -0.8727  0.2389 -1.6461
 9380TIP3    H252336   1.948   4.699   7.745 -0.4722  0.1237 -0.9879
 9381TIP3   OH252337   2.708   6.404   9.368 -0.2784  0.0148 -0.5717
 9381TIP3    H152338   2.771   6.457   9.320 -1.3350  0.6224 -1.3282
 9381TIP3    H252339   2.634   6.394   9.308 -0.7719 -0.9501  0.1709
 9382TIP3   OH252340   4.783   0.308   0.550 -0.1020  0.0488  0.5957
 9382TIP3    H152341   4.789   0.391   0.503  0.6406 -1.1466 -1.5424
 9382TIP3    H252342   4.831   0.245   0.495  0.8980 -1.4498  3.0195
 9383TIP3   OH252343   1.995   6.696   8.788  0.0023  0.4626 -0.1778
 9383TIP3    H152344   2.011   6.604   8.809 -1.3550  0.2124 -0.1209
 9383TIP3    H252345   1.987   6.698   8.693 -1.0146  0.3195 -0.1067
 9384TIP3   OH252346   4.841   6.586   2.231 -0.4600 -0.7993  0.1997
 9384TIP3    H152347   4.768   6.546   2.184  0.4903 -1.2838 -0.9111
 9384TIP3    H252348   4.815   6.585   2.323 -2.6740  0.7633 -0.3226
 9385TIP3   OH252349   5.692   5.075   8.810 -0.4195 -0.5947  0.1524
 9385TIP3    H152350   5.701   5.131   8.733 -0.5757 -0.6300  0.1069
 9385TIP3    H252351   5.672   4.989   8.775  1.1861 -0.9928  0.1739
 9386TIP3   OH252352   6.069   0.547   8.377  0.0246  0.3573 -0.0259
 9386TIP3    H152353   6.082   0.506   8.463  0.3700  0.3983 -0.0595
 9386TIP3    H252354   5.992   0.502   8.341 -0.1518  0.3751  0.3258
 9387TIP3   OH252355   3.186   3.575   0.755 -0.0420 -0.0376 -0.2370
 9387TIP3    H152356   3.203   3.618   0.671  0.2232 -0.4228 -0.3846
 9387TIP3    H252357   3.091   3.559   0.754  0.0361 -0.5055 -0.6949
 9388TIP3   OH252358   6.553   6.944   1.993  0.0385  0.1655  0.0977
 9388TIP3    H152359   6.519   6.868   2.041 -1.4966  0.6234 -0.2106
 9388TIP3    H252360   6.486   7.011   2.005  0.1243  0.6291 -1.7781
 9389TIP3   OH252361   7.625   1.851   1.607  0.1055 -0.0485  0.1391
 9389TIP3    H152362   7.713   1.824   1.634  0.0807 -0.5689 -0.2753
 9389TIP3    H252363   7.574   1.770   1.606 -0.6496  0.3938  1.3366
 9390TIP3   OH252364   0.273   6.200   9.608  0.9928 -0.2290 -0.2510
 9390TIP3    H152365   0.255   6.294   9.598  1.2500 -0.0245  1.0341
 9390TIP3    H252366   0.365   6.196   9.635  0.5768 -0.7355  1.1805
 9391TIP3   OH252367   4.900   5.756   7.263 -0.1970 -0.2197 -0.0482
 9391TIP3    H152368   4.944   5.718   7.338  0.6076 -1.1442 -0.9673
 9391TIP3    H252369   4.808   5.730   7.273  0.4510 -3.2090 -1.0761
 9392TIP3   OH252370   4.217   0.674   9.722 -0.2957 -0.0521  0.7270
 9392TIP3    H152371   4.125   0.649   9.732 -1.1993  1.1943 -2.9208
 9392TIP3    H252372   4.214   0.753   9.668  2.9444 -0.6119 -0.4597
 9393TIP3   OH252373   5.294   6.671   8.676  0.1262 -0.2301 -0.1258
 9393TIP3    H152374   5.276   6.592   8.727 -0.1359 -1.3196 -1.8307
 9393TIP3    H252375   5.384   6.660   8.646 -0.6450 -1.0997 -2.3343
 9394TIP3   OH252376   6.220   4.418   0.218 -0.0270  0.0778 -0.1914
 9394TIP3    H152377   6.291   4.398   0.157  0.7852  1.9098  0.0871
 9394TIP3    H252378   6.182   4.333   0.239  1.4177 -0.8511 -1.1483
 9395TIP3   OH252379   6.065   2.131   1.436 -0.1045 -0.3588 -0.2487
 9395TIP3    H152380   6.075   2.134   1.531  0.5895 -0.1876 -0.3191
 9395TIP3    H252381   6.049   2.221   1.411 -2.7088 -0.7182 -0.0719
 9396TIP3   OH252382   4.422   0.981   2.772 -0.4432 -0.2336 -0.4865
 9396TIP3    H152383   4.434   0.909   2.834 -1.3472 -0.8008 -0.9379
 9396TIP3    H252384   4.418   0.938   2.686 -0.5378  0.4010 -0.8094
 9397TIP3   OH252385   2.129   1.707   7.124  0.2432  0.0158  0.2192
 9397TIP3    H152386   2.057   1.756   7.085  0.9719  0.1171 -1.0464
 9397TIP3    H252387   2.133   1.625   7.074  1.3489  0.2513 -0.1120
 9398TIP3   OH252388   6.837   1.196   9.965 -0.3884 -0.3258  0.6753
 9398TIP3    H152389   6.913   1.246   9.935  0.3282 -1.6654  0.1797
 9398TIP3    H252390   6.772   1.262   9.986  0.5055  0.8104 -0.0186
 9399TIP3   OH252391   3.044   6.429   6.779  0.1714  0.1342  0.5171
 9399TIP3    H152392   3.119   6.472   6.737 -1.0739  3.1976  1.1467
 9399TIP3    H252393   2.970   6.446   6.720 -0.4756 -0.8122  1.0214
 9400TIP3   OH252394   4.050   2.438   9.898  0.2959  0.4755  0.0116
 9400TIP3    H152395   4.129   2.470   9.855  0.1471  1.7636  0.6561
 9400TIP3    H252396   4.045   2.346   9.873  0.7872  0.9051 -1.8534
 9401TIP3   OH252397   7.570   4.941   7.839  0.5165 -0.1995 -0.3988
 9401TIP3    H152398   7.584   4.991   7.919 -0.1157 -1.8906  0.8369
 9401TIP3    H252399   7.630   4.867   7.845 -1.1704 -1.6339 -0.2854
 9402TIP3   OH252400   1.383   3.945   0.907  0.4959 -0.0506  0.2555
 9402TIP3    H152401   1.377   3.934   1.002 -1.9962 -1.7205 -0.0186
 9402TIP3    H252402   1.451   3.883   0.880 -0.7834 -1.7387  0.7136
 9403TIP3   OH252403   1.902   1.216   1.774  0.2511  0.0578 -0.5232
 9403TIP3    H152404   1.959   1.289   1.800 -0.5872 -0.2051  2.5268
 9403TIP3    H252405   1.930   1.193   1.686  2.4589  2.2205 -0.4864
 9404TIP3   OH252406   3.429   1.835   1.030  0.3594  0.1492 -0.3563
 9404TIP3    H152407   3.521   1.859   1.019  1.0194 -2.3984 -0.8558
 9404TIP3    H252408   3.425   1.792   1.116 -0.4456  0.5059 -0.2038
 9405TIP3   OH252409   3.879   1.258   0.106  0.8059  0.1206  0.0253
 9405TIP3    H152410   3.886   1.252   0.010  1.1874  0.4401  0.0300
 9405TIP3    H252411   3.937   1.331   0.129  1.1478 -0.3163  0.5523
 9406TIP3   OH252412   2.715   3.345   1.261 -0.0781 -0.6265  0.2466
 9406TIP3    H152413   2.647   3.411   1.245  0.3267  0.0158  1.0823
 9406TIP3    H252414   2.676   3.286   1.325 -0.0804 -0.6227  0.2486
 9407TIP3   OH252415   4.947   1.740   0.681 -0.1529 -0.5216 -0.0535
 9407TIP3    H152416   5.038   1.770   0.688  0.4668 -1.9997 -1.3625
 9407TIP3    H252417   4.895   1.817   0.704  1.4066 -0.0163  2.1780
 9408TIP3   OH252418   3.310   7.518   2.887  0.2686 -0.3503  0.2489
 9408TIP3    H152419   3.254   7.586   2.849  0.6347  0.7298  1.5894
 9408TIP3    H252420   3.249   7.459   2.931  0.0458 -0.1487  0.2140
 9409TIP3   OH252421   4.894   5.555   1.271  0.3252  0.2092  0.3420
 9409TIP3    H152422   4.987   5.566   1.292  0.5545 -1.0521  0.1177
 9409TIP3    H252423   4.868   5.637   1.230  1.4495  0.4383  0.0518
 9410TIP3   OH252424   5.858   5.567   0.446  0.0938 -0.3099  0.0802
 9410TIP3    H152425   5.843   5.506   0.374 -0.3173 -0.4480  0.2812
 9410TIP3    H252426   5.949   5.594   0.436 -0.2336  0.4361 -1.0852
 9411TIP3   OH252427   1.321   4.202   9.240  0.0848  0.4821 -0.1860
 9411TIP3    H152428   1.347   4.186   9.331  0.0542 -1.7379 -0.5167
 9411TIP3    H252429   1.380   4.147   9.188 -1.6773 -0.4138 -1.3075
 9412TIP3   OH252430   5.000   5.496   0.916 -0.0709 -0.1288 -0.1731
 9412TIP3    H152431   4.984   5.446   0.996 -0.8491  2.2917  1.2920
 9412TIP3    H252432   4.913   5.507   0.877 -0.0381  0.7060 -0.0391
 9413TIP3   OH252433   4.299   1.826   8.126 -0.0254  0.0358  0.0076
 9413TIP3    H152434   4.316   1.843   8.034 -1.5532 -0.0362 -0.3092
 9413TIP3    H252435   4.254   1.741   8.126 -0.6346  0.3504  0.7500
 9414TIP3   OH252436   0.464   7.565   8.842 -0.5531 -0.3100  0.2265
 9414TIP3    H152437   0.478   7.659   8.852 -0.8837 -0.1187 -0.9792
 9414TIP3    H252438   0.407   7.542   8.915 -2.1474  0.8387 -0.5872
 9415TIP3   OH252439   2.904   5.276   8.671  0.2246 -0.3932 -0.3190
 9415TIP3    H152440   2.859   5.324   8.601 -2.3824 -2.6469 -0.3493
 9415TIP3    H252441   2.870   5.315   8.752 -0.1329 -0.6695 -0.3352
 9416TIP3   OH252442   3.467   7.336   8.341 -0.4781  0.2809 -0.1844
 9416TIP3    H152443   3.517   7.412   8.371  0.2116 -0.5895  0.9807
 9416TIP3    H252444   3.441   7.292   8.422  2.7318 -3.0354 -0.6780
 9417TIP3   OH252445   5.400   0.470   0.651  0.2733  0.4597 -0.0562
 9417TIP3    H152446   5.355   0.427   0.578 -0.0505  0.8905 -0.1171
 9417TIP3    H252447   5.493   0.463   0.630  0.1488  1.4481 -1.0156
 9418TIP3   OH252448   4.825   2.974   9.504 -0.1483  0.4182 -0.6997
 9418TIP3    H152449   4.911   2.951   9.468  0.2857 -0.1536  0.6508
 9418TIP3    H252450   4.829   3.069   9.517 -0.3654  0.6631 -2.2357
 9419TIP3   OH252451   7.471   0.337   9.819 -0.1741 -0.3549  0.5962
 9419TIP3    H152452   7.390   0.387   9.805  0.9977  0.9827 -2.0881
 9419TIP3    H252453   7.535   0.402   9.845  0.8796 -0.7431 -0.8986
 9420TIP3   OH252454   0.621   0.783   1.944  0.0017 -0.2733  0.2134
 9420TIP3    H152455   0.623   0.789   1.849 -0.1769  1.4046  0.2906
 9420TIP3    H252456   0.679   0.709   1.964  0.1358 -0.5808 -1.1666
 9421TIP3   OH252457   6.760   3.456   8.154 -0.2763  0.9214 -0.5370
 9421TIP3    H152458   6.810   3.526   8.195  0.4489  1.8980 -2.8852
 9421TIP3    H252459   6.816   3.378   8.162 -0.4858  0.8947  0.8921
 9422TIP3   OH252460   2.714   3.553   8.604  0.3826 -0.2085 -0.2694
 9422TIP3    H152461   2.633   3.542   8.554  0.0369 -2.4439  0.6974
 9422TIP3    H252462   2.686   3.551   8.695  1.3554  0.8959  0.0821
 9423TIP3   OH252463   4.543   1.805   9.140 -0.3994 -0.9365  0.6632
 9423TIP3    H152464   4.559   1.859   9.062 -1.0755 -1.0967  0.4053
 9423TIP3    H252465   4.479   1.855   9.191 -1.4298 -1.7216  0.1685
 9424TIP3   OH252466   4.271   0.121   1.800 -0.0593 -0.1742  0.1436
 9424TIP3    H152467   4.231   0.093   1.882  1.3211  0.9217  1.2641
 9424TIP3    H252468   4.199   0.122   1.737 -1.3670 -0.1763  1.5677
 9425TIP3   OH252469   4.622   6.994   7.780  0.1253 -0.2169  0.1482
 9425TIP3    H152470   4.562   7.048   7.728 -0.2848 -0.5234  0.2948
 9425TIP3    H252471   4.599   7.015   7.871  0.4378 -0.1187  0.2035
 9426TIP3   OH252472   2.542   6.136   0.224  0.0604 -0.1400 -0.1986
 9426TIP3    H152473   2.447   6.128   0.229  0.1287 -0.9346  0.0028
 9426TIP3    H252474   2.575   6.075   0.290  0.7100 -0.0865 -0.4615
 9427TIP3   OH252475   1.637   2.950   8.599 -0.7115 -0.1287 -0.6124
 9427TIP3    H152476   1.616   2.906   8.681 -0.4112  0.9329  0.0461
 9427TIP3    H252477   1.729   2.976   8.607 -1.0731  1.2346 -0.6875
 9428TIP3   OH252478   5.202   1.987   0.211  0.5132 -0.5695  0.3657
 9428TIP3    H152479   5.164   2.075   0.218 -1.5162 -1.5398  3.0726
 9428TIP3    H252480   5.152   1.945   0.140  1.4689  0.3608 -0.9174
 9429TIP3   OH252481   3.169   3.270   7.214  0.0785 -0.4710 -0.2660
 9429TIP3    H152482   3.201   3.342   7.159 -0.6857  0.0804 -0.0213
 9429TIP3    H252483   3.247   3.222   7.240  0.6680  0.6199  0.0314
 9430TIP3   OH252484   3.968   7.265   2.610  0.1921 -0.0051 -0.1624
 9430TIP3    H152485   3.894   7.237   2.557 -0.3613  0.2889  0.4429
 9430TIP3    H252486   3.993   7.186   2.659 -0.6988  0.2648  0.7618
 9431TIP3   OH252487   3.563   6.066   8.506  0.2090 -0.0663 -0.3115
 9431TIP3    H152488   3.503   6.095   8.575  0.6741  1.2212 -0.4276
 9431TIP3    H252489   3.517   5.992   8.465 -0.5977 -0.1011  0.6028
 9432TIP3   OH252490   3.134   3.433   2.401 -0.1119 -0.4030 -0.6071
 9432TIP3    H152491   3.210   3.490   2.410  0.3237 -0.8795 -1.1230
 9432TIP3    H252492   3.085   3.443   2.482 -0.4235  1.2282 -0.9590
 9433TIP3   OH252493   2.977   5.145   8.089  0.2355  0.2844  0.0747
 9433TIP3    H152494   2.910   5.139   8.021  0.8273 -0.4442 -0.4614
 9433TIP3    H252495   3.060   5.133   8.043  0.7324  0.9494  0.7646
 9434TIP3   OH252496   4.592   3.263   0.057  0.5442  0.0311 -0.1588
 9434TIP3    H152497   4.685   3.255   0.039  0.1798 -1.2391 -1.6663
 9434TIP3    H252498   4.549   3.217  -0.015 -1.2045 -0.6873  1.2614
 9435TIP3   OH252499   2.799   4.016   1.524 -0.2545 -0.3376  0.1665
 9435TIP3    H152500   2.880   4.033   1.475  0.0683 -1.4215  0.2941
 9435TIP3    H252501   2.811   4.062   1.607 -0.9870  1.8714 -0.8897
 9436TIP3   OH252502   3.602   7.079   8.076  0.2463  0.0317  0.1479
 9436TIP3    H152503   3.669   7.114   8.135  1.9930  0.9641 -2.2440
 9436TIP3    H252504   3.612   7.130   7.995 -0.4329 -2.7161 -1.8002
 9437TIP3   OH252505   0.868   4.678   1.739  0.0859 -0.0384  0.0361
 9437TIP3    H152506   0.791   4.628   1.766 -0.4722  0.6645 -0.2164
 9437TIP3    H252507   0.856   4.764   1.780 -0.4940  0.8783 -1.9449
 9438TIP3   OH252508   2.753   6.369   8.394  0.5925  0.1124 -0.0710
 9438TIP3    H152509   2.657   6.364   8.391  0.6188 -1.2749  0.7830
 9438TIP3    H252510   2.771   6.461   8.414 -0.4934  0.7722 -1.8538
 9439TIP3   OH252511   5.477   6.327   0.931 -0.0526  0.3895 -0.0856
 9439TIP3    H152512   5.509   6.238   0.919  1.6469  1.1900 -2.1541
 9439TIP3    H252513   5.443   6.329   1.020 -0.1082 -2.2986  0.0139
 9440TIP3   OH252514   6.722   1.270   8.855 -0.0638  0.4987 -0.1063
 9440TIP3    H152515   6.814   1.251   8.875 -0.4451 -0.4753  0.8132
 9440TIP3    H252516   6.694   1.196   8.801 -0.5730  0.2832  0.4477
 9441TIP3   OH252517   5.376   2.186   1.628  0.7763 -0.3760 -0.0879
 9441TIP3    H152518   5.311   2.120   1.652  0.6420 -0.0636  0.4245
 9441TIP3    H252519   5.415   2.153   1.547 -1.2189  0.2452 -1.3695
 9442TIP3   OH252520   0.553   6.673   2.661 -0.1866 -0.0683 -0.2200
 9442TIP3    H152521   0.567   6.585   2.627 -0.8739 -0.7802  1.2683
 9442TIP3    H252522   0.580   6.731   2.589  4.3249 -1.3278  0.1689
 9443TIP3   OH252523   6.632   6.122   1.638 -0.7252  0.1054 -0.0127
 9443TIP3    H152524   6.655   6.175   1.562 -1.4329  0.8162  0.2491
 9443TIP3    H252525   6.605   6.038   1.602 -2.8495  1.0357 -0.7225
 9444TIP3   OH252526   1.653   2.600   9.554 -0.3135 -0.1272 -0.1298
 9444TIP3    H152527   1.691   2.516   9.581 -2.9387 -1.9445 -1.6613
 9444TIP3    H252528   1.588   2.619   9.622 -0.0357  0.4573 -0.0236
 9445TIP3   OH252529   5.936   6.649   0.964  0.7764 -1.0208 -0.7430
 9445TIP3    H152530   5.879   6.685   0.896 -0.2729 -3.0291 -0.9919
 9445TIP3    H252531   6.018   6.630   0.919  0.9670 -0.0057 -0.8488
 9446TIP3   OH252532   3.847   0.241   7.530  0.0044 -0.0261 -0.1497
 9446TIP3    H152533   3.767   0.193   7.555 -0.3882  0.7638  0.1557
 9446TIP3    H252534   3.911   0.215   7.596 -0.4695  0.5536  0.5560
 9447TIP3   OH252535   4.842   7.087   1.364  0.1707 -0.8407  0.0536
 9447TIP3    H152536   4.833   7.181   1.380  1.3567 -1.1621  3.3538
 9447TIP3    H252537   4.763   7.049   1.402  0.0848 -1.2561 -0.5328
 9448TIP3   OH252538   2.385   2.516   8.878 -0.3816 -0.4697  0.1140
 9448TIP3    H152539   2.472   2.546   8.853 -0.9711  0.7498 -0.6433
 9448TIP3    H252540   2.388   2.506   8.973  0.1210  1.2320  0.3065
 9449TIP3   OH252541   7.453   2.582   0.786 -0.0184  0.2544  0.5681
 9449TIP3    H152542   7.447   2.677   0.773 -1.5111  0.1537  0.3485
 9449TIP3    H252543   7.409   2.544   0.710 -1.0756 -0.5494  1.5418
 9450TIP3   OH252544   3.975   1.474   2.517  0.9296 -0.1588  0.3506
 9450TIP3    H152545   3.946   1.558   2.552  0.1379 -0.3821  0.2461
 9450TIP3    H252546   4.014   1.428   2.592  4.2810  1.5046 -0.1862
 9451TIP3   OH252547   3.160   3.842   2.079  0.0363 -0.2326 -0.0958
 9451TIP3    H152548   3.066   3.840   2.063 -0.0790  0.1939  0.5262
 9451TIP3    H252549   3.193   3.763   2.035 -0.8222 -1.2459  1.0244
 9452TIP3   OH252550   2.071   7.657   2.045 -0.1405  0.6222  0.3398
 9452TIP3    H152551   2.147   7.639   2.101  0.0640  0.5241  0.0318
 9452TIP3    H252552   1.996   7.651   2.104  0.1584  1.6383  0.8376
 9453TIP3   OH252553   5.435   5.332   7.817 -0.1114 -0.0212  0.6521
 9453TIP3    H152554   5.357   5.300   7.773  0.8491 -1.8794  0.2011
 9453TIP3    H252555   5.453   5.267   7.885  3.4213 -2.2491 -2.0053
 9454TIP3   OH252556   6.154   6.059   0.565  0.3659  0.0736 -0.1613
 9454TIP3    H152557   6.198   6.143   0.578  0.6512 -0.2018  0.8135
 9454TIP3    H252558   6.218   5.995   0.596 -0.1707 -0.4387 -0.1048
 9455TIP3   OH252559   3.365   7.484   9.477 -0.1762 -0.1735  0.4785
 9455TIP3    H152560   3.427   7.432   9.426 -0.7745 -0.6691  0.2446
 9455TIP3    H252561   3.397   7.574   9.470  1.0003 -0.5319  1.0664
 9456TIP3   OH252562   4.214   2.640   9.213 -0.5212  0.0709  0.0706
 9456TIP3    H152563   4.247   2.659   9.125 -0.5326 -2.6463 -0.5923
 9456TIP3    H252564   4.293   2.633   9.268 -0.4832  1.1454  0.1768
 9457TIP3   OH252565   5.328   0.491   0.358  0.2854 -0.1073 -0.0761
 9457TIP3    H152566   5.255   0.498   0.297  0.5329  0.4441 -0.3241
 9457TIP3    H252567   5.361   0.581   0.366  0.8887 -0.3344  0.0890
 9458TIP3   OH252568   4.418   3.637   1.768 -0.0307  0.2691  0.0206
 9458TIP3    H152569   4.404   3.721   1.725  0.4947  0.5750  0.4448
 9458TIP3    H252570   4.499   3.647   1.817  0.7487 -0.9058 -0.9620
 9459TIP3   OH252571   4.413   3.007   7.560  0.2031 -0.4017  0.4920
 9459TIP3    H152572   4.335   3.024   7.613  0.1753  0.7034  0.1351
 9459TIP3    H252573   4.386   3.028   7.471  1.2889  1.4473  0.5441
 9460TIP3   OH252574   0.940   3.769   9.207  0.5890 -0.2494  0.2675
 9460TIP3    H152575   1.007   3.751   9.141  0.8957 -0.7937  0.7204
 9460TIP3    H252576   0.986   3.764   9.290  0.1908  0.3809  0.5326
 9461TIP3   OH252577   1.382   1.187   8.429  0.4399  0.1919 -0.6110
 9461TIP3    H152578   1.352   1.277   8.413  1.1703  0.7107  0.8078
 9461TIP3    H252579   1.303   1.140   8.453 -0.2497  0.0043 -2.9270
 9462TIP3   OH252580   6.782   4.083   0.724  0.4486  0.5664 -0.6772
 9462TIP3    H152581   6.720   4.055   0.657  1.2615 -0.6560 -0.9709
 9462TIP3    H252582   6.817   4.166   0.691 -1.3268  1.5214 -0.2701
 9463TIP3   OH252583   4.241   6.663   8.673  0.7219 -0.3131  0.4454
 9463TIP3    H152584   4.248   6.606   8.749  0.1875 -1.7684 -0.5552
 9463TIP3    H252585   4.308   6.631   8.612  1.2534  0.9300  0.3416
 9464TIP3   OH252586   7.486   1.436   2.094 -0.4002 -0.0768  0.2516
 9464TIP3    H152587   7.557   1.452   2.156 -0.5878  0.5210  0.3197
 9464TIP3    H252588   7.449   1.352   2.121  1.0552 -1.0093 -0.5341
 9465TIP3   OH252589   1.239   6.212   1.625 -0.0093 -0.0607  0.0520
 9465TIP3    H152590   1.177   6.145   1.595  0.6214 -0.7504  0.2421
 9465TIP3    H252591   1.184   6.286   1.652 -0.6953 -0.3072 -0.6364
 9466TIP3   OH252592   0.702   1.137   1.778 -0.2272 -0.2212 -0.1320
 9466TIP3    H152593   0.674   1.085   1.853 -1.6083  1.8695  0.8888
 9466TIP3    H252594   0.749   1.211   1.816 -0.9839  0.8953 -1.2835
 9467TIP3   OH252595   5.373   0.774   9.989  0.5476  0.6592  0.2404
 9467TIP3    H152596   5.449   0.721  10.012  0.6388 -0.1897 -1.8516
 9467TIP3    H252597   5.314   0.714   9.944  0.0931  1.9985 -1.0509
 9468TIP3   OH252598   0.065   7.246   9.412  0.7206  0.0747 -0.7077
 9468TIP3    H152599  -0.021   7.240   9.455  0.5105  0.3596 -1.0811
 9468TIP3    H252600   0.079   7.160   9.374  0.1538  0.3160 -1.4797
 9469TIP3   OH252601   3.455   4.852   8.461  0.1873  0.4006  0.5140
 9469TIP3    H152602   3.389   4.784   8.473  1.8365 -1.4900 -0.6679
 9469TIP3    H252603   3.407   4.934   8.473 -2.1772 -0.9100  0.5300
 9470TIP3   OH252604   1.943   2.383   2.362 -0.4040 -0.8236 -0.2347
 9470TIP3    H152605   2.002   2.402   2.434 -0.7326  0.1952 -0.2232
 9470TIP3    H252606   1.862   2.354   2.404  0.4394 -3.5257 -0.2562
 9471TIP3   OH252607   0.122   0.662   2.755 -0.0740 -0.0359  0.2752
 9471TIP3    H152608   0.201   0.609   2.757 -0.9934 -1.5510 -0.8607
 9471TIP3    H252609   0.137   0.723   2.683 -0.2806 -0.9538 -0.5736
 9472TIP3   OH252610   2.395   3.144   1.781 -0.1338  0.3422  0.5489
 9472TIP3    H152611   2.336   3.149   1.706 -1.4651 -0.0629  1.5462
 9472TIP3    H252612   2.390   3.231   1.821 -1.6057 -0.2824  1.7673
 9473TIP3   OH252613   4.238   3.182   0.062  0.1358 -0.4726  0.1390
 9473TIP3    H152614   4.275   3.270   0.055 -0.0234 -0.4063  0.1155
 9473TIP3    H252615   4.198   3.180   0.149 -2.9165  0.6882 -1.1128
 9474TIP3   OH252616   2.968   6.415   1.677 -0.5067  0.2309 -0.1694
 9474TIP3    H152617   2.930   6.501   1.693  1.2684  1.1303 -0.4838
 9474TIP3    H252618   3.019   6.427   1.596  1.5686 -0.4719  0.9705
 9475TIP3   OH252619   3.566   7.565   0.264 -0.4308 -0.1918  0.0183
 9475TIP3    H152620   3.517   7.575   0.345  0.9304 -0.6585  0.9309
 9475TIP3    H252621   3.543   7.478   0.232 -0.9532 -0.0149 -0.0903
 9476TIP3   OH252622   0.521   1.734   0.463 -0.3420 -0.0207  0.6042
 9476TIP3    H152623   0.487   1.741   0.552  1.1996 -0.5918  1.2810
 9476TIP3    H252624   0.446   1.707   0.411 -1.7580  2.2172  1.3348
 9477TIP3   OH252625   7.122   4.162   1.744 -0.2745  0.4522 -0.3853
 9477TIP3    H152626   7.131   4.181   1.837 -1.1682  0.5950 -0.3141
 9477TIP3    H252627   7.136   4.247   1.701 -1.2802  0.6992 -0.2685
 9478TIP3   OH252628   3.222   3.470   8.405 -0.0373  0.4978  0.3183
 9478TIP3    H152629   3.202   3.472   8.311  1.0374 -2.0278 -0.0690
 9478TIP3    H252630   3.138   3.452   8.447 -0.3094  0.2994 -0.3014
 9479TIP3   OH252631   2.368   0.753   2.419 -0.0504  0.3177  0.0454
 9479TIP3    H152632   2.292   0.807   2.442 -0.4282 -0.8317  1.6687
 9479TIP3    H252633   2.330   0.672   2.384  0.5140  1.1376 -2.6632
 9480TIP3   OH252634   6.041   6.580   8.557  0.1136  0.2282 -0.5094
 9480TIP3    H152635   6.029   6.521   8.482  1.6264  0.6588 -1.1331
 9480TIP3    H252636   5.986   6.656   8.536 -0.6488 -0.2978 -0.4427
 9481TIP3   OH252637   5.133   5.259   2.398  0.3304  0.1147 -0.4112
 9481TIP3    H152638   5.110   5.166   2.396  2.3293 -0.4280 -0.7156
 9481TIP3    H252639   5.219   5.262   2.357  1.3267  1.7987  1.6613
 9482TIP3   OH252640   1.829   1.199   9.582  0.0500 -0.2189 -0.0202
 9482TIP3    H152641   1.754   1.256   9.600  1.0842  0.7022  1.4979
 9482TIP3    H252642   1.792   1.111   9.583 -1.4396  0.3162 -1.6696
 9483TIP3   OH252643   3.917   3.418   9.688 -0.6575  0.3199 -0.1147
 9483TIP3    H152644   4.013   3.413   9.690 -0.6088  1.2066  0.3392
 9483TIP3    H252645   3.897   3.471   9.611 -0.8045 -0.0775 -0.3551
 9484TIP3   OH252646   1.712   3.808   6.868  0.2177 -0.1896 -0.2315
 9484TIP3    H152647   1.682   3.724   6.834  1.8669 -2.2476  2.9188
 9484TIP3    H252648   1.637   3.843   6.916 -0.0643 -0.5381 -0.4159
 9485TIP3   OH252649   3.840   5.275   8.476 -0.0932  0.3239 -0.3658
 9485TIP3    H152650   3.802   5.344   8.531  1.0878 -1.7513  3.4172
 9485TIP3    H252651   3.785   5.198   8.492  1.1002 -0.7164 -1.0364
 9486TIP3   OH252652   0.038   4.727   1.898 -0.1827  0.1315 -0.1900
 9486TIP3    H152653   0.124   4.721   1.940  0.3012 -0.0860 -1.1946
 9486TIP3    H252654  -0.015   4.660   1.942  0.6662 -0.9153 -0.7157
 9487TIP3   OH252655   4.397   0.668   8.128 -0.0631  0.1280  0.3921
 9487TIP3    H152656   4.334   0.664   8.057  0.7745  0.9582 -0.4296
 9487TIP3    H252657   4.345   0.688   8.206 -0.7836  1.0626 -0.3109
 9488TIP3   OH252658   7.085   3.464   0.983 -0.2303  0.1366  0.1387
 9488TIP3    H152659   7.089   3.513   0.901  2.8511 -0.0152  0.0839
 9488TIP3    H252660   6.993   3.472   1.011 -1.4744  0.0451 -3.3575
 9489TIP3   OH252661   0.672   5.532   9.545  0.1385 -0.1860  0.0606
 9489TIP3    H152662   0.727   5.511   9.469  1.9148  0.0826  1.2300
 9489TIP3    H252663   0.730   5.525   9.620 -0.3638  3.8964  1.0644
 9490TIP3   OH252664   0.883   5.205   9.831  0.2395 -0.4451  0.3313
 9490TIP3    H152665   0.834   5.265   9.775  2.0690  1.3123  0.4966
 9490TIP3    H252666   0.922   5.261   9.898  0.8657 -2.0278  1.3436
 9491TIP3   OH252667   4.509   0.872   1.457  0.0911  0.0231 -0.3599
 9491TIP3    H152668   4.534   0.805   1.520 -1.0721  1.7040  2.0295
 9491TIP3    H252669   4.564   0.854   1.381  1.9528 -1.8065  1.2826
 9492TIP3   OH252670   6.774   2.080   0.563  0.0035 -0.2189 -0.1121
 9492TIP3    H152671   6.691   2.073   0.515 -0.3167  2.0834  0.0064
 9492TIP3    H252672   6.841   2.058   0.498 -0.5820  0.2407 -0.8923
 9493TIP3   OH252673   6.053   7.603   9.121 -0.3852 -0.2016 -0.3931
 9493TIP3    H152674   6.025   7.660   9.049 -1.6965  2.0702  1.7866
 9493TIP3    H252675   6.143   7.630   9.139 -0.2057 -0.4735 -0.8514
 9494TIP3   OH252676   2.441   5.513   9.883 -0.0032  0.0580 -0.1229
 9494TIP3    H152677   2.457   5.438   9.941  1.3983  0.1545 -0.3480
 9494TIP3    H252678   2.375   5.565   9.929  2.5968  1.3075  2.5474
 9495TIP3   OH252679   5.358   2.513   9.723  0.5669  0.2030  0.1079
 9495TIP3    H152680   5.445   2.553   9.726  0.4585  0.5781 -1.2132
 9495TIP3    H252681   5.358   2.450   9.796  3.0194 -1.9553 -1.5566
 9496TIP3   OH252682   0.896   7.610   8.975 -0.0665  0.4179  0.3957
 9496TIP3    H152683   0.844   7.679   9.017  0.8682  1.6329 -0.3470
 9496TIP3    H252684   0.975   7.655   8.945 -1.0455 -0.0771 -3.5057
 9497TIP3   OH252685   3.953   5.703   0.210 -0.1182  0.3144 -0.0181
 9497TIP3    H152686   3.921   5.792   0.200 -1.7061 -0.2829 -0.5938
 9497TIP3    H252687   3.992   5.681   0.125  2.6598  1.2751  0.8774
 9498TIP3   OH252688   4.084   7.510   2.431  0.4672 -0.6138 -0.0616
 9498TIP3    H152689   4.038   7.521   2.514  0.7205  1.7654 -0.1623
 9498TIP3    H252690   4.024   7.457   2.378  0.5093 -2.6000  1.7150
 9499TIP3   OH252691   4.129   1.567   0.779 -0.6921 -0.6641  0.2179
 9499TIP3    H152692   4.156   1.528   0.696 -2.6704 -0.8218 -0.4137
 9499TIP3    H252693   4.051   1.517   0.804  0.9585 -2.0238  3.2632
 9500TIP3   OH252694   3.593   1.443   0.050 -0.2570 -0.0604  0.3051
 9500TIP3    H152695   3.677   1.488   0.059  0.2855 -1.2050  1.3542
 9500TIP3    H252696   3.528   1.506   0.080  0.1263  1.1049 -1.2224
 9501TIP3   OH252697   7.433   2.166   9.981  0.1579  0.5566  0.3675
 9501TIP3    H152698   7.447   2.245  10.033  0.4918  1.3742 -0.9236
 9501TIP3    H252699   7.415   2.097  10.046 -0.0131  1.6539  1.5164
 9502TIP3   OH252700   6.791   5.628   0.744 -0.1049  0.2102 -0.5394
 9502TIP3    H152701   6.834   5.569   0.805 -2.0531 -1.2007 -0.4493
 9502TIP3    H252702   6.707   5.649   0.785 -0.6950  0.6745 -1.9131
 9503TIP3   OH252703   0.505   4.637   0.660 -0.0261 -0.3300  0.2753
 9503TIP3    H152704   0.554   4.710   0.623  0.5174 -1.0681 -0.4933
 9503TIP3    H252705   0.414   4.654   0.638  0.2224 -0.4383 -0.8686
 9504TIP3   OH252706   1.525   2.968   1.742  0.2931 -0.0002  0.1489
 9504TIP3    H152707   1.553   3.026   1.670  0.1698 -0.8834 -0.6351
 9504TIP3    H252708   1.519   2.882   1.701 -2.6032 -0.0520  0.4903
 9505TIP3   OH252709   2.844   5.921   8.171 -0.2897  0.0111  0.4128
 9505TIP3    H152710   2.859   5.927   8.077 -1.9700  1.1274  0.1708
 9505TIP3    H252711   2.824   6.011   8.198 -2.1908 -0.6298  1.3570
 9506TIP3   OH252712   2.217   0.437   7.503 -0.5759 -0.0549 -0.2311
 9506TIP3    H152713   2.130   0.453   7.466  0.3566  1.4521 -1.9269
 9506TIP3    H252714   2.274   0.500   7.459  1.6241 -1.8119 -0.0930
 9507TIP3   OH252715   1.928   4.240   9.750 -0.0623  0.4975  0.2738
 9507TIP3    H152716   1.878   4.288   9.815 -0.3762  1.2823 -0.5309
 9507TIP3    H252717   2.006   4.294   9.736  0.5046 -0.1820  0.7343
 9508TIP3   OH252718   4.147   4.408   1.652  1.2248  0.2223  0.2490
 9508TIP3    H152719   4.178   4.340   1.712  0.0529 -0.1443  0.4651
 9508TIP3    H252720   4.053   4.410   1.666  1.1283  1.1950 -0.4988
 9509TIP3   OH252721   3.666   7.620   9.477 -0.6551 -0.0208  0.6444
 9509TIP3    H152722   3.595   7.672   9.439  0.6007  0.5308 -1.1073
 9509TIP3    H252723   3.744   7.675   9.466 -0.2123  0.4455  4.7126
 9510TIP3   OH252724   2.616   5.568   1.434 -0.2914  0.1668  0.1554
 9510TIP3    H152725   2.652   5.642   1.484  2.3809  0.3803 -1.8371
 9510TIP3    H252726   2.661   5.491   1.468 -0.3479 -0.0326 -0.2080
 9511TIP3   OH252727   5.859   5.135   0.377  0.3160 -0.1702 -0.2278
 9511TIP3    H152728   5.914   5.064   0.411  0.2519 -1.5188 -2.7618
 9511TIP3    H252729   5.769   5.104   0.392  0.2454  0.4396  0.7008
 9512TIP3   OH252730   2.099   1.413   1.825  0.1424 -0.1888 -0.4679
 9512TIP3    H152731   2.094   1.416   1.920 -2.1808  0.2849 -0.5533
 9512TIP3    H252732   2.114   1.504   1.799 -2.3579  0.2471 -0.6101
 9513TIP3   OH252733   4.525   5.368   9.936 -0.8051  0.1971 -0.1655
 9513TIP3    H152734   4.570   5.390  10.018 -0.3008  1.4879 -0.7571
 9513TIP3    H252735   4.567   5.288   9.906  0.3619  0.7787 -0.1474
 9514TIP3   OH252736   7.563   4.783   1.680  0.1585  0.3298  0.5416
 9514TIP3    H152737   7.469   4.775   1.696 -0.2394  1.4683 -1.0357
 9514TIP3    H252738   7.603   4.743   1.757 -1.5973 -1.7397  0.4961
 9515TIP3   OH252739   3.830   5.545   9.867  0.1030  0.1898 -0.4659
 9515TIP3    H152740   3.741   5.580   9.870  0.1389  0.2385  0.3854
 9515TIP3    H252741   3.880   5.611   9.819 -0.7396 -0.8550 -2.9341
 9516TIP3   OH252742   6.812   7.673   9.648  0.3624 -0.4065  0.4450
 9516TIP3    H152743   6.724   7.656   9.682 -0.2739 -1.6564 -1.6799
 9516TIP3    H252744   6.808   7.763   9.615 -0.2130 -0.5720  0.0667
 9517TIP3   OH252745   5.096   5.001   8.473  0.0613  0.0868  0.0268
 9517TIP3    H152746   5.072   5.027   8.561 -0.1094  0.5972 -0.1636
 9517TIP3    H252747   5.149   5.074   8.440 -2.3196  1.3624 -1.3414
 9518TIP3   OH252748   5.538   6.534   8.578 -0.2577  0.1161  0.1824
 9518TIP3    H152749   5.548   6.443   8.608 -0.1243 -0.9158 -2.6643
 9518TIP3    H252750   5.623   6.574   8.595  0.5974 -1.1328 -0.9313
 9519TIP3   OH252751   1.238   0.015   7.448  0.2197 -0.1349 -0.0984
 9519TIP3    H152752   1.223  -0.029   7.364 -0.8252  0.9408 -0.5116
 9519TIP3    H252753   1.169   0.081   7.452 -2.1630 -2.5398  3.2887
 9520TIP3   OH252754   6.118   5.095   1.381  0.9123 -0.0146  0.9984
 9520TIP3    H152755   6.103   5.186   1.408 -0.5721  0.3436 -0.8407
 9520TIP3    H252756   6.045   5.046   1.419 -1.2202  0.5019 -2.0969
 9521TIP3   OH252757   2.686   1.041   9.428 -0.0308  0.0774  0.6733
 9521TIP3    H152758   2.729   1.062   9.511  0.5791 -1.3587  0.7642
 9521TIP3    H252759   2.758   1.038   9.365 -0.2851 -0.2830  0.3969
 9522TIP3   OH252760   2.439   2.737   2.307  0.2361  0.1061  0.5915
 9522TIP3    H152761   2.352   2.739   2.347 -0.4433 -0.3670 -0.7701
 9522TIP3    H252762   2.468   2.828   2.306 -1.2032  0.6052 -0.8613
 9523TIP3   OH252763   0.017   5.696   8.252 -0.4742 -0.0975 -0.3333
 9523TIP3    H152764   0.031   5.790   8.260  0.1283 -0.0767 -1.4349
 9523TIP3    H252765   0.066   5.658   8.325 -1.5278  0.4784  0.7110
 9524TIP3   OH252766   3.097   4.141   0.424  0.5919 -0.1583  0.4335
 9524TIP3    H152767   3.052   4.226   0.429 -0.4287 -0.6710  0.2196
 9524TIP3    H252768   3.038   4.086   0.373  1.2430 -1.0050  0.5810
 9525TIP3   OH252769   3.916   4.432   8.992  0.5131  0.3540 -0.7512
 9525TIP3    H152770   3.980   4.486   8.945 -1.3036  1.6588 -1.8399
 9525TIP3    H252771   3.837   4.486   8.997 -0.0070 -0.4954  2.1728
 9526TIP3   OH252772   5.867   2.432   0.288  0.4216 -0.1965 -0.5727
 9526TIP3    H152773   5.924   2.508   0.298  0.1762 -0.0461 -0.2769
 9526TIP3    H252774   5.807   2.457   0.217  0.0943  0.0443 -0.2149
 9527TIP3   OH252775   0.471   5.960   0.434  0.5280 -0.7762 -0.3512
 9527TIP3    H152776   0.419   5.948   0.355  1.4083  1.7614 -1.4058
 9527TIP3    H252777   0.406   5.966   0.504 -0.7953  2.6423 -1.6643
 9528TIP3   OH252778   3.999   7.277   6.732  0.4153  0.2910 -0.3944
 9528TIP3    H152779   3.965   7.187   6.737  0.8856  0.1799  1.1980
 9528TIP3    H252780   3.921   7.332   6.732  0.0636 -0.1095 -2.5827
 9529TIP3   OH252781   4.051   4.401   0.025  0.0471 -0.7705 -0.0598
 9529TIP3    H152782   4.118   4.375   0.088  0.1112  0.0730  0.2325
 9529TIP3    H252783   4.070   4.350  -0.053  0.3076 -1.4148  0.4188
 9530TIP3   OH252784   4.907   6.179   8.705  0.3705  0.4432 -0.3903
 9530TIP3    H152785   4.882   6.270   8.688 -1.1283 -0.0608 -1.0536
 9530TIP3    H252786   4.871   6.130   8.632  1.2091 -0.7007 -0.0737
 9531TIP3   OH252787   3.127   1.351   9.544  0.3564  0.3755 -0.1797
 9531TIP3    H152788   3.114   1.373   9.636  0.0555 -2.3258  0.5338
 9531TIP3    H252789   3.084   1.421   9.495  0.4867  1.8469  1.7027
 9532TIP3   OH252790   2.111   0.365   1.388  0.1925  0.3678  0.0957
 9532TIP3    H152791   2.152   0.439   1.344 -3.0443  1.6375 -1.0748
 9532TIP3    H252792   2.102   0.394   1.479 -0.6866  1.3476 -0.2714
 9533TIP3   OH252793   0.923   2.416   8.817  0.2681  0.6524  0.4055
 9533TIP3    H152794   0.928   2.402   8.912  1.0381  1.0927  0.4422
 9533TIP3    H252795   0.998   2.367   8.782 -0.4248 -0.0923 -0.0557
 9534TIP3   OH252796   7.343   3.021   0.509 -0.2718 -0.1125 -0.2055
 9534TIP3    H152797   7.405   2.995   0.441  0.4204 -0.3291  0.5092
 9534TIP3    H252798   7.354   3.116   0.517 -0.3818 -0.0803 -0.4078
 9535TIP3   OH252799   4.060   5.236   7.864  0.1874 -0.4142 -0.2732
 9535TIP3    H152800   4.048   5.284   7.946 -0.2584 -1.4588  0.2922
 9535TIP3    H252801   4.113   5.295   7.810 -1.3499  1.2241 -0.0691
 9536TIP3   OH252802   4.322   1.064   1.528  0.5378  0.3244 -0.4943
 9536TIP3    H152803   4.372   0.992   1.490  0.3906 -1.2696  2.0785
 9536TIP3    H252804   4.358   1.074   1.616 -2.6927  0.0204  1.0065
 9537TIP3   OH252805   2.674   3.166   9.507  0.1812 -0.3344 -0.6817
 9537TIP3    H152806   2.762   3.197   9.527 -0.0244  0.1554 -0.5035
 9537TIP3    H252807   2.684   3.072   9.491  0.4464 -0.7132  1.3559
 9538TIP3   OH252808   6.277   7.679   9.599 -0.4529 -0.4164 -0.0827
 9538TIP3    H152809   6.234   7.731   9.666  0.4310  0.0858  0.1000
 9538TIP3    H252810   6.255   7.722   9.517 -1.2351 -0.8243 -0.0973
 9539TIP3   OH252811   2.719   5.716   7.254 -0.0493  0.1237 -0.4025
 9539TIP3    H152812   2.787   5.747   7.315 -0.1848  0.6192 -0.5019
 9539TIP3    H252813   2.637   5.727   7.303  0.0177 -1.4745  0.1263
 9540TIP3   OH252814   6.197   4.368   2.170  0.6273  0.9341 -0.2811
 9540TIP3    H152815   6.189   4.344   2.078 -1.0266 -1.2159  0.3483
 9540TIP3    H252816   6.289   4.390   2.181  1.1044  0.1042 -2.2013
 9541TIP3   OH252817   7.018   2.393   1.732  0.1160 -0.0219 -0.0676
 9541TIP3    H152818   6.998   2.405   1.824 -2.0587  2.8858 -0.7652
 9541TIP3    H252819   6.996   2.301   1.714  1.6278 -0.9724  2.4171
 9542TIP3   OH252820   1.026   6.474   0.188 -0.1339  0.8404  0.1985
 9542TIP3    H152821   1.065   6.548   0.236 -0.8370  0.5861  1.1988
 9542TIP3    H252822   0.946   6.455   0.236 -0.8324  0.5210 -1.0685
 9543TIP3   OH252823   5.657   5.631   2.070  0.0408  0.1144  0.2036
 9543TIP3    H152824   5.625   5.644   2.160 -0.5925 -2.1561  0.3689
 9543TIP3    H252825   5.748   5.605   2.081  0.5001  1.5859  0.0454
 9544TIP3   OH252826   7.026   7.275   1.092  0.1818  0.0001 -0.2451
 9544TIP3    H152827   7.067   7.229   1.165 -1.1142  0.1791  0.6291
 9544TIP3    H252828   6.950   7.221   1.070  0.5563 -0.0569 -1.4920
 9545TIP3   OH252829   7.665   1.238   8.535 -0.4332  0.3823 -0.4441
 9545TIP3    H152830   7.658   1.304   8.604 -1.3327  1.5219 -1.5672
 9545TIP3    H252831   7.734   1.271   8.478 -0.5004  0.0609 -0.7144
 9546TIP3   OH252832   3.732   7.084   0.036 -0.5210 -0.3581 -0.0760
 9546TIP3    H152833   3.810   7.029   0.034 -0.1105  0.2410 -0.6697
 9546TIP3    H252834   3.764   7.171   0.059 -1.0028 -0.0943 -0.3972
 9547TIP3   OH252835   5.961   6.822   8.926 -0.0690  0.2455  0.2046
 9547TIP3    H152836   5.898   6.758   8.960 -0.1287 -0.1288 -0.5848
 9547TIP3    H252837   5.962   6.892   8.991  1.2656 -1.3104  1.9680
 9548TIP3   OH252838   0.561   0.404   1.174  0.4681 -0.0708  0.1784
 9548TIP3    H152839   0.467   0.419   1.169  0.5174  0.0320 -0.7061
 9548TIP3    H252840   0.579   0.391   1.267 -0.5657 -1.0793  0.2597
 9549TIP3   OH252841   0.562   5.244   0.177 -0.3215  0.1240 -0.3584
 9549TIP3    H152842   0.485   5.276   0.224  0.0301  2.0916 -1.0235
 9549TIP3    H252843   0.548   5.271   0.086  0.0567 -1.6381 -0.9821
 9550TIP3   OH252844   6.630   4.711   9.780 -0.5300 -0.5165 -0.0111
 9550TIP3    H152845   6.637   4.713   9.875 -1.3101 -2.7024  0.1472
 9550TIP3    H252846   6.704   4.764   9.749  0.6965 -1.0999  1.7942
 9551TIP3   OH252847   2.647   4.853   8.250 -0.8312  0.0207 -0.5730
 9551TIP3    H152848   2.737   4.850   8.282 -0.3799 -0.9616 -1.8559
 9551TIP3    H252849   2.595   4.879   8.326  0.6249  1.4627 -0.0187
 9552TIP3   OH252850   5.646   6.149   9.848  0.0124 -0.3030 -0.2878
 9552TIP3    H152851   5.651   6.163   9.753  1.3928  1.0337 -0.0664
 9552TIP3    H252852   5.570   6.198   9.876  0.3369  0.3600 -0.5526
 9553TIP3   OH252853   7.112   5.819   9.143  0.1852  0.9158 -0.4713
 9553TIP3    H152854   7.018   5.836   9.133  0.0453  0.5190  0.1230
 9553TIP3    H252855   7.154   5.896   9.106 -0.4108  1.8020  0.6193
 9554TIP3   OH252856   7.015   3.733   1.569  0.3112  0.0139 -0.2497
 9554TIP3    H152857   7.105   3.743   1.602  0.1119 -0.7201  0.5683
 9554TIP3    H252858   6.993   3.819   1.534  0.6001  0.8264  1.4573
 9555TIP3   OH252859   1.817   5.217   7.408  0.0057 -0.0103 -1.3648
 9555TIP3    H152860   1.820   5.304   7.368 -0.9164  0.5025 -0.3589
 9555TIP3    H252861   1.734   5.180   7.378 -0.0286 -0.1856 -1.0519
 9556TIP3   OH252862   0.054   6.061   9.495 -0.0895  0.4325  0.0993
 9556TIP3    H152863  -0.021   6.059   9.554  0.6596 -0.4038  1.0844
 9556TIP3    H252864   0.109   6.132   9.528 -0.5598  1.2154 -0.7792
 9557TIP3   OH252865   4.660   7.174   0.073 -0.1652  0.7788 -0.1563
 9557TIP3    H152866   4.735   7.116   0.087 -1.3530 -0.6610  0.3792
 9557TIP3    H252867   4.695   7.243   0.016  1.0683 -0.9433 -1.6249
 9558TIP3   OH252868   0.941   4.541   2.670 -0.0090 -0.1457 -0.2569
 9558TIP3    H152869   1.014   4.579   2.620 -0.6374 -0.2240 -1.2593
 9558TIP3    H252870   0.873   4.608   2.667 -0.8072 -0.9569 -1.2978
 9559TIP3   OH252871   4.014   1.742   0.443  0.2588  0.4984  0.5299
 9559TIP3    H152872   4.090   1.684   0.441  0.6055  0.9535 -0.1152
 9559TIP3    H252873   4.013   1.783   0.357 -0.6634  0.5840  0.5706
 9560TIP3   OH252874   3.690   4.212   8.645 -0.3918 -0.1673  0.5903
 9560TIP3    H152875   3.641   4.151   8.700 -0.1063  0.5130  1.6274
 9560TIP3    H252876   3.624   4.258   8.595 -0.6304 -1.0906  0.0262
 9561TIP3   OH252877   3.872   5.837   2.615  0.0236 -0.1232 -0.0742
 9561TIP3    H152878   3.801   5.774   2.618  0.6843 -0.9464 -1.1065
 9561TIP3    H252879   3.850   5.902   2.682 -0.7153 -1.3828  0.9325
 9562TIP3   OH252880   1.947   1.444   0.758  0.0939  0.6607 -0.0962
 9562TIP3    H152881   1.942   1.462   0.852 -0.7292  0.6929 -0.1378
 9562TIP3    H252882   1.855   1.438   0.730  0.2932 -2.0187 -0.4005
 9563TIP3   OH252883   5.587   2.260   7.906  0.3668 -0.0392 -0.1896
 9563TIP3    H152884   5.534   2.258   7.827  0.6359  0.2531 -0.3781
 9563TIP3    H252885   5.544   2.199   7.966 -0.6812  0.8439 -0.0209
 9564TIP3   OH252886   0.022   5.288   2.332  0.0326 -0.4770  0.4392
 9564TIP3    H152887  -0.052   5.333   2.292  0.2690 -1.4091 -1.1465
 9564TIP3    H252888  -0.013   5.202   2.356  0.0739 -0.1703  1.6504
 9565TIP3   OH252889   1.962   1.481   9.486 -0.2200  0.1413  0.2507
 9565TIP3    H152890   1.913   1.429   9.423  1.4757 -0.4438 -0.6534
 9565TIP3    H252891   2.007   1.547   9.432  2.0561 -0.9970  0.6404
 9566TIP3   OH252892   1.122   0.109   2.140 -0.4679 -0.2797  0.6911
 9566TIP3    H152893   1.042   0.102   2.191 -1.3647  0.4814 -0.5404
 9566TIP3    H252894   1.092   0.115   2.049  0.9700  0.3489  0.2203
 9567TIP3   OH252895   2.503   4.979   9.522 -0.1368 -0.2993  0.7832
 9567TIP3    H152896   2.474   4.944   9.438  0.2698  0.9032  0.1250
 9567TIP3    H252897   2.554   4.908   9.561 -1.5824 -1.4141  0.7179
 9568TIP3   OH252898   3.901   0.608   1.344  0.1275  0.4868  0.5759
 9568TIP3    H152899   3.931   0.605   1.253  1.1635 -0.7741  0.9297
 9568TIP3    H252900   3.826   0.666   1.342 -1.3129 -1.2861 -1.5200
 9569TIP3   OH252901   4.103   5.388   8.597  0.3068  0.4012  0.0989
 9569TIP3    H152902   4.075   5.356   8.511 -2.8123  2.0782  0.3391
 9569TIP3    H252903   4.091   5.314   8.656  1.3082 -0.4054 -0.6769
 9570TIP3   OH252904   5.212   1.335   8.766  0.4729  0.1955  0.1406
 9570TIP3    H152905   5.220   1.244   8.735  1.4820  0.7560 -1.3818
 9570TIP3    H252906   5.242   1.332   8.857  0.8978 -0.9333 -0.0181
 9571TIP3   OH252907   2.989   6.744   1.558 -0.2697 -0.0937 -0.3255
 9571TIP3    H152908   2.940   6.761   1.478 -0.8149 -0.6988 -0.1329
 9571TIP3    H252909   2.922   6.731   1.625  0.0318 -3.0820 -0.4804
 9572TIP3   OH252910   4.371   4.981   9.816  0.2169 -0.2922 -0.6838
 9572TIP3    H152911   4.319   4.903   9.799  0.3300 -0.7492  0.8592
 9572TIP3    H252912   4.320   5.053   9.777 -0.4323 -0.9999 -1.1686
 9573TIP3   OH252913   3.472   3.320   3.041 -0.6919  0.2621 -0.0709
 9573TIP3    H152914   3.402   3.308   3.105 -0.5204  0.7569  0.2208
 9573TIP3    H252915   3.551   3.290   3.087 -0.6120  0.3410 -0.1572
 9574TIP3   OH252916   1.914   6.257   7.734  0.3198 -0.6181 -0.4312
 9574TIP3    H152917   1.926   6.182   7.793 -2.3077  0.5821  1.8634
 9574TIP3    H252918   1.843   6.230   7.676 -1.2811  0.3168  1.0064
 9575TIP3   OH252919   6.719   6.747   7.533 -0.0023 -0.4163  0.2558
 9575TIP3    H152920   6.670   6.676   7.574  0.9324 -1.6682 -0.7053
 9575TIP3    H252921   6.805   6.710   7.517  0.0989  0.4809 -1.4936
 9576TIP3   OH252922   0.629   6.731   9.579  0.0391  0.6109  0.0289
 9576TIP3    H152923   0.646   6.708   9.488 -1.2487  2.8315 -0.8637
 9576TIP3    H252924   0.692   6.800   9.599  0.3030  0.1506  0.8308
 9577TIP3   OH252925   1.544   5.740   8.873 -0.4598 -0.4105 -0.0759
 9577TIP3    H152926   1.464   5.706   8.832 -0.8619  1.5739 -1.1041
 9577TIP3    H252927   1.587   5.789   8.803  0.9842 -0.3327  0.8324
 9578TIP3   OH252928   2.168   4.757   9.392  0.3147  0.4917  0.2069
 9578TIP3    H152929   2.101   4.702   9.354  0.8457 -0.7110  0.9388
 9578TIP3    H252930   2.247   4.703   9.390  0.3337  0.2286  3.1465
 9579TIP3   OH252931   3.924   3.686   1.842  0.4119 -0.0039 -0.0551
 9579TIP3    H152932   3.903   3.722   1.928  0.8514  3.3646 -1.1756
 9579TIP3    H252933   3.843   3.644   1.813 -0.5235  0.9496  1.0638
 9580TIP3   OH252934   5.697   0.024   1.886  0.5262  0.7497 -0.1903
 9580TIP3    H152935   5.679   0.028   1.980  0.1058  1.1820 -0.2876
 9580TIP3    H252936   5.727   0.112   1.863 -1.2917  1.2356 -0.8410
 9581TIP3   OH252937   3.319   6.134   9.847  0.6695 -0.0632  0.0846
 9581TIP3    H152938   3.287   6.063   9.792 -1.0757  0.4973  0.3187
 9581TIP3    H252939   3.242   6.163   9.896  1.6663  1.0202  1.0732
 9582TIP3   OH252940   2.237   0.246   2.185 -0.4602  0.2555 -0.1052
 9582TIP3    H152941   2.306   0.218   2.125  0.3343  0.2091  0.8023
 9582TIP3    H252942   2.242   0.342   2.184  0.0798  0.2429  0.4572
 9583TIP3   OH252943   4.832   1.776   0.303  0.0928  0.2804  0.3372
 9583TIP3    H152944   4.859   1.857   0.260 -0.8463  0.5751  0.2657
 9583TIP3    H252945   4.909   1.719   0.298  0.1094  0.3851 -1.5240
 9584TIP3   OH252946   3.410   4.538   0.825 -0.5419 -0.4623  0.1966
 9584TIP3    H152947   3.372   4.608   0.772 -0.7943 -2.3580 -2.2975
 9584TIP3    H252948   3.335   4.489   0.858 -0.3671 -1.2882 -0.5924
 9585TIP3   OH252949   3.786   6.857   8.562 -0.2200  0.2176  0.4787
 9585TIP3    H152950   3.744   6.943   8.566 -0.1341  0.2646  0.3488
 9585TIP3    H252951   3.746   6.808   8.634 -1.9157 -0.3714 -0.8047
 9586TIP3   OH252952   0.339   1.223   8.936  0.1862  0.1705  0.0450
 9586TIP3    H152953   0.409   1.185   8.884  1.0199 -0.6577  1.7138
 9586TIP3    H252954   0.270   1.157   8.936  0.8270 -0.5238  1.2749
 9587TIP3   OH252955   5.097   0.990   7.645  0.0285  0.4843  0.3327
 9587TIP3    H152956   5.116   0.970   7.554 -1.1468 -0.5826  0.2802
 9587TIP3    H252957   5.082   0.904   7.686 -1.1319  1.0279  1.1139
 9588TIP3   OH252958   2.226   0.211   3.305 -0.2095  0.1419  0.1733
 9588TIP3    H152959   2.211   0.222   3.398 -0.1825 -0.4988  0.2579
 9588TIP3    H252960   2.321   0.208   3.296 -0.0845  2.9436 -0.2146
 9589TIP3   OH252961   2.072   0.551   3.498 -0.6606  0.4843  0.2188
 9589TIP3    H152962   1.992   0.518   3.457  0.6557 -0.4788 -1.7257
 9589TIP3    H252963   2.104   0.618   3.438  0.9974 -0.5272 -0.0854
 9590TIP3   OH252964   4.998   4.241   8.644 -0.3475  0.5371  0.4978
 9590TIP3    H152965   4.933   4.261   8.711  0.5271  0.0798  1.5147
 9590TIP3    H252966   5.078   4.284   8.675  0.5155 -1.1139  0.6456
 9591TIP3   OH252967   5.773   1.304   1.687 -0.5257 -0.2150  0.2873
 9591TIP3    H152968   5.680   1.314   1.667 -0.9486 -1.8935  1.2145
 9591TIP3    H252969   5.776   1.242   1.760  1.2350  1.2534  1.5928
 9592TIP3   OH252970   6.971   2.551   9.535 -0.0032 -0.4215  0.1399
 9592TIP3    H152971   7.011   2.569   9.620  0.0815 -2.5326  0.6034
 9592TIP3    H252972   7.013   2.470   9.506 -0.2361  0.0930 -1.8108
 9593TIP3   OH252973   1.427   7.381   6.893  0.3827 -0.1582 -0.2126
 9593TIP3    H152974   1.492   7.438   6.854  1.0661 -0.3214  0.6487
 9593TIP3    H252975   1.351   7.437   6.908  1.1375  0.6116  0.8680
 9594TIP3   OH252976   0.371   6.228   1.030  0.0857 -0.2602  0.4449
 9594TIP3    H152977   0.376   6.207   0.936  0.0599  2.2322 -0.1857
 9594TIP3    H252978   0.278   6.216   1.052 -0.2740  0.9126 -0.3435
 9595TIP3   OH252979   7.296   3.557   9.838 -0.5785 -0.7246 -0.5490
 9595TIP3    H152980   7.216   3.513   9.808 -1.6256 -0.0394  1.1472
 9595TIP3    H252981   7.312   3.521   9.925 -0.6685  1.2088  0.3020
 9596TIP3   OH252982   2.097   5.501   7.830 -0.2897 -0.3408 -0.3674
 9596TIP3    H152983   2.001   5.503   7.829 -0.2824  1.4601 -0.2968
 9596TIP3    H252984   2.121   5.546   7.911  0.6100  1.8097 -1.7555
 9597TIP3   OH252985   3.515   4.507   0.044 -0.1577  0.7514 -0.0735
 9597TIP3    H152986   3.577   4.440   0.013 -2.5311 -2.5539  1.6466
 9597TIP3    H252987   3.570   4.576   0.081  2.4998 -1.1009 -0.2986
 9598TIP3   OH252988   3.392   4.200   7.351 -0.6039 -0.2408  0.2340
 9598TIP3    H152989   3.394   4.107   7.374  1.0505 -0.5046 -0.7648
 9598TIP3    H252990   3.468   4.212   7.294 -1.6145  1.4182 -0.8673
 9599TIP3   OH252991   0.280   6.268   2.310 -0.4388 -0.1133 -0.5163
 9599TIP3    H152992   0.248   6.351   2.346 -1.1433 -1.0501  1.1357
 9599TIP3    H252993   0.337   6.294   2.238 -0.4680  1.8180  0.0888
 9600TIP3   OH252994   7.017   0.158   1.851 -0.0446 -0.4648 -0.8723
 9600TIP3    H152995   7.085   0.124   1.793  1.9299  1.0387  0.4552
 9600TIP3    H252996   7.063   0.184   1.930 -2.1698  0.6758  0.0777
 9601TIP3   OH252997   4.080   0.208   8.450 -0.1074  0.3484  0.8085
 9601TIP3    H152998   4.134   0.130   8.437 -1.2726 -0.5277  1.0296
 9601TIP3    H252999   4.096   0.262   8.373  1.0153  0.0810  0.8392
 9602TIP3   OH253000   2.334   5.388   7.721 -0.5393  0.1209  0.3331
 9602TIP3    H153001   2.255   5.421   7.763 -0.9238 -0.0172 -0.2622
 9602TIP3    H253002   2.304   5.311   7.672  0.3776 -1.2670  1.8851
 9603TIP3   OH253003   7.301   7.224   0.597  0.2725 -0.0927 -0.2514
 9603TIP3    H153004   7.219   7.230   0.647  0.0756 -0.5860 -0.5102
 9603TIP3    H253005   7.355   7.295   0.631 -0.7027  0.9853 -0.8817
 9604TIP3   OH253006   7.208   1.580   0.421 -0.0690  0.2367 -0.4226
 9604TIP3    H153007   7.172   1.592   0.509 -2.5662 -1.2330 -1.1515
 9604TIP3    H253008   7.155   1.637   0.365 -0.5628 -1.0976 -1.3749
 9605TIP3   OH253009   5.709   2.885   0.909  1.2531  0.5065 -0.2254
 9605TIP3    H153010   5.766   2.909   0.835  0.1179  1.1264 -0.9145
 9605TIP3    H253011   5.734   2.945   0.979  1.4405  0.7762 -0.5198
 9606TIP3   OH253012   5.459   5.151   8.965  0.3073  0.0593  0.2486
 9606TIP3    H153013   5.470   5.200   9.047 -0.5252  2.5640 -1.0427
 9606TIP3    H253014   5.548   5.128   8.938  0.9036  2.3980  0.0668
 9607TIP3   OH253015   0.034   2.753   8.467  0.0015 -0.8181 -0.1789
 9607TIP3    H153016   0.012   2.791   8.382  1.7204  0.3663 -0.1478
 9607TIP3    H253017  -0.023   2.799   8.529  1.0054  0.6752 -0.3283
 9608TIP3   OH253018   3.139   1.615   7.502 -0.1741  0.1000  0.2973
 9608TIP3    H153019   3.199   1.672   7.453  0.8667 -1.0137  0.2280
 9608TIP3    H253020   3.137   1.534   7.452 -1.0192 -0.2062  0.8082
 9609TIP3   OH253021   1.406   2.186   1.015 -0.3628  0.1106 -0.0682
 9609TIP3    H153022   1.319   2.224   1.005 -1.3035 -1.5505  1.3085
 9609TIP3    H253023   1.429   2.156   0.927 -0.5416  1.7947 -0.7199
 9610TIP3   OH253024   1.809   5.436   8.545 -0.1038  0.3267 -0.4547
 9610TIP3    H153025   1.786   5.462   8.456  0.5165  0.8401 -0.4749
 9610TIP3    H253026   1.901   5.409   8.538 -0.1388  0.0937 -0.0248
 9611TIP3   OH253027   6.851   0.308   1.678 -0.2237 -0.1511  0.3339
 9611TIP3    H153028   6.846   0.253   1.600 -0.3279 -0.2099  0.3812
 9611TIP3    H253029   6.916   0.265   1.734  1.0259  0.7414 -0.3837
 9612TIP3   OH253030   4.372   0.674   0.960 -0.4610 -0.1659 -0.1261
 9612TIP3    H153031   4.336   0.598   0.915  0.0506 -2.7181  3.3689
 9612TIP3    H253032   4.461   0.682   0.926 -1.4305  0.8439 -2.6478
 9613TIP3   OH253033   6.647   2.178   9.115  0.4416  0.4559 -0.0633
 9613TIP3    H153034   6.734   2.165   9.076  0.4481 -1.0567  0.4251
 9613TIP3    H253035   6.610   2.091   9.121 -0.5352  0.9259  1.0966
 9614TIP3   OH253036   4.337   5.745   1.065  0.2939 -0.2940  0.1564
 9614TIP3    H153037   4.417   5.711   1.105 -1.2549 -2.0622  2.0116
 9614TIP3    H253038   4.275   5.752   1.138 -1.7063 -0.4725 -1.4393
 9615TIP3   OH253039   2.780   3.491   6.759  0.3825  0.8795  0.4700
 9615TIP3    H153040   2.746   3.510   6.672 -1.6198 -0.9761  0.7628
 9615TIP3    H253041   2.753   3.565   6.813 -0.1014  1.1080 -0.0825
 9616TIP3   OH253042   1.000   3.152   1.092  0.2830  0.4518  0.6891
 9616TIP3    H153043   1.037   3.087   1.152  0.9689 -0.9982 -1.2194
 9616TIP3    H253044   1.075   3.185   1.043 -0.5653 -0.5797 -1.4110
 9617TIP3   OH253045   5.830   1.603   1.047  0.1120  0.3152  0.3321
 9617TIP3    H153046   5.808   1.652   0.968  0.4481 -1.6077 -1.0010
 9617TIP3    H253047   5.911   1.644   1.078 -0.2556  1.3646 -0.0270
 9618TIP3   OH253048   1.247   0.806   9.969 -0.0506  0.3066  0.5516
 9618TIP3    H153049   1.247   0.727  10.022  0.5987 -0.9872 -1.2967
 9618TIP3    H253050   1.205   0.780   9.887  0.5343  1.7634 -0.2473
 9619TIP3   OH253051   4.691   3.304   8.789  0.5376 -0.0866 -0.0483
 9619TIP3    H153052   4.611   3.294   8.736  0.2498 -1.9717  0.6656
 9619TIP3    H253053   4.693   3.226   8.843  0.9303  1.6534  2.6205
 9620TIP3   OH253054   4.090   3.559   8.805 -0.2145  0.2603  0.2818
 9620TIP3    H153055   4.077   3.591   8.716 -0.1997 -0.9447 -0.1638
 9620TIP3    H253056   4.002   3.550   8.841 -0.4336 -2.0922 -0.6615
 9621TIP3   OH253057   3.360   2.960   7.748 -0.1399 -0.3732 -0.5124
 9621TIP3    H153058   3.383   3.017   7.822 -0.4281  1.9026 -2.0701
 9621TIP3    H253059   3.435   2.903   7.737  0.6208  0.3961  0.4931
 9622TIP3   OH253060   4.385   3.861   0.271  0.7485 -0.1962  0.5127
 9622TIP3    H153061   4.397   3.819   0.186  0.0357 -0.0996  0.3555
 9622TIP3    H253062   4.407   3.953   0.256 -4.0921  1.0275 -0.9368
 9623TIP3   OH253063   1.201   3.291   7.082 -0.4226  0.4044  0.1452
 9623TIP3    H153064   1.289   3.254   7.083  0.1723  1.6456 -1.6751
 9623TIP3    H253065   1.160   3.258   7.163  1.1553 -1.4544  0.2587
 9624TIP3   OH253066   4.617   4.967   9.376 -0.4571 -0.1494  0.1287
 9624TIP3    H153067   4.691   4.922   9.416 -0.8494 -1.3296 -0.4407
 9624TIP3    H253068   4.542   4.945   9.431 -0.3659  1.2450  0.8471
 9625TIP3   OH253069   2.842   7.375   0.800  0.1163  0.3882  0.4919
 9625TIP3    H153070   2.763   7.384   0.853  0.5232 -0.4096  1.2685
 9625TIP3    H253071   2.894   7.453   0.821 -0.2156  0.6365  0.4004
 9626TIP3   OH253072   2.943   7.118   0.751  0.3317  0.0135  0.5614
 9626TIP3    H153073   2.897   7.082   0.675 -0.4022  1.0502  0.5121
 9626TIP3    H253074   2.898   7.199   0.771  0.7843 -0.0417  1.8640
 9627TIP3   OH253075   4.411   7.550   1.356 -0.2880 -0.2010 -0.4968
 9627TIP3    H153076   4.401   7.485   1.286 -1.1069 -0.4605 -0.1512
 9627TIP3    H253077   4.503   7.576   1.352 -0.5459  0.6061 -2.3838
 9628TIP3   OH253078   0.178   0.360   1.913 -0.1326  0.1876  0.3951
 9628TIP3    H153079   0.220   0.318   1.988  0.5411  1.6902  0.9045
 9628TIP3    H253080   0.199   0.303   1.839  0.5332 -0.5032  1.0904
 9629TIP3   OH253081   2.358   4.493   2.233  0.3495 -0.0879 -0.5987
 9629TIP3    H153082   2.388   4.569   2.283 -0.3660  0.2820 -0.7266
 9629TIP3    H253083   2.309   4.441   2.296 -0.9675  0.6191 -1.0059
 9630TIP3   OH253084   1.152   2.230   8.437 -0.6700  0.1421  0.3542
 9630TIP3    H153085   1.169   2.321   8.461  1.0622 -0.2660  0.8183
 9630TIP3    H253086   1.233   2.201   8.395 -1.9444 -0.5951 -1.7429
 9631TIP3   OH253087   2.213   1.343   8.085  0.4270 -0.0347 -0.0095
 9631TIP3    H153088   2.158   1.267   8.104  1.2760 -0.2874  1.6710
 9631TIP3    H253089   2.245   1.328   7.996 -0.5599 -0.9100 -0.2398
 9632TIP3   OH253090   0.672   0.613   6.957 -0.0599  0.6059  0.0536
 9632TIP3    H153091   0.716   0.689   6.994 -0.1066 -0.3019  2.1262
 9632TIP3    H253092   0.740   0.546   6.953 -0.6162 -0.0206  0.7895
 9633TIP3   OH253093   7.136   7.101   8.858  0.0018 -0.2275  0.0683
 9633TIP3    H153094   7.048   7.064   8.858  0.0578 -0.7042  3.3956
 9633TIP3    H253095   7.122   7.196   8.864 -0.3596 -0.3305  1.1899
 9634TIP3   OH253096   5.617   1.869   8.811  0.3801 -0.0703  0.1105
 9634TIP3    H153097   5.640   1.898   8.899 -0.4616  0.5228  0.1549
 9634TIP3    H253098   5.699   1.873   8.761  1.1039 -1.5229  1.1410
 9635TIP3   OH253099   4.421   3.423   0.263 -0.3396 -0.2860  0.3644
 9635TIP3    H153100   4.472   3.352   0.225  0.1957  0.4055 -0.2300
 9635TIP3    H253101   4.365   3.453   0.192  0.1000  0.4900  0.3322
 9636TIP3   OH253102   6.693   6.707   9.171  0.1412 -0.3999 -0.4140
 9636TIP3    H153103   6.759   6.749   9.227 -1.8157  1.9575  0.2834
 9636TIP3    H253104   6.624   6.680   9.231 -0.6112 -0.6561 -1.3778
 9637TIP3   OH253105   2.099   3.232   8.014  0.0409 -0.4235  0.5742
 9637TIP3    H153106   2.059   3.284   7.945 -0.3206  0.1312  1.1898
 9637TIP3    H253107   2.093   3.142   7.982 -1.7864 -0.3850  0.6624
 9638TIP3   OH253108   3.294   6.448   8.585  0.2514 -0.1911  0.5876
 9638TIP3    H153109   3.351   6.452   8.661  0.6598 -0.8397  0.3252
 9638TIP3    H253110   3.353   6.443   8.510 -0.1211  2.0210  0.0855
 9639TIP3   OH253111   3.370   4.012   7.669 -0.4799 -0.3292  0.1083
 9639TIP3    H153112   3.443   3.950   7.674  0.1279  0.2351 -1.3073
 9639TIP3    H253113   3.294   3.957   7.649  0.1571 -0.6052 -1.7409
 9640TIP3   OH253114   7.138   1.011   8.119  0.1361 -0.1833 -0.1779
 9640TIP3    H153115   7.220   1.054   8.092  0.1773  0.5088  0.9978
 9640TIP3    H253116   7.100   1.071   8.184 -0.8786 -0.9123 -0.0894
 9641TIP3   OH253117   5.190   6.643   7.933  0.2053  0.0857  0.9644
 9641TIP3    H153118   5.159   6.633   8.023 -0.2296  0.8347  0.9052
 9641TIP3    H253119   5.132   6.587   7.881  0.2788 -0.1283  1.1098
 9642TIP3   OH253120   4.292   5.691   8.259  0.4890  0.3502 -0.7010
 9642TIP3    H153121   4.378   5.679   8.218  0.8881  0.8292 -0.0354
 9642TIP3    H253122   4.296   5.636   8.338 -0.5406 -1.1579 -1.6486
 9643TIP3   OH253123   5.436   7.573   8.382 -0.1048 -0.1970  0.1695
 9643TIP3    H153124   5.419   7.619   8.299  0.3231 -0.5775 -0.1396
 9643TIP3    H253125   5.487   7.635   8.434 -1.6475  0.6218  0.7635
 9644TIP3   OH253126   6.310   1.035   1.572  0.5461  0.3820  0.2471
 9644TIP3    H153127   6.312   1.058   1.665  0.9883  3.4003 -0.4015
 9644TIP3    H253128   6.383   1.084   1.534 -0.0584 -0.2179 -1.8199
 9645TIP3   OH253129   2.491   3.917   8.777  0.4906  0.4346  0.0569
 9645TIP3    H153130   2.554   3.889   8.843 -0.6544 -0.1413  0.9486
 9645TIP3    H253131   2.544   3.939   8.701  1.8065  0.6031  0.9897
 9646TIP3   OH253132   3.505   2.885   7.351 -0.6193 -0.1762  0.5236
 9646TIP3    H153133   3.592   2.898   7.388 -0.4827  1.0303 -0.1572
 9646TIP3    H253134   3.521   2.835   7.271 -0.3151  1.5496 -0.5393
 9647TIP3   OH253135   0.808   2.081   9.755  0.6314 -0.7557  0.1869
 9647TIP3    H153136   0.781   2.018   9.689  1.5251 -1.3553  0.3824
 9647TIP3    H253137   0.896   2.054   9.781 -0.4987 -1.9511  3.2955
 9648TIP3   OH253138   1.369   3.476   6.672  0.1808  0.3185  0.3546
 9648TIP3    H153139   1.368   3.567   6.644 -0.3855  0.5276  1.0194
 9648TIP3    H253140   1.317   3.475   6.753 -0.2407 -0.6730  0.0945
 9649TIP3   OH253141   5.135   5.910   7.798 -0.5369 -0.0252 -0.0949
 9649TIP3    H153142   5.229   5.898   7.790 -0.0484  2.2232  1.3239
 9649TIP3    H253143   5.108   5.945   7.713 -0.0046 -0.2120 -0.3392
 9650TIP3   OH253144   3.181   0.841   1.586 -0.2675  0.2164 -0.4314
 9650TIP3    H153145   3.245   0.901   1.626  0.4755  0.0236 -1.3119
 9650TIP3    H253146   3.185   0.861   1.493 -1.6036  0.2876 -0.4885
 9651TIP3   OH253147   7.511   5.687   7.880  0.6003  0.1824  0.4437
 9651TIP3    H153148   7.591   5.683   7.933  1.6074 -0.7255 -1.0875
 9651TIP3    H253149   7.541   5.709   7.792 -0.8960  0.3283 -0.0614
 9652TIP3   OH253150   5.751   5.864   8.168 -0.1362 -0.2941 -0.2192
 9652TIP3    H153151   5.843   5.843   8.179 -0.4361 -0.8504  1.5646
 9652TIP3    H253152   5.715   5.861   8.257 -1.8634 -0.0717 -0.8744
 9653TIP3   OH253153   6.467   4.297   8.231 -0.1380  0.4932 -0.2249
 9653TIP3    H153154   6.539   4.300   8.168  0.9299  1.0349  0.9880
 9653TIP3    H253155   6.406   4.232   8.195  1.9265 -1.5362 -0.2521
 9654TIP3   OH253156   2.990   0.697   8.288 -0.5614  0.1711 -0.3077
 9654TIP3    H153157   2.970   0.617   8.240  1.4160 -0.4423 -0.2017
 9654TIP3    H253158   2.938   0.765   8.244 -1.7968 -1.0322 -0.7936
 9655TIP3   OH253159   6.810   5.779   9.116  0.3490  0.0549  0.3492
 9655TIP3    H153160   6.721   5.784   9.151  0.3234 -0.2172  0.3256
 9655TIP3    H253161   6.860   5.731   9.182  0.6259  0.7234  0.6407
 9656TIP3   OH253162   3.833   6.851   1.692 -1.0361 -0.4548  0.6505
 9656TIP3    H153163   3.896   6.803   1.638  0.7877  3.1481 -0.7765
 9656TIP3    H253164   3.843   6.812   1.780  2.0064 -1.1498  0.1233
 9657TIP3   OH253165   5.040   5.262   1.592 -0.0610  0.1735 -0.0083
 9657TIP3    H153166   5.069   5.232   1.506 -1.5183 -0.5227 -0.2849
 9657TIP3    H253167   4.965   5.319   1.574 -0.7943 -0.5036  0.8314
 9658TIP3   OH253168   3.769   0.521   7.423  0.3191  0.2325 -0.0094
 9658TIP3    H153169   3.837   0.522   7.355  1.6807  1.8740  1.2715
 9658TIP3    H253170   3.772   0.432   7.458  0.6332 -0.2022 -1.0983
 9659TIP3   OH253171   2.832   2.785   7.784 -0.2481 -0.5603 -0.1663
 9659TIP3    H153172   2.799   2.800   7.695 -0.5747  0.1992  0.0766
 9659TIP3    H253173   2.915   2.739   7.771  0.1681  0.3625 -0.9071
 9660TIP3   OH253174   1.549   0.550   2.316  0.4511 -0.2406  0.4155
 9660TIP3    H153175   1.559   0.585   2.228  0.2792 -0.5681  0.2626
 9660TIP3    H253176   1.526   0.625   2.370 -2.2372 -0.4371 -0.3043
 9661TIP3   OH253177   4.801   5.577   9.903  0.3439  0.2753 -0.6180
 9661TIP3    H153178   4.801   5.649   9.840  0.7036 -0.2820 -1.2711
 9661TIP3    H253179   4.785   5.499   9.850 -0.4393 -0.0937  0.1302
 9662TIP3   OH253180   0.521   5.188   8.924  0.3025  0.2425  0.4522
 9662TIP3    H153181   0.600   5.165   8.973  0.1838 -0.6593  0.2339
 9662TIP3    H253182   0.540   5.273   8.886 -0.1280  1.6873  3.2435
 9663TIP3   OH253183   4.615   2.666   1.574  0.2719  0.4748  0.3219
 9663TIP3    H153184   4.665   2.707   1.645  2.6285 -0.3590 -0.7567
 9663TIP3    H253185   4.615   2.573   1.596 -0.4495  0.4068  0.0627
 9664TIP3   OH253186   4.173   3.830   1.816 -0.5641  0.1105  0.1492
 9664TIP3    H153187   4.096   3.773   1.825 -1.3183  1.0042 -0.4190
 9664TIP3    H253188   4.236   3.795   1.878 -1.6408 -0.3067  1.0450
 9665TIP3   OH253189   0.008   6.654   1.322  0.2871 -0.0068 -0.1524
 9665TIP3    H153190  -0.032   6.734   1.288  0.0521 -0.5959 -1.3017
 9665TIP3    H253191  -0.042   6.633   1.400 -0.3003  0.4136 -0.4098
 9666TIP3   OH253192   2.549   0.822   9.457 -0.1407  0.1385 -0.3402
 9666TIP3    H153193   2.593   0.742   9.426  0.4802  0.1169  0.5613
 9666TIP3    H253194   2.598   0.893   9.416 -0.7211  0.0689 -1.1796
 9667TIP3   OH253195   0.278   7.008   7.635 -0.0699 -0.4670 -0.5190
 9667TIP3    H153196   0.201   7.055   7.665  1.1283  1.3112 -0.0624
 9667TIP3    H253197   0.279   7.022   7.540 -0.3858 -0.5927 -0.5386
 9668TIP3   OH253198   1.682   5.581   7.620  0.1364  0.3039 -0.7803
 9668TIP3    H153199   1.634   5.571   7.538 -0.2314 -2.2580 -0.3471
 9668TIP3    H253200   1.618   5.614   7.682  0.2652  1.6756 -1.3501
 9669TIP3   OH253201   0.382   4.990   1.626 -0.2538  0.3868 -0.5276
 9669TIP3    H153202   0.428   5.010   1.707  1.3144 -1.6429 -0.8279
 9669TIP3    H253203   0.391   5.069   1.573  2.7382  0.2131 -0.4468
 9670TIP3   OH253204   5.394   2.152   9.090 -0.1672 -0.6449 -0.4505
 9670TIP3    H153205   5.461   2.085   9.076  0.0008 -0.6585  0.3861
 9670TIP3    H253206   5.312   2.103   9.094 -0.0508 -0.7934  0.1091
 9671TIP3   OH253207   2.578   4.282   9.920  0.5391  0.0264  0.7774
 9671TIP3    H153208   2.502   4.288   9.978  0.2356  2.3384  0.2469
 9671TIP3    H253209   2.563   4.349   9.854  2.1836 -0.7191 -0.4246
 9672TIP3   OH253210   2.222   3.596   9.101  0.5146  0.2658 -0.1362
 9672TIP3    H153211   2.167   3.593   9.179  0.4505  1.5206 -0.1153
 9672TIP3    H253212   2.291   3.532   9.119  0.0961  0.0107  0.6321
 9673TIP3   OH253213   3.131   2.230   0.091 -0.5009 -0.0400 -0.4075
 9673TIP3    H153214   3.062   2.168   0.114 -0.2895 -0.3583 -0.6365
 9673TIP3    H253215   3.091   2.316   0.108 -1.2403 -0.1866 -1.3275
 9674TIP3   OH253216   3.511   5.544   9.128  0.2097 -0.3824 -0.4034
 9674TIP3    H153217   3.562   5.476   9.171 -1.4834 -1.4255  0.0593
 9674TIP3    H253218   3.554   5.558   9.044  0.1137 -2.6757 -0.8948
 9675TIP3   OH253219   6.182   2.803   1.886 -0.4876 -0.3770 -0.0112
 9675TIP3    H153220   6.221   2.889   1.903  0.3657 -0.3020 -2.0199
 9675TIP3    H253221   6.151   2.773   1.971  0.6039  1.2371  1.0070
 9676TIP3   OH253222   5.168   4.246   9.848 -0.2175  0.6828  0.5548
 9676TIP3    H153223   5.205   4.324   9.889  1.9360  0.3262 -0.5474
 9676TIP3    H253224   5.171   4.179   9.916  1.9973  0.4714  0.3318
 9677TIP3   OH253225   0.125   6.596   9.675  0.2826 -0.4617  0.4718
 9677TIP3    H153226   0.096   6.523   9.730 -0.3637 -1.4757 -1.1385
 9677TIP3    H253227   0.204   6.562   9.632  0.6157  0.2130  0.5447
 9678TIP3   OH253228   6.158   5.871   1.551 -0.4758 -0.0988 -0.0199
 9678TIP3    H153229   6.105   5.870   1.631  0.1964 -0.3334  0.4261
 9678TIP3    H253230   6.207   5.789   1.553  0.7497  0.6140  0.1382
 9679TIP3   OH253231   1.788   6.728   0.354 -0.1868  0.4714  0.5739
 9679TIP3    H153232   1.745   6.744   0.438 -2.7747 -2.2549 -0.0471
 9679TIP3    H253233   1.797   6.815   0.315 -1.2663  1.5729  2.6129
 9680TIP3   OH253234   4.408   7.021   7.527 -0.1181 -0.0458  0.2072
 9680TIP3    H153235   4.372   6.946   7.573  0.8889 -0.7345 -0.0816
 9680TIP3    H253236   4.376   7.012   7.437  0.4806 -0.4785  0.0285
 9681TIP3   OH253237   6.632   0.671   2.014  0.2009 -0.1716 -0.2649
 9681TIP3    H153238   6.666   0.665   2.103 -1.0456 -1.8705  0.1466
 9681TIP3    H253239   6.676   0.600   1.967 -0.8594 -0.7565 -0.3898
 9682TIP3   OH253240   1.324   2.193   2.662  0.0836 -0.6900 -0.1141
 9682TIP3    H153241   1.415   2.167   2.652 -0.3754 -1.8846 -1.6505
 9682TIP3    H253242   1.279   2.114   2.690 -0.7279 -0.5801 -1.0277
 9683TIP3   OH253243   1.888   3.571   1.564 -0.1506  0.0285 -0.6369
 9683TIP3    H153244   1.918   3.483   1.541 -3.0459 -0.3084 -4.2020
 9683TIP3    H253245   1.955   3.629   1.529  0.5596 -0.7465 -0.5901
 9684TIP3   OH253246   3.362   1.615   8.615 -0.2691 -0.2575  0.0332
 9684TIP3    H153247   3.331   1.646   8.530 -0.7701  0.3324  0.4283
 9684TIP3    H253248   3.282   1.589   8.662 -0.0222 -0.3018  0.4348
 9685TIP3   OH253249   5.404   0.988   7.386  0.1056 -0.4401  0.2072
 9685TIP3    H153250   5.317   0.950   7.401 -0.1832  0.8450  2.1866
 9685TIP3    H253251   5.463   0.912   7.385 -0.7880 -1.1810  0.9807
 9686TIP3   OH253252   0.456   1.404   9.238 -0.0047 -0.1353 -0.3363
 9686TIP3    H153253   0.532   1.353   9.266 -0.9224 -0.1651  2.3701
 9686TIP3    H253254   0.491   1.490   9.217  1.1328 -0.9537 -2.0139
 9687TIP3   OH253255   4.917   6.861   2.289  0.2450  0.1051 -0.3575
 9687TIP3    H153256   5.009   6.834   2.288 -0.4986 -2.6706 -1.3283
 9687TIP3    H253257   4.870   6.785   2.322 -1.7763  1.2607 -0.4493
 9688TIP3   OH253258   6.262   7.402   0.615  0.4498  0.5671 -0.1308
 9688TIP3    H153259   6.355   7.419   0.631  0.0945  2.3342  0.2314
 9688TIP3    H253260   6.259   7.310   0.587  2.0717 -0.1370  1.7706
 9689TIP3   OH253261   3.370   6.117   2.675 -0.0239 -0.0603  0.2284
 9689TIP3    H153262   3.353   6.180   2.605  1.3966 -0.8140 -0.8546
 9689TIP3    H253263   3.359   6.167   2.756 -0.4270  1.1733 -0.5705
 9690TIP3   OH253264   1.804   3.718   8.049 -0.2536  0.1883 -0.3776
 9690TIP3    H153265   1.890   3.689   8.078  0.1665  2.0149  0.3406
 9690TIP3    H253266   1.769   3.645   7.998  1.1542 -1.0928  0.4409
 9691TIP3   OH253267   1.657   4.765   0.771  0.1227  0.1063  0.4133
 9691TIP3    H153268   1.628   4.687   0.723  0.0445  0.7758 -0.6729
 9691TIP3    H253269   1.733   4.736   0.821  0.7660 -0.4307 -0.8148
 9692TIP3   OH253270   4.370   3.911   9.814 -0.0966  0.0691  0.5584
 9692TIP3    H153271   4.423   3.988   9.792  0.6162 -0.7950 -0.9526
 9692TIP3    H253272   4.435   3.844   9.838 -0.5781 -0.6232 -0.0329
 9693TIP3   OH253273   0.150   4.295   8.130 -0.1329 -0.1059 -0.6742
 9693TIP3    H153274   0.239   4.265   8.113  0.3361  1.1068 -0.5124
 9693TIP3    H253275   0.140   4.289   8.225 -0.5149 -1.0011 -0.7689
 9694TIP3   OH253276   4.888   7.013   1.630 -0.4072 -0.3896 -0.4187
 9694TIP3    H153277   4.852   6.979   1.548  0.2085 -0.3289 -0.7199
 9694TIP3    H253278   4.896   7.107   1.615 -0.7049 -0.3147 -0.1257
 9695TIP3   OH253279   3.027   7.003   0.975 -0.3930 -0.2290 -0.0606
 9695TIP3    H153280   2.974   7.047   0.909 -2.0923 -2.0284  0.0145
 9695TIP3    H253281   2.993   7.036   1.058  1.0511  1.2474  0.0146
 9696TIP3   OH253282   3.233   2.051   2.639  0.0053 -0.1025 -0.0732
 9696TIP3    H153283   3.327   2.071   2.646 -0.3482  1.2248  1.3562
 9696TIP3    H253284   3.210   2.017   2.725 -0.8375 -0.4449 -0.4298
 9697TIP3   OH253285   6.404   4.532   9.422  0.5143  0.1284  0.6031
 9697TIP3    H153286   6.418   4.605   9.361  1.7844  0.0596  0.7979
 9697TIP3    H253287   6.339   4.565   9.484  2.3229  1.7473  1.7217
 9698TIP3   OH253288   3.176   1.902   8.206 -0.0732 -0.5666  0.5612
 9698TIP3    H153289   3.268   1.923   8.217 -0.0356 -0.8424  0.7834
 9698TIP3    H253290   3.133   1.987   8.193  0.4034 -0.5406 -1.0528
 9699TIP3   OH253291   1.822   0.673   8.533 -0.0539 -0.2301 -0.4351
 9699TIP3    H153292   1.756   0.626   8.483  0.1226 -1.1716  0.1964
 9699TIP3    H253293   1.906   0.645   8.495  0.0238  0.2222 -0.6040
 9700TIP3   OH253294   5.841   0.038   1.493  0.3034  0.7079 -0.1657
 9700TIP3    H153295   5.895   0.038   1.573 -1.1514  0.0830  0.8480
 9700TIP3    H253296   5.903   0.060   1.423  2.1645 -1.2662  0.7494
 9701TIP3   OH253297   3.987   2.786   2.447 -0.3771 -0.2151 -0.4131
 9701TIP3    H153298   3.934   2.712   2.419 -0.7370 -0.2078  0.2243
 9701TIP3    H253299   3.951   2.862   2.401  0.8351 -0.6252 -2.0965
 9702TIP3   OH253300   6.326   3.984   0.849  0.3133  0.1200 -0.1147
 9702TIP3    H153301   6.231   3.982   0.839  0.4503 -2.1136 -1.8561
 9702TIP3    H253302   6.344   3.927   0.924  0.3169 -1.8079 -1.4801
 9703TIP3   OH253303   1.685   1.754   9.146  0.5206  0.2861  0.8999
 9703TIP3    H153304   1.686   1.664   9.113  0.8953  0.5445  0.1795
 9703TIP3    H253305   1.636   1.803   9.080  3.0572  1.2183 -0.4586
 9704TIP3   OH253306   2.500   5.640   8.434 -0.2807  0.6272 -0.0478
 9704TIP3    H153307   2.452   5.557   8.440 -0.9139  0.8875 -1.0722
 9704TIP3    H253308   2.575   5.620   8.378  0.2187  0.4811  0.6605
 9705TIP3   OH253309   1.399   5.919   9.264 -0.0329 -0.0338 -0.2772
 9705TIP3    H153310   1.421   5.888   9.352  1.2915 -0.5519 -0.7696
 9705TIP3    H253311   1.365   5.842   9.218  1.4782 -0.3611 -0.9136
 9706TIP3   OH253312   2.170   6.142   7.927 -0.0286 -0.4229  0.0645
 9706TIP3    H153313   2.217   6.084   7.867 -1.2352  1.5552 -3.0618
 9706TIP3    H253314   2.094   6.090   7.954  1.9734 -2.3737  2.3583
 9707TIP3   OH253315   2.767   7.284   1.798 -0.4972  0.2121  0.0887
 9707TIP3    H153316   2.732   7.253   1.882  0.6990 -0.3923  0.3853
 9707TIP3    H253317   2.702   7.258   1.733 -1.0842  0.0343  0.7386
 9708TIP3   OH253318   6.192   4.704   0.573 -0.6678 -0.6652  0.4801
 9708TIP3    H153319   6.250   4.629   0.564 -0.5283 -0.5165  0.1145
 9708TIP3    H253320   6.180   4.715   0.667  0.2122 -0.4536  0.5768
 9709TIP3   OH253321   2.522   6.054   7.862 -0.5461  0.4006  0.4538
 9709TIP3    H153322   2.535   5.977   7.917 -1.0342 -0.5181 -0.6737
 9709TIP3    H253323   2.473   6.022   7.786  2.9822  0.8029 -2.2812
 9710TIP3   OH253324   4.006   2.318   1.255 -0.0919  0.1842 -0.7731
 9710TIP3    H153325   3.913   2.302   1.240  0.0624 -1.0285 -0.4910
 9710TIP3    H253326   4.014   2.414   1.253 -1.3582  0.3081 -0.6902
 9711TIP3   OH253327   3.652   0.831   0.960  0.5881 -0.0054 -0.0597
 9711TIP3    H153328   3.679   0.765   0.895 -0.5957 -2.0068  1.3876
 9711TIP3    H253329   3.567   0.862   0.929  0.9244  0.5352 -0.4777
 9712TIP3   OH253330   5.493   6.906   9.597  0.1901  0.0209 -0.9937
 9712TIP3    H153331   5.404   6.921   9.563  0.3920  0.1312 -1.4774
 9712TIP3    H253332   5.508   6.812   9.585 -0.5786 -0.3733  0.8430
 9713TIP3   OH253333   7.379   6.374   2.472  0.0113 -0.0880 -0.5824
 9713TIP3    H153334   7.428   6.294   2.490  1.3642  0.5837 -1.1602
 9713TIP3    H253335   7.303   6.369   2.530  2.7369  0.6832  3.4577
 9714TIP3   OH253336   4.835   3.123   9.090  0.3558  0.3370 -0.6046
 9714TIP3    H153337   4.882   3.196   9.131  0.7447  0.0696 -0.5723
 9714TIP3    H253338   4.880   3.045   9.121  0.2545  0.1052 -1.0303
 9715TIP3   OH253339   4.703   2.104   9.087 -0.4181 -0.0296 -0.0138
 9715TIP3    H153340   4.742   2.017   9.079  1.6351  0.9094 -1.1455
 9715TIP3    H253341   4.633   2.105   9.023  1.5705  0.0843 -2.3390
 9716TIP3   OH253342   1.632   1.568   8.161 -0.2564  0.1569  0.0651
 9716TIP3    H153343   1.650   1.658   8.133  0.1455 -0.0670 -0.4091
 9716TIP3    H253344   1.545   1.549   8.126 -0.9248  0.8125  1.2984
 9717TIP3   OH253345   5.314   4.278   9.135  0.3355 -0.9684  0.6326
 9717TIP3    H153346   5.370   4.288   9.059  0.7586 -1.0079  0.9334
 9717TIP3    H253347   5.250   4.349   9.128  0.4898 -0.8565  0.3439
 9718TIP3   OH253348   0.726   5.819   8.346 -0.2570 -0.1122  0.0399
 9718TIP3    H153349   0.702   5.738   8.391 -3.8173  1.3871  1.2151
 9718TIP3    H253350   0.738   5.793   8.255 -2.4669 -1.8390  0.1577
 9719TIP3   OH253351   4.258   0.432   8.636  0.2608  0.0083  0.4192
 9719TIP3    H153352   4.283   0.410   8.546 -1.6915  0.3919 -0.2491
 9719TIP3    H253353   4.202   0.360   8.663  0.3568  0.1967  1.1312
 9720TIP3   OH253354   4.333   5.040   0.435  0.4481  0.4777 -0.2487
 9720TIP3    H153355   4.262   4.996   0.480  1.5205 -1.4603 -0.3455
 9720TIP3    H253356   4.384   5.081   0.505 -0.3021  1.2006 -0.1146
 9721TIP3   OH253357   7.660   3.101   0.483 -0.0070 -0.0751 -0.2127
 9721TIP3    H153358   7.600   3.125   0.554 -0.9303 -1.1992 -0.5751
 9721TIP3    H253359   7.736   3.063   0.527 -0.4404 -0.4829  0.2016
 9722TIP3   OH253360   6.577   6.664   1.476  0.4135 -0.2202 -1.0108
 9722TIP3    H153361   6.586   6.592   1.539 -0.8233 -1.1926 -1.8668
 9722TIP3    H253362   6.512   6.631   1.413 -0.0012  1.5713 -1.5597
 9723TIP3   OH253363   1.910   7.222   6.495 -0.3399  0.0505 -0.7380
 9723TIP3    H153364   1.958   7.260   6.421  1.4560 -0.1601  0.2738
 9723TIP3    H253365   1.950   7.136   6.508 -0.2761  0.2858  0.7925
 9724TIP3   OH253366   7.605   7.156   2.631  0.1565  0.1006  0.4196
 9724TIP3    H153367   7.514   7.151   2.602  0.3333  0.2214 -0.1622
 9724TIP3    H253368   7.653   7.100   2.570  0.5496  0.4397  0.4151
 9725TIP3   OH253369   3.896   0.244   9.668  0.5934  0.5657 -0.2944
 9725TIP3    H153370   3.985   0.275   9.684  0.5711  1.9506 -2.4819
 9725TIP3    H253371   3.844   0.323   9.657 -1.2698 -0.1773  2.2479
 9726TIP3   OH253372   2.278   7.450   8.704  0.2060  0.0571  0.0376
 9726TIP3    H153373   2.343   7.381   8.693  0.4559  0.4654 -1.0977
 9726TIP3    H253374   2.200   7.417   8.659  0.7709  1.1003 -1.7722
 9727TIP3   OH253375   4.550   6.366   8.713 -0.6721 -0.3023  0.1940
 9727TIP3    H153376   4.538   6.439   8.652  0.4221 -0.2468  0.0256
 9727TIP3    H253377   4.464   6.324   8.717 -1.1905  0.6933 -0.0857
 9728TIP3   OH253378   1.667   4.296   8.266  0.2960 -0.4865  0.7917
 9728TIP3    H153379   1.696   4.213   8.227  0.4129 -0.4204  0.7392
 9728TIP3    H253380   1.661   4.356   8.192  0.5327 -0.3569  0.8774
 9729TIP3   OH253381   3.826   4.722   8.281 -0.4393  0.3881 -0.2279
 9729TIP3    H153382   3.899   4.705   8.341 -0.0685  0.2327 -0.7160
 9729TIP3    H253383   3.849   4.674   8.201 -2.5643 -2.2576  0.6557
 9730TIP3   OH253384   7.245   6.625   0.571  0.1641 -0.1402 -0.2019
 9730TIP3    H153385   7.168   6.587   0.527  0.0476  0.2406 -0.3288
 9730TIP3    H253386   7.253   6.712   0.533  0.9534 -0.3548 -0.5442
 9731TIP3   OH253387   3.443   1.954   9.816 -0.7479  0.9997 -0.8075
 9731TIP3    H153388   3.521   1.965   9.871 -0.4696 -0.9459 -0.7439
 9731TIP3    H253389   3.395   2.037   9.825  0.5960  1.6918  0.2833
 9732TIP3   OH253390   2.847   3.962   9.088  0.4377 -0.9745 -0.1651
 9732TIP3    H153391   2.942   3.956   9.081  0.4092 -0.5032 -1.2116
 9732TIP3    H253392   2.831   3.982   9.180  1.4545  0.3701 -0.2389
 9733TIP3   OH253393   4.040   5.020   9.735 -0.2517  0.5142 -0.3796
 9733TIP3    H153394   4.054   5.020   9.640 -1.0637 -0.0085 -0.5067
 9733TIP3    H253395   3.983   4.945   9.751  1.5094 -0.6454  0.7780
 9734TIP3   OH253396   2.518   5.564   1.165  0.1910  0.1536 -0.3231
 9734TIP3    H153397   2.555   5.560   1.253 -0.1257 -1.8817 -0.2429
 9734TIP3    H253398   2.427   5.589   1.178  0.2515  0.2711 -0.1259
 9735TIP3   OH253399   2.503   7.195   2.459  0.4748  0.1333  0.2266
 9735TIP3    H153400   2.575   7.150   2.502  0.2080 -0.1137  0.4200
 9735TIP3    H253401   2.518   7.288   2.477  0.5760  0.0600  0.5210
 9736TIP3   OH253402   1.329   1.343   9.735 -0.0647 -0.6397  0.0537
 9736TIP3    H153403   1.264   1.409   9.711 -1.0581 -0.9339  1.8082
 9736TIP3    H253404   1.335   1.347   9.830 -1.1058 -3.8926  0.3986
 9737TIP3   OH253405   1.530   3.264   9.181 -0.2176 -0.4556  0.5567
 9737TIP3    H153406   1.566   3.352   9.171 -0.4774 -0.4042  0.0243
 9737TIP3    H253407   1.437   3.278   9.200 -0.5129 -0.6153 -0.6495
 9738TIP3   OH253408   1.202   6.118   2.284 -0.2602  0.0376 -0.1530
 9738TIP3    H153409   1.114   6.084   2.300 -0.6651 -0.4992 -2.9326
 9738TIP3    H253410   1.218   6.179   2.356 -3.0928  0.4783  0.2097
 9739TIP3   OH253411   4.393   4.941   8.862  0.4351 -0.0293 -0.1222
 9739TIP3    H153412   4.444   4.901   8.932  2.3266 -0.3865 -1.5972
 9739TIP3    H253413   4.434   5.027   8.849  1.7031 -0.8554 -2.2367
 9740TIP3   OH253414   2.145   6.926   8.275 -0.5429  0.1614 -0.5047
 9740TIP3    H153415   2.210   6.942   8.343 -0.6381  0.0627 -0.3895
 9740TIP3    H253416   2.194   6.884   8.204 -0.3841  0.5457 -0.6224
 9741TIP3   OH253417   5.892   6.621   1.345 -0.2939 -0.9962 -0.5566
 9741TIP3    H153418   5.833   6.691   1.318  1.1916  0.7500  0.4392
 9741TIP3    H253419   5.837   6.543   1.352 -2.5239  0.5828  0.6125
 9742TIP3   OH253420   3.421   3.577   9.154  0.2616 -0.3193  0.1102
 9742TIP3    H153421   3.342   3.547   9.197 -0.6954  2.0947  0.1856
 9742TIP3    H253422   3.411   3.550   9.063  0.4518 -1.9746  0.5437
 9743TIP3   OH253423   5.840   1.132   1.251 -0.0459  0.2476 -0.4412
 9743TIP3    H153424   5.852   1.206   1.192 -0.6655 -0.6454 -1.7423
 9743TIP3    H253425   5.783   1.165   1.320 -1.4668  0.6252 -1.7474
 9744TIP3   OH253426   2.572   7.668   1.212 -0.4148 -0.0869  0.4834
 9744TIP3    H153427   2.663   7.697   1.224 -0.1597 -0.4075 -0.5390
 9744TIP3    H253428   2.568   7.585   1.259 -0.0474 -0.2736  0.2000
 9745TIP3   OH253429   1.185   0.927   0.222 -0.6493 -0.3210 -0.2096
 9745TIP3    H153430   1.212   0.912   0.131  2.9827  2.2802  0.2161
 9745TIP3    H253431   1.096   0.893   0.227 -0.2128 -2.5990 -4.1160
 9746TIP3   OH253432   5.519   4.622   9.417 -0.3415  0.0484 -0.1176
 9746TIP3    H153433   5.546   4.600   9.327 -0.5213 -1.0023  0.0687
 9746TIP3    H253434   5.465   4.548   9.444  1.1815 -0.5368  1.5072
 9747TIP3   OH253435   0.535   4.177   8.019  0.3573  0.0307  0.2237
 9747TIP3    H153436   0.467   4.142   8.076 -0.8684 -1.0423 -1.8033
 9747TIP3    H253437   0.508   4.268   8.003  0.5659  0.2572  1.0898
 9748TIP3   OH253438   4.249   2.012   8.349  0.4524  0.3514 -0.1452
 9748TIP3    H153439   4.291   2.097   8.359  0.5754  0.2717  0.0338
 9748TIP3    H253440   4.280   1.980   8.264 -0.4633  0.9607 -0.7245
 9749TIP3   OH253441   5.135   2.063   2.660  0.6634  0.2346 -0.7506
 9749TIP3    H153442   5.120   2.132   2.725 -0.9308 -0.4122 -0.3845
 9749TIP3    H253443   5.131   2.109   2.575  1.9111  0.9410 -0.4522
 9750TIP3   OH253444   5.847   5.773   0.990 -0.2952  0.6105 -0.1925
 9750TIP3    H153445   5.890   5.750   0.907  0.0308 -0.1314  0.1728
 9750TIP3    H253446   5.915   5.764   1.056 -0.5994  1.0262  0.1877
 9751TIP3   OH253447   5.788   5.266   1.827  0.0066  0.3173  0.1675
 9751TIP3    H153448   5.835   5.337   1.869  0.7312  0.2321 -0.4828
 9751TIP3    H253449   5.695   5.288   1.840  0.1968  0.3085  1.7484
 9752TIP3   OH253450   1.210   6.705   0.479 -0.3079  0.4498  0.4849
 9752TIP3    H153451   1.144   6.637   0.467  0.5488 -0.1293 -1.3310
 9752TIP3    H253452   1.162   6.788   0.468 -0.8795  0.0616 -0.0066
 9753TIP3   OH253453   1.996   7.588   8.242  0.1357 -0.1133  0.5280
 9753TIP3    H153454   1.946   7.653   8.292  0.0302  0.0036  0.2739
 9753TIP3    H253455   2.081   7.584   8.285  0.8322  1.5994 -0.5782
 9754TIP3   OH253456   1.829   5.757   9.485  0.3344 -0.0905  0.8179
 9754TIP3    H153457   1.842   5.849   9.509 -0.9627  0.1221  0.7968
 9754TIP3    H253458   1.894   5.740   9.417 -0.9924  1.5745 -0.9995
 9755TIP3   OH253459   0.704   0.947   2.832  0.1707 -0.1709  0.4211
 9755TIP3    H153460   0.775   1.011   2.824  0.7804 -0.9280 -0.3430
 9755TIP3    H253461   0.710   0.916   2.923  1.2377 -0.6834  0.2003
 9756TIP3   OH253462   3.861   3.843   2.774  0.1909 -0.2204  0.1518
 9756TIP3    H153463   3.879   3.922   2.824 -1.4104  0.7374 -0.6954
 9756TIP3    H253464   3.934   3.837   2.711 -0.7626  1.9101 -1.2881
 9757TIP3   OH253465   1.237   4.475   8.576 -0.2072  0.0922  0.2826
 9757TIP3    H153466   1.160   4.532   8.575 -0.7148 -0.5673  0.5665
 9757TIP3    H253467   1.207   4.394   8.533  0.8652  0.4889 -1.2840
 9758TIP3   OH253468   4.670   6.882   7.068  0.3429  0.1818 -0.1888
 9758TIP3    H153469   4.709   6.955   7.115  2.5008  0.0871 -1.6348
 9758TIP3    H253470   4.745   6.827   7.044 -1.0724 -1.7824 -0.3411
 9759TIP3   OH253471   3.020   1.991   2.251  0.7348 -0.1461  0.0405
 9759TIP3    H153472   2.927   1.999   2.271  0.8014  2.1700 -0.3600
 9759TIP3    H253473   3.064   2.049   2.313  1.7044  0.3261 -1.0354
 9760TIP3   OH253474   2.024   6.171   9.114  0.1721 -0.3829 -0.2510
 9760TIP3    H153475   2.067   6.088   9.134  1.1762 -0.1971 -1.5330
 9760TIP3    H253476   2.067   6.234   9.171 -0.2141 -0.6376  0.3328
 9761TIP3   OH253477   2.818   0.456   1.623 -0.6979  0.5208  0.4160
 9761TIP3    H153478   2.892   0.410   1.584  0.0522  0.3160  2.0244
 9761TIP3    H253479   2.820   0.543   1.583 -0.3135  0.1439 -0.4059
 9762TIP3   OH253480   5.844   4.799   9.332 -0.0100  0.2730  0.1081
 9762TIP3    H153481   5.786   4.806   9.257 -2.0935  0.2967  1.6307
 9762TIP3    H253482   5.790   4.824   9.407  2.2417  1.2017  1.5351
 9763TIP3   OH253483   5.991   2.965   0.423 -0.3094  0.1089  0.5705
 9763TIP3    H153484   6.058   3.018   0.466 -0.6478  1.1379 -0.1455
 9763TIP3    H253485   6.026   2.948   0.335 -1.3232  1.3636 -0.1053
 9764TIP3   OH253486   1.716   7.497   9.600  0.6071  0.6678  0.1783
 9764TIP3    H153487   1.728   7.411   9.560 -0.5521  1.0489 -1.0466
 9764TIP3    H253488   1.636   7.531   9.561 -0.2141  1.3696  2.3304
 9765TIP3   OH253489   4.903   3.134   8.320  0.1328  0.6416 -0.2519
 9765TIP3    H153490   4.925   3.188   8.396  0.0664 -0.1507  0.3411
 9765TIP3    H253491   4.898   3.196   8.248  0.0010  1.4425  0.4244
 9766TIP3   OH253492   0.955   3.206   9.626  0.3447 -0.1926 -0.7815
 9766TIP3    H153493   0.885   3.156   9.584 -0.4018  1.5574 -1.7688
 9766TIP3    H253494   0.924   3.219   9.716  0.1351 -0.7347 -0.7705
 9767TIP3   OH253495   2.186   0.166   8.244  0.0153 -0.2459 -0.4766
 9767TIP3    H153496   2.181   0.105   8.171 -0.3839 -1.8062  0.8057
 9767TIP3    H253497   2.186   0.111   8.322  1.2480  1.3196  0.7082
 9768TIP3   OH253498   2.628   3.239   0.867 -0.3461 -0.2683 -0.0558
 9768TIP3    H153499   2.586   3.200   0.790  0.1064  0.2151 -0.5507
 9768TIP3    H253500   2.632   3.332   0.848  0.0791 -0.1862  0.4081
 9769TIP3   OH253501   1.738   1.300   1.447  0.0519 -0.1928  0.0229
 9769TIP3    H153502   1.734   1.361   1.521 -1.4040  2.2023 -1.8876
 9769TIP3    H253503   1.827   1.307   1.414 -0.0498  0.8013 -0.0623
 9770TIP3   OH253504   6.647   5.656   7.641  0.6363 -0.2589  0.1243
 9770TIP3    H153505   6.651   5.659   7.737  1.8045 -1.0917  0.1244
 9770TIP3    H253506   6.641   5.747   7.614  0.8930  0.0225  0.9831
 9771TIP3   OH253507   3.593   6.761   8.790 -0.0082 -0.1825 -0.3687
 9771TIP3    H153508   3.517   6.815   8.810  0.1710  0.4633 -1.3705
 9771TIP3    H253509   3.658   6.785   8.855 -0.2512  0.1418 -0.2443
 9772TIP3   OH253510   0.374   2.595   9.091  0.0991  0.1711  0.0635
 9772TIP3    H153511   0.443   2.561   9.149 -1.6293  0.1051  2.1887
 9772TIP3    H253512   0.385   2.690   9.094  0.6128  0.1304 -0.3118
 9773TIP3   OH253513   6.728   1.829   9.426 -0.0054 -0.0933 -0.0377
 9773TIP3    H153514   6.741   1.769   9.352 -0.7986  1.2235 -1.3054
 9773TIP3    H253515   6.801   1.810   9.485 -0.4624 -2.5546 -0.1844
 9774TIP3   OH253516   3.540   3.889   9.369 -0.0398 -0.0402 -0.0348
 9774TIP3    H153517   3.499   3.942   9.301 -0.1926 -1.7125 -1.3406
 9774TIP3    H253518   3.634   3.898   9.352 -0.0622 -0.0911 -0.1938
 9775TIP3   OH253519   6.635   1.240   1.198  0.0326  0.6839 -0.1465
 9775TIP3    H153520   6.668   1.170   1.143 -2.3968  0.5414 -1.5811
 9775TIP3    H253521   6.704   1.306   1.199  1.1447 -0.4217 -1.2756
 9776TIP3   OH253522   6.812   7.576   7.750  0.4988  0.2689  0.6525
 9776TIP3    H153523   6.902   7.608   7.742  0.9044  0.2280  3.8096
 9776TIP3    H253524   6.812   7.491   7.705  1.5087  1.0698 -0.9364
 9777TIP3   OH253525   5.759   0.982   0.469  0.2651  0.2308 -0.0140
 9777TIP3    H153526   5.682   1.025   0.506  2.8152  4.4226  1.0282
 9777TIP3    H253527   5.789   1.041   0.401  0.9878 -2.8191 -2.5793
 9778TIP3   OH253528   5.258   4.485   8.390  0.0296  0.0849 -0.4853
 9778TIP3    H153529   5.205   4.555   8.352  1.3677  0.2316 -2.2009
 9778TIP3    H253530   5.301   4.525   8.465 -0.1872  0.7418 -0.7082
 9779TIP3   OH253531   3.193   6.621   9.380 -0.4659 -0.0999  0.1505
 9779TIP3    H153532   3.246   6.579   9.312  3.4251  1.8738  1.6384
 9779TIP3    H253533   3.188   6.557   9.451  1.1934  0.1197  0.5002
 9780TIP3   OH253534   6.371   3.738   2.017  0.4600  0.0787  0.0550
 9780TIP3    H153535   6.419   3.720   2.097  0.4514  0.6220  0.1890
 9780TIP3    H253536   6.359   3.833   2.017  1.3842  0.2219 -1.1045
 9781TIP3   OH253537   5.769   0.702   8.629  0.3415  0.1445  0.0701
 9781TIP3    H153538   5.849   0.650   8.634 -0.3492 -1.2058 -1.6048
 9781TIP3    H253539   5.762   0.727   8.537 -0.9738  0.5088  0.2436
 9782TIP3   OH253540   1.006   6.012   6.794  0.1141 -0.1862 -0.1313
 9782TIP3    H153541   1.040   6.053   6.714  1.2153  1.5341  1.1465
 9782TIP3    H253542   0.920   6.053   6.806  0.1231 -0.1435 -0.2106
 9783TIP3   OH253543   4.640   6.026   9.636 -0.3554 -0.4015  0.0584
 9783TIP3    H153544   4.552   5.988   9.629 -0.9334  0.8395  0.3387
 9783TIP3    H253545   4.636   6.107   9.586  0.3830  0.0972  0.7787
 9784TIP3   OH253546   0.377   2.081   7.540 -0.6203 -0.6363 -0.2756
 9784TIP3    H153547   0.384   2.021   7.465 -0.9103  0.2059 -0.9893
 9784TIP3    H253548   0.283   2.092   7.553 -0.5860  0.5815 -0.9181
 9785TIP3   OH253549   2.761   1.968   3.319  0.3204  0.5305 -0.8273
 9785TIP3    H153550   2.821   1.988   3.391 -0.3564  0.5452 -0.2509
 9785TIP3    H253551   2.736   1.877   3.333 -0.1285  0.6545 -0.8080
 9786TIP3   OH253552   4.954   3.831   2.060  0.7543 -0.0796  0.3442
 9786TIP3    H153553   5.018   3.858   2.125  0.0333  0.7371  0.7352
 9786TIP3    H253554   4.997   3.845   1.976  2.2676 -2.5732  0.5961
 9787TIP3   OH253555   0.853   5.877   1.219  0.6346  0.2675  0.2369
 9787TIP3    H153556   0.851   5.828   1.137  0.3091  1.2046 -0.3348
 9787TIP3    H253557   0.934   5.850   1.262  1.1211  0.2255 -0.6845
 9788TIP3   OH253558   2.067   3.565   8.550 -0.4908 -0.0391 -0.2984
 9788TIP3    H153559   2.163   3.568   8.552 -0.4808  0.1234 -0.8117
 9788TIP3    H253560   2.042   3.645   8.504 -0.9034  0.2546  0.4221
 9789TIP3   OH253561   4.927   6.803   9.742 -0.6220  0.4416  0.7141
 9789TIP3    H153562   4.945   6.883   9.693 -0.6419  0.6716  1.0783
 9789TIP3    H253563   4.879   6.833   9.819  0.2268  0.1889  1.3524
 9790TIP3   OH253564   0.154   4.163   8.643  0.1966  0.3570  0.0290
 9790TIP3    H153565   0.247   4.179   8.626  0.3123  1.2467  1.3500
 9790TIP3    H253566   0.151   4.071   8.672  0.2630 -0.5161 -2.4964
 9791TIP3   OH253567   5.938   0.306   1.216 -0.1915  0.1328  0.5406
 9791TIP3    H153568   5.924   0.399   1.232 -2.3338 -0.1339  0.4403
 9791TIP3    H253569   5.995   0.278   1.288  0.2692  1.4510  0.7169
 9792TIP3   OH253570   0.878   1.623   8.568  0.0185  0.4265 -0.6502
 9792TIP3    H153571   0.906   1.618   8.659 -1.2026 -0.7021 -0.2934
 9792TIP3    H253572   0.809   1.689   8.568 -1.0073 -0.6096 -0.4318
 9793TIP3   OH253573   6.271   3.886   0.163 -0.5175 -0.5751  0.1446
 9793TIP3    H153574   6.226   3.966   0.190 -1.8449 -1.1450 -0.3064
 9793TIP3    H253575   6.278   3.894   0.068 -0.9457 -1.1297  0.0614
 9794TIP3   OH253576   3.237   3.556   8.119  0.1782 -0.1958  0.5870
 9794TIP3    H153577   3.287   3.634   8.092 -0.3317 -0.1401 -0.2574
 9794TIP3    H253578   3.260   3.490   8.054  0.6298 -0.7707  1.3229
 9795TIP3   OH253579   1.595   7.268   8.729  0.1925 -1.2918  0.8758
 9795TIP3    H153580   1.582   7.206   8.801 -0.8008 -2.8999 -0.6221
 9795TIP3    H253581   1.508   7.281   8.692  0.7726 -1.0253 -0.4479
 9796TIP3   OH253582   1.736   3.129   9.092  0.2324  0.1638 -0.0464
 9796TIP3    H153583   1.775   3.069   9.156  0.1830 -1.1986 -1.2459
 9796TIP3    H253584   1.655   3.159   9.133  1.5735  1.5930  1.7104
 9797TIP3   OH253585   0.007   0.537   7.607 -0.3719  0.0646  0.4519
 9797TIP3    H153586  -0.050   0.471   7.568 -3.7871  1.5614  2.4572
 9797TIP3    H253587   0.018   0.603   7.539 -0.0989 -0.7382 -0.3023
 9798TIP3   OH253588   2.815   1.667   1.125  0.3470 -0.0239 -0.2286
 9798TIP3    H153589   2.768   1.698   1.048  1.2861  0.2735 -0.6979
 9798TIP3    H253590   2.802   1.572   1.125  0.3203 -0.0224 -0.7485
 9799TIP3   OH253591   0.712   0.353   2.126 -0.4503 -0.2779  0.0985
 9799TIP3    H153592   0.674   0.265   2.133 -1.0431 -0.0236  0.1468
 9799TIP3    H253593   0.707   0.373   2.033  0.9519 -0.8398 -0.1128
 9800TIP3   OH253594   5.103   4.164   7.710 -0.1329 -0.9229 -0.5932
 9800TIP3    H153595   5.161   4.237   7.690 -0.2730 -0.3759  0.8319
 9800TIP3    H253596   5.054   4.148   7.629  0.1456  0.3359 -1.0240
 9801TIP3   OH253597   4.946   0.017   0.116  0.0359  0.6333  0.2019
 9801TIP3    H153598   4.932   0.039   0.023 -1.2160 -1.5858 -0.2176
 9801TIP3    H253599   5.041   0.021   0.127  0.4135 -0.8830 -1.7437
 9802TIP3   OH253600   4.392   2.190   0.049  0.8886 -0.1080  0.0088
 9802TIP3    H153601   4.316   2.236   0.083  0.4299 -0.8274 -0.0288
 9802TIP3    H253602   4.422   2.244  -0.024 -1.1918 -1.1397 -1.7015
 9803TIP3   OH253603   3.267   6.146   7.229  0.5242  0.5008 -0.4227
 9803TIP3    H153604   3.359   6.136   7.206 -0.0194 -1.8127 -1.9251
 9803TIP3    H253605   3.234   6.211   7.168  1.4556  2.6971  1.2733
 9804TIP3   OH253606   2.816   0.973   2.247  0.4775 -0.6938  0.6921
 9804TIP3    H153607   2.860   0.956   2.164 -1.6250 -2.4201 -0.1487
 9804TIP3    H253608   2.794   1.067   2.243  0.9484 -0.6099 -0.4105
 9805TIP3   OH253609   0.216   3.076   9.010  0.1557 -0.2969  0.4714
 9805TIP3    H153610   0.220   3.050   8.918  0.8426  0.6273  0.2184
 9805TIP3    H253611   0.240   3.169   9.009  1.8293 -0.6716  1.7468
 9806TIP3   OH253612   5.304   0.581   0.904  0.2267  0.2721  0.3413
 9806TIP3    H153613   5.280   0.562   0.813  1.8769  0.7285 -0.2333
 9806TIP3    H253614   5.271   0.507   0.954  2.2722 -1.7892 -1.1453
 9807TIP3   OH253615   3.046   2.175   1.190 -0.3900 -0.2417  0.4073
 9807TIP3    H153616   3.070   2.176   1.098  0.7055  0.7774  0.6837
 9807TIP3    H253617   3.063   2.085   1.219 -0.6572 -0.5401 -0.3489
 9808TIP3   OH253618   6.911   7.247   9.124 -0.0482 -0.0971  0.1701
 9808TIP3    H153619   6.852   7.178   9.156 -2.0965  1.9656  1.0836
 9808TIP3    H253620   6.868   7.281   9.045  1.5930 -0.6488 -1.0155
 9809TIP3   OH253621   2.630   3.308   1.920  0.4555 -0.0561  0.3702
 9809TIP3    H153622   2.714   3.325   1.962  1.2888 -1.5075 -0.6364
 9809TIP3    H253623   2.651   3.250   1.847 -1.1478  1.1945 -1.1678
 9810TIP3   OH253624   1.151   6.385   1.088  0.8193 -0.3047 -0.4414
 9810TIP3    H153625   1.159   6.343   1.174  0.5682 -1.2535 -0.8779
 9810TIP3    H253626   1.065   6.429   1.091  1.2053  0.4422  0.1147
 9811TIP3   OH253627   3.161   0.983   0.247 -0.2142 -0.3742  0.1109
 9811TIP3    H153628   3.126   0.906   0.203  0.2937 -0.4568 -0.1560
 9811TIP3    H253629   3.239   1.007   0.196  0.5689 -0.6576  1.1361
 9812TIP3   OH253630   4.428   6.510   8.518  0.2487 -0.6609  0.4477
 9812TIP3    H153631   4.414   6.431   8.466  0.0755 -0.4145  0.1179
 9812TIP3    H253632   4.459   6.575   8.456 -0.9689 -0.0581  0.4431
 9813TIP3   OH253633   6.093   4.908   9.199  0.5472  0.3060 -0.1253
 9813TIP3    H153634   6.105   4.826   9.151  0.9992  0.1756  0.1970
 9813TIP3    H253635   6.017   4.893   9.255  2.7644 -1.2896  2.7336
 9814TIP3   OH253636   5.790   7.361   2.125  0.1950  0.3733 -0.2798
 9814TIP3    H153637   5.700   7.369   2.154  0.3396 -0.0711  0.3135
 9814TIP3    H253638   5.812   7.269   2.138  0.6650  0.4318 -0.6173
 9815TIP3   OH253639   2.419   3.375   8.847 -0.0502 -0.3394  0.0048
 9815TIP3    H153640   2.453   3.463   8.861 -3.1568  1.5139 -2.4707
 9815TIP3    H253641   2.349   3.366   8.911  0.8081 -1.4214  0.8194
 9816TIP3   OH253642   3.748   2.547   7.534  0.6466 -0.7490  0.2848
 9816TIP3    H153643   3.691   2.580   7.604  2.0311 -0.8279  1.5107
 9816TIP3    H253644   3.738   2.452   7.537  1.3343 -0.8145  0.9865
 9817TIP3   OH253645   6.390   0.050   0.074 -0.1058 -0.0053 -0.1859
 9817TIP3    H153646   6.401   0.142   0.097  0.1310  0.3886 -1.7456
 9817TIP3    H253647   6.297   0.042   0.053  0.1736  0.3067 -1.6620
 9818TIP3   OH253648   6.109   0.703   7.442 -0.3631 -0.2053  0.8554
 9818TIP3    H153649   6.104   0.749   7.358  0.3413  0.2485  1.0536
 9818TIP3    H253650   6.053   0.627   7.431 -1.0819  0.3928  0.3180
 9819TIP3   OH253651   3.698   6.623   8.442 -0.1628 -0.1484 -0.2613
 9819TIP3    H153652   3.739   6.616   8.356  2.3368 -2.5803  0.9642
 9819TIP3    H253653   3.751   6.688   8.489 -0.7733  0.3026 -0.1931
 9820TIP3   OH253654   2.071   4.885   0.475  0.6710  0.3109 -0.2916
 9820TIP3    H153655   2.124   4.806   0.469  1.1506  0.7149 -2.6319
 9820TIP3    H253656   2.054   4.909   0.383 -0.0450  2.5152  0.3550
 9821TIP3   OH253657   2.035   3.057   1.484 -0.0247  0.4299  0.4824
 9821TIP3    H153658   1.989   2.972   1.486  0.0064  0.4131  0.4768
 9821TIP3    H253659   2.127   3.034   1.495 -0.0670  0.5022  1.0255
 9822TIP3   OH253660   1.729   5.365   1.737 -0.3374 -1.3233 -0.0111
 9822TIP3    H153661   1.778   5.406   1.666 -1.3443  0.3573  0.2140
 9822TIP3    H253662   1.796   5.338   1.800  0.4276 -0.9031 -0.6259
 9823TIP3   OH253663   2.212   4.859   7.791  0.5213  0.1739  0.7231
 9823TIP3    H153664   2.164   4.891   7.715  0.5759 -0.1007  0.5716
 9823TIP3    H253665   2.300   4.839   7.757  0.7663  0.7347  1.0102
 9824TIP3   OH253666   5.424   3.293   8.298 -0.1292  0.0369  0.5669
 9824TIP3    H153667   5.347   3.348   8.298  0.4857  0.9258  0.0023
 9824TIP3    H253668   5.418   3.243   8.380 -0.4107  1.3529  1.3816
 9825TIP3   OH253669   0.011   5.202   0.649 -0.0332 -0.1199 -0.7359
 9825TIP3    H153670  -0.048   5.275   0.632  0.6354  0.9298  1.0869
 9825TIP3    H253671   0.099   5.238   0.635  0.2533 -1.2675 -2.0757
 9826TIP3   OH253672   2.357   2.321   8.431 -0.5030 -0.1584 -0.3137
 9826TIP3    H153673   2.392   2.274   8.355 -0.7116 -1.0826  0.1449
 9826TIP3    H253674   2.392   2.410   8.423  1.1940 -0.7882 -0.3846
 9827TIP3   OH253675   2.880   3.376   1.610  0.7637  0.2249 -0.4319
 9827TIP3    H153676   2.941   3.314   1.650 -0.7828 -0.0361  1.6850
 9827TIP3    H253677   2.886   3.455   1.664 -2.2083 -0.5289  1.2415
 9828TIP3   OH253678   2.464   3.105   8.261 -0.2854  0.1058  0.4358
 9828TIP3    H153679   2.529   3.035   8.269  1.2087  1.4118  0.2275
 9828TIP3    H253680   2.508   3.183   8.297 -0.5527  1.7495 -2.4515
 9829TIP3   OH253681   3.750   4.997   0.468  0.4921 -0.0206 -0.2479
 9829TIP3    H153682   3.844   5.014   0.459  0.2277  1.0443 -1.1617
 9829TIP3    H253683   3.717   4.995   0.378 -0.2193 -1.3095  0.0233
 9830TIP3   OH253684   2.371   6.885   7.220  0.3801  0.3631 -0.0424
 9830TIP3    H153685   2.456   6.841   7.219 -0.1023 -0.6121 -1.8348
 9830TIP3    H253686   2.362   6.920   7.131 -1.0685  0.5068  0.1499
 9831TIP3   OH253687   0.947   1.468   9.504 -0.1773 -0.3290  0.0276
 9831TIP3    H153688   0.953   1.519   9.585  0.2873 -0.5889  0.1614
 9831TIP3    H253689   0.960   1.378   9.532  1.8568 -0.2631 -0.5581
 9832TIP3   OH253690   2.975   4.203   9.353 -0.4552 -0.3258  0.2919
 9832TIP3    H153691   2.893   4.156   9.369  0.4062 -1.5804  1.3485
 9832TIP3    H253692   3.037   4.162   9.414  0.9651  0.5368 -0.5288
 9833TIP3   OH253693   1.046   3.320   0.651 -0.2644 -0.4024  0.2947
 9833TIP3    H153694   0.957   3.356   0.652 -0.1308 -0.0209 -0.5243
 9833TIP3    H253695   1.102   3.394   0.673 -0.0731 -0.3936 -0.2232
 9834TIP3   OH253696   3.222   0.375   9.316  0.8808 -0.4001  0.2362
 9834TIP3    H153697   3.206   0.403   9.406  1.4931  0.2528  0.1563
 9834TIP3    H253698   3.136   0.374   9.275  0.6837  0.0262  0.6302
 9835TIP3   OH253699   2.138   1.333   7.548  0.1599 -0.1717 -0.1187
 9835TIP3    H153700   2.138   1.428   7.559  0.5340  0.1422 -2.2637
 9835TIP3    H253701   2.229   1.307   7.562 -0.3006 -0.6120  2.6975
 9836TIP3   OH253702   4.907   3.456   1.017  0.5628  0.4433  0.2473
 9836TIP3    H153703   4.853   3.377   1.027  1.9648 -0.6814 -0.7975
 9836TIP3    H253704   4.938   3.475   1.105  0.9783 -0.7367  0.3637
 9837TIP3   OH253705   4.098   5.394   1.988 -0.0056  0.2607 -0.0418
 9837TIP3    H153706   4.161   5.439   2.044  1.0634 -0.2959 -0.7816
 9837TIP3    H253707   4.133   5.404   1.899  0.2374 -1.9692 -0.2445
 9838TIP3   OH253708   3.727   4.964   2.307  0.8506 -0.8833 -0.5374
 9838TIP3    H153709   3.758   4.885   2.262  1.3561 -1.3994  0.6656
 9838TIP3    H253710   3.636   4.944   2.329  0.5376 -0.5497 -1.4631
 9839TIP3   OH253711   7.614   7.038   8.280 -0.1572 -0.3691 -0.0685
 9839TIP3    H153712   7.555   7.079   8.343  0.3668  1.2343 -0.5520
 9839TIP3    H253713   7.700   7.042   8.322 -0.0853 -0.9541 -0.1502
 9840TIP3   OH253714   5.023   0.861   2.262 -0.5866  0.1748 -0.6027
 9840TIP3    H153715   4.951   0.920   2.238 -1.2854 -0.8560 -1.1098
 9840TIP3    H253716   5.101   0.915   2.255 -1.2194  1.0709 -0.9606
 9841TIP3   OH253717   3.326   0.676   0.777  0.0668 -0.3435 -0.1198
 9841TIP3    H153718   3.237   0.694   0.748  0.2584 -0.2418 -0.6682
 9841TIP3    H253719   3.353   0.599   0.728  1.2283  1.2044 -2.0670
 9842TIP3   OH253720   5.305   7.391   1.182  0.5359  0.1372  1.0229
 9842TIP3    H153721   5.311   7.424   1.092 -0.4970  0.5117  1.0730
 9842TIP3    H253722   5.319   7.468   1.237  1.3707 -0.1288  1.1962
 9843TIP3   OH253723   4.644   0.364   7.006  0.2718 -0.2426 -0.1663
 9843TIP3    H153724   4.567   0.401   7.049 -0.2344  0.1439 -1.3416
 9843TIP3    H253725   4.705   0.345   7.077 -0.7914 -0.2877  0.7674
 9844TIP3   OH253726   0.295   7.022   0.267 -0.4502 -0.2218 -0.2304
 9844TIP3    H153727   0.303   7.069   0.350  1.4064 -2.6356  1.0836
 9844TIP3    H253728   0.230   6.954   0.285  0.1373 -0.9074 -0.6466
 9845TIP3   OH253729   5.656   4.089   9.369  0.7813 -0.4424  0.4389
 9845TIP3    H153730   5.688   4.032   9.438  1.4143 -1.2888 -0.5314
 9845TIP3    H253731   5.625   4.029   9.301  0.7837  0.3667 -0.2914
 9846TIP3   OH253732   5.928   4.080   9.193  0.0461  0.4636 -0.0097
 9846TIP3    H153733   5.869   4.147   9.229  0.2690  0.1497  0.9614
 9846TIP3    H253734   5.976   4.126   9.124 -2.2908  0.3848 -1.8343
 9847TIP3   OH253735   1.793   6.546   1.409 -0.8383 -0.2713  0.2086
 9847TIP3    H153736   1.855   6.527   1.479 -0.5406  0.2832  0.1077
 9847TIP3    H253737   1.767   6.461   1.375  0.3598 -0.5035 -0.1661
 9848TIP3   OH253738   2.927   2.027   0.112 -0.2828 -0.5830 -0.0599
 9848TIP3    H153739   2.852   2.051   0.058 -0.7878 -0.3898  0.7114
 9848TIP3    H253740   2.917   2.081   0.191  0.7292 -0.4707 -0.0002
 9849TIP3   OH253741   7.627   0.498   1.744  0.4288  0.8491  0.7360
 9849TIP3    H153742   7.653   0.447   1.821  0.3057 -1.8918 -0.9050
 9849TIP3    H253743   7.708   0.539   1.713  1.7385 -2.5525 -0.7555
 9850TIP3   OH253744   6.765   3.388   1.619  0.6338  0.5271 -0.5153
 9850TIP3    H153745   6.745   3.388   1.526 -0.4976  1.3276 -0.2989
 9850TIP3    H253746   6.691   3.432   1.660  0.5007 -0.9000  0.9106
 9851TIP3   OH253747   1.816   4.406   1.736  0.5071  0.1727  0.1200
 9851TIP3    H153748   1.748   4.411   1.668  0.8398 -0.3474 -0.2583
 9851TIP3    H253749   1.849   4.495   1.743  0.1395  0.3267 -0.0639
 9852TIP3   OH253750   1.823   3.325   2.537  0.3741 -0.1503 -0.4153
 9852TIP3    H153751   1.827   3.239   2.496  0.5929  0.5166 -1.8361
 9852TIP3    H253752   1.730   3.339   2.553  0.2393 -0.2238 -1.1182
 9853TIP3   OH253753   3.598   2.754   8.087 -0.3571  0.4289  0.3036
 9853TIP3    H153754   3.644   2.807   8.022  0.0821 -0.1859  0.1034
 9853TIP3    H253755   3.513   2.734   8.048  0.9093 -2.2909 -1.3489
 9854TIP3   OH253756   6.657   5.986   0.893  0.1496  0.2870 -0.7291
 9854TIP3    H153757   6.570   6.001   0.929  0.3612  0.6297 -0.3452
 9854TIP3    H253758   6.716   6.019   0.961  0.6045 -0.8995 -0.5216
 9855TIP3   OH253759   5.427   1.994   8.621  0.7309 -0.0201  0.2909
 9855TIP3    H153760   5.464   1.952   8.699  3.2570 -0.8606 -1.2616
 9855TIP3    H253761   5.493   2.057   8.594 -0.4710  0.8298 -0.7551
 9856TIP3   OH253762   0.112   1.461   1.050  0.0910  0.6674 -0.2234
 9856TIP3    H153763   0.060   1.396   1.004 -0.5016  0.7331  0.3448
 9856TIP3    H253764   0.195   1.463   1.003  0.0458 -0.3603 -0.3694
 9857TIP3   OH253765   5.188   5.226   7.798 -0.5126 -0.3315 -0.2507
 9857TIP3    H153766   5.118   5.275   7.755  0.1078  0.4718 -0.3698
 9857TIP3    H253767   5.186   5.258   7.889  0.4006  0.5032 -0.5151
 9858TIP3   OH253768   0.357   3.720   1.945  0.0063  1.0751  0.2987
 9858TIP3    H153769   0.425   3.664   1.981 -0.7881 -0.7207 -0.8702
 9858TIP3    H253770   0.277   3.667   1.948 -0.9958  2.4995  0.0416
 9859TIP3   OH253771   3.543   0.418   6.448  0.1335  0.3124  0.1424
 9859TIP3    H153772   3.475   0.479   6.476  0.4151  0.1196  1.3052
 9859TIP3    H253773   3.604   0.413   6.523  1.3622  0.3863 -0.8139
 9860TIP3   OH253774   4.268   4.564   7.325 -0.6599 -0.0929 -0.7405
 9860TIP3    H153775   4.326   4.496   7.291 -1.4548  0.0067 -2.4313
 9860TIP3    H253776   4.312   4.646   7.303 -0.0724 -0.0280  0.6043
 9861TIP3   OH253777   3.320   7.096   9.019  0.2968  0.1592  0.2093
 9861TIP3    H153778   3.320   7.166   8.954  0.1513  0.0409  0.0838
 9861TIP3    H253779   3.411   7.092   9.049  0.4515 -0.0484 -0.2689
 9862TIP3   OH253780   1.741   4.350   0.686  0.2483 -0.2079 -0.1021
 9862TIP3    H153781   1.683   4.421   0.659  1.3417  0.5874 -0.4678
 9862TIP3    H253782   1.825   4.371   0.645  1.0253 -0.8636  1.0691
 9863TIP3   OH253783   5.437   7.623   1.289 -0.2293 -0.3400  0.0418
 9863TIP3    H153784   5.432   7.716   1.265 -0.9523 -0.5538 -0.6971
 9863TIP3    H253785   5.530   7.604   1.292 -0.0787  0.3430 -0.0849
 9864TIP3   OH253786   6.470   0.621   0.350  0.5882  0.0586  0.1714
 9864TIP3    H153787   6.451   0.528   0.360  0.4517  0.0952  0.2549
 9864TIP3    H253788   6.435   0.645   0.265  2.0025 -0.3187 -0.5566
 9865TIP3   OH253789   4.435   4.110   8.056  0.5427 -0.2374 -0.1810
 9865TIP3    H153790   4.395   4.033   8.016 -1.5151  0.1220  1.0416
 9865TIP3    H253791   4.504   4.074   8.112  1.2120 -0.9779 -1.4390
 9866TIP3   OH253792   3.162   1.664   1.498  0.1081 -0.1722 -0.5651
 9866TIP3    H153793   3.073   1.693   1.518  0.3560  0.8651 -0.9406
 9866TIP3    H253794   3.192   1.621   1.578 -0.1383  0.9207  0.1270
 9867TIP3   OH253795   4.897   0.687   9.160 -0.2817 -0.1312  0.2300
 9867TIP3    H153796   4.989   0.696   9.184  0.1010  1.4274 -1.5822
 9867TIP3    H253797   4.869   0.776   9.139 -1.4660 -0.9022 -1.7281
 9868TIP3   OH253798   1.133   6.176   6.626  0.0265  0.2519  0.4063
 9868TIP3    H153799   1.100   6.265   6.612  0.4745  0.3544 -0.0384
 9868TIP3    H253800   1.228   6.188   6.634  0.0955 -0.2039  0.2398
 9869TIP3   OH253801   6.894   0.437   8.826 -0.3823  0.2596  0.0436
 9869TIP3    H153802   6.812   0.487   8.820 -0.0648  0.6488 -1.3747
 9869TIP3    H253803   6.947   0.470   8.754 -0.1269 -2.1004 -0.9314
 9870TIP3   OH253804   0.673   7.359   9.817  0.2770  0.9552  0.3503
 9870TIP3    H153805   0.645   7.293   9.754  0.8287 -0.5865  1.6730
 9870TIP3    H253806   0.597   7.374   9.872 -0.3353  2.6013 -0.8453
 9871TIP3   OH253807   4.824   3.902   1.271  0.1778  0.1326  0.7606
 9871TIP3    H153808   4.816   3.961   1.196  0.2546  0.2737  0.8628
 9871TIP3    H253809   4.753   3.839   1.260 -0.6604  0.9657  1.2938
 9872TIP3   OH253810   1.672   5.585   2.022  0.2557 -1.1014 -0.5565
 9872TIP3    H153811   1.660   5.492   2.040  1.0379 -1.1776 -0.3885
 9872TIP3    H253812   1.584   5.621   2.021 -0.0086 -1.7122  0.1328
 9873TIP3   OH253813   1.449   5.631   2.262 -0.5009 -0.0419 -0.2215
 9873TIP3    H153814   1.359   5.663   2.266 -0.6259  0.0461 -2.4001
 9873TIP3    H253815   1.441   5.539   2.235  0.0254 -0.6017  1.4242
 9874TIP3   OH253816   1.980   6.441   1.590 -0.0815 -0.3811  0.3179
 9874TIP3    H153817   2.039   6.509   1.622 -1.4742  0.4897  1.1715
 9874TIP3    H253818   1.950   6.396   1.669 -2.2522  0.6770  0.1652
 9875TIP3   OH253819   2.159   5.922   9.163  0.1833 -0.2082 -0.3932
 9875TIP3    H153820   2.078   5.877   9.141  0.5687 -1.3205  0.3397
 9875TIP3    H253821   2.213   5.855   9.206  0.7681  0.9721  0.8068
 9876TIP3   OH253822   0.177   4.256   9.573  0.2245  0.4963  0.5354
 9876TIP3    H153823   0.091   4.287   9.544 -0.0154  1.0543  1.7949
 9876TIP3    H253824   0.161   4.214   9.657  1.2797  1.2275  1.1268
 9877TIP3   OH253825   0.853   4.467   0.761  0.0075 -0.0360  0.4989
 9877TIP3    H153826   0.844   4.492   0.669  0.3437 -1.7851 -0.0598
 9877TIP3    H253827   0.829   4.545   0.810 -0.6380  0.7952 -1.0693
 9878TIP3   OH253828   1.326   3.245   1.645  0.2835  0.0374 -0.1833
 9878TIP3    H153829   1.388   3.318   1.649  0.6524 -0.0908 -2.6135
 9878TIP3    H253830   1.247   3.283   1.607 -0.2481 -0.3988  0.4544
 9879TIP3   OH253831   2.794   2.920   9.441 -0.0165  0.1134  0.1226
 9879TIP3    H153832   2.803   2.874   9.524 -0.2357  1.5090  0.9404
 9879TIP3    H253833   2.876   2.903   9.395 -0.8462 -2.7535 -0.4946
 9880TIP3   OH253834   3.111   7.098   8.783  0.1061  0.0235  0.1086
 9880TIP3    H153835   3.017   7.090   8.795  0.2219  0.3288  1.3612
 9880TIP3    H253836   3.125   7.188   8.757  0.0305 -0.0801 -0.2877
 9881TIP3   OH253837   5.833   2.518   9.538  0.2666  0.3284 -0.1333
 9881TIP3    H153838   5.869   2.600   9.505  1.6180 -0.2326 -0.1206
 9881TIP3    H253839   5.892   2.493   9.609  0.2021 -0.9423 -0.5104
 9882TIP3   OH253840   6.928   2.712   0.489 -0.2056 -0.2716  0.1388
 9882TIP3    H153841   6.938   2.689   0.581  1.5261 -1.0586 -0.1961
 9882TIP3    H253842   7.017   2.733   0.460 -1.0899  3.3599 -0.5361
 9883TIP3   OH253843   2.919   6.858   0.325  0.1923  0.3060 -0.1034
 9883TIP3    H153844   2.956   6.771   0.310 -1.3073 -0.0982 -1.7505
 9883TIP3    H253845   2.995   6.917   0.320  1.0799 -0.7862  0.0349
 9884TIP3   OH253846   5.112   5.737   1.525 -0.1285 -0.1508  0.8946
 9884TIP3    H153847   5.068   5.668   1.575 -1.8848  0.2017 -0.0590
 9884TIP3    H253848   5.041   5.795   1.497  1.1384  1.2343  0.4319
 9885TIP3   OH253849   3.699   4.855   1.800  1.0054  0.5043  0.0768
 9885TIP3    H153850   3.665   4.766   1.798 -1.7281  1.1553  4.3305
 9885TIP3    H253851   3.787   4.846   1.838  0.3842 -0.4067  1.3862
 9886TIP3   OH253852   3.036   4.557   8.825 -0.3556 -0.3023 -0.3106
 9886TIP3    H153853   2.999   4.637   8.861  1.6212  0.4927  0.0732
 9886TIP3    H253854   3.130   4.568   8.833 -0.0056 -3.5249  1.6986
 9887TIP3   OH253855   1.526   4.382   7.068  0.1887 -0.4708  0.4646
 9887TIP3    H153856   1.445   4.336   7.046  0.7878 -0.3113 -2.3933
 9887TIP3    H253857   1.596   4.323   7.040  1.0390  0.3293  0.8479
 9888TIP3   OH253858   2.980   2.184   1.872  0.0065  0.5158 -0.1509
 9888TIP3    H153859   3.051   2.122   1.889  0.8050  1.8069  1.5695
 9888TIP3    H253860   3.010   2.238   1.799  0.8185  1.0279  0.5436
 9889TIP3   OH253861   6.855   4.561   8.122 -0.0184 -0.3383  0.7354
 9889TIP3    H153862   6.825   4.647   8.093 -0.7764 -0.9483 -0.3664
 9889TIP3    H253863   6.903   4.526   8.047 -1.9432 -1.9176  0.1466
 9890TIP3   OH253864   4.338   1.156   7.030  0.4582 -0.7107  0.1273
 9890TIP3    H153865   4.383   1.073   7.016  0.6927 -0.5220 -0.2620
 9890TIP3    H253866   4.345   1.172   7.124  2.3038 -0.0872 -0.0657
 9891TIP3   OH253867   3.546   1.315   9.232  0.0310 -0.3083  0.2128
 9891TIP3    H153868   3.477   1.295   9.295  0.4605 -1.0349  0.4667
 9891TIP3    H253869   3.557   1.410   9.236 -0.2305 -0.3085  0.9289
 9892TIP3   OH253870   5.392   2.238   0.879  0.2929 -0.1150  0.0243
 9892TIP3    H153871   5.441   2.174   0.828  0.8812  1.2075 -1.1435
 9892TIP3    H253872   5.457   2.275   0.939  0.0622 -0.2940  0.3860
 9893TIP3   OH253873   2.384   1.016   2.114  0.6187 -0.1984  0.4027
 9893TIP3    H153874   2.339   1.100   2.101 -0.8285 -0.7824  1.3963
 9893TIP3    H253875   2.413   0.991   2.026  0.1448  0.8280 -0.0689
 9894TIP3   OH253876   6.892   1.448   1.478 -0.0430 -0.3591  0.1134
 9894TIP3    H153877   6.900   1.478   1.388  1.5475  1.2617  0.7242
 9894TIP3    H253878   6.827   1.378   1.475 -0.0878 -0.2867 -2.2550
 9895TIP3   OH253879   2.077   1.031   1.268 -0.0839  0.3827 -0.2219
 9895TIP3    H153880   2.009   1.022   1.202  0.0465  2.2902 -0.6634
 9895TIP3    H253881   2.155   0.992   1.228 -0.9371 -2.1850  0.4456
 9896TIP3   OH253882   6.447   3.533   2.237 -0.3554  0.1366 -0.2391
 9896TIP3    H153883   6.501   3.612   2.240 -0.3604  0.0987  1.5604
 9896TIP3    H253884   6.360   3.564   2.210 -0.6475  0.9609  1.5120
 9897TIP3   OH253885   1.982   1.553   8.109  0.2187 -0.1213  0.3648
 9897TIP3    H153886   1.896   1.514   8.121  0.0963 -0.0937 -0.4240
 9897TIP3    H253887   2.043   1.484   8.135 -0.0360 -0.0765  1.1069
 9898TIP3   OH253888   1.851   7.385   7.590 -0.4041 -0.3991  0.2713
 9898TIP3    H153889   1.913   7.313   7.595 -0.8635 -0.7930  0.3058
 9898TIP3    H253890   1.765   7.344   7.598 -0.6150  0.3458  2.5830
 9899TIP3   OH253891   7.658   4.537   9.363 -0.1756  0.1516  0.7404
 9899TIP3    H153892   7.723   4.605   9.381  1.0906 -0.8628  0.1692
 9899TIP3    H253893   7.586   4.583   9.321  1.1847  0.9874 -0.7811
 9900TIP3   OH253894   4.285   6.551   9.577  0.2459 -0.2385 -0.5246
 9900TIP3    H153895   4.349   6.507   9.633 -0.4305  1.3094  1.6144
 9900TIP3    H253896   4.222   6.482   9.554  0.8928 -1.0641  0.1012
 9901TIP3   OH253897   4.268   4.243   7.725  0.1871  0.0402 -0.1120
 9901TIP3    H153898   4.179   4.269   7.750 -0.0790 -1.1996  0.3212
 9901TIP3    H253899   4.268   4.147   7.733  0.6547 -0.3054 -3.0849
 9902TIP3   OH253900   1.042   0.058   1.236  0.0200 -0.5860  0.1752
 9902TIP3    H153901   1.072  -0.016   1.290  0.6027  0.0828  0.7875
 9902TIP3    H253902   1.052   0.134   1.292  1.0378  0.1925 -1.0067
 9903TIP3   OH253903   1.699   0.852   0.793 -0.0659  0.4043  0.3369
 9903TIP3    H153904   1.732   0.830   0.706 -2.3988 -1.1097 -0.2412
 9903TIP3    H253905   1.715   0.774   0.846 -2.2071 -0.2470  0.1303
 9904TIP3   OH253906   1.805   6.122   1.422  0.2005  0.4627  0.0764
 9904TIP3    H153907   1.781   6.034   1.450  0.0523  0.5334  0.1757
 9904TIP3    H253908   1.881   6.144   1.475  0.7215  0.0916 -0.5072
 9905TIP3   OH253909   6.900   2.947   1.967 -0.3644  0.4348 -0.0557
 9905TIP3    H153910   6.979   2.925   1.918  0.0449 -0.6018  1.0362
 9905TIP3    H253911   6.927   2.944   2.059 -1.7040 -0.0578  0.3430
 9906TIP3   OH253912   7.027   3.625   8.953 -0.3361 -0.3289  0.5275
 9906TIP3    H153913   7.077   3.545   8.941  0.9994  0.6123 -0.3640
 9906TIP3    H253914   6.995   3.620   9.043  1.6233 -0.8332  1.2409
 9907TIP3   OH253915   5.211   3.897   1.596  0.4869 -0.2245 -0.1614
 9907TIP3    H153916   5.150   3.938   1.535  0.1981 -0.5064 -0.0638
 9907TIP3    H253917   5.156   3.848   1.657  0.6571  1.0997  1.1496
 9908TIP3   OH253918   5.649   1.306   0.875  0.3254  0.5564  0.2426
 9908TIP3    H153919   5.697   1.363   0.815 -0.0419  1.2900  0.6223
 9908TIP3    H253920   5.563   1.295   0.834  0.7323 -0.5841 -0.3350
 9909TIP3   OH253921   0.726   0.197   2.634 -0.4803  0.0579  0.6697
 9909TIP3    H153922   0.745   0.251   2.557 -1.6507 -1.7835 -1.0141
 9909TIP3    H253923   0.639   0.224   2.662 -1.2649 -1.1351 -0.4547
 9910TIP3   OH253924   2.979   4.537   9.508 -0.1601 -0.3402 -0.4271
 9910TIP3    H153925   2.949   4.623   9.479 -0.5773  0.4127  1.9987
 9910TIP3    H253926   3.075   4.544   9.505 -0.1868  0.2763 -0.1077
 9911TIP3   OH253927   4.818   5.466   2.024 -0.2890  0.1297  0.2414
 9911TIP3    H153928   4.887   5.494   2.084  1.4423  0.7087 -1.8935
 9911TIP3    H253929   4.822   5.370   2.026  0.7677  0.1544 -0.0220
 9912TIP3   OH253930   4.077   6.881   8.551  0.0557 -0.2166 -0.1755
 9912TIP3    H153931   3.987   6.859   8.526  0.3569  1.8701 -3.7665
 9912TIP3    H253932   4.117   6.796   8.570 -2.0745 -1.4420 -0.7723
 9913TIP3   OH253933   0.959   7.572   8.483  0.0453  0.4078 -0.1301
 9913TIP3    H153934   0.985   7.497   8.537 -2.5255 -0.5439 -0.0617
 9913TIP3    H253935   0.939   7.641   8.546  2.1004  1.1047 -0.1794
 9914TIP3   OH253936   5.006   1.571   1.292  0.4605  0.2942 -0.4770
 9914TIP3    H153937   5.033   1.571   1.200  1.7519  1.6410 -0.1549
 9914TIP3    H253938   4.915   1.600   1.291  0.1256 -0.7386 -1.3857
 9915TIP3   OH253939   2.012   0.635   8.908 -0.8279  0.3602  0.6723
 9915TIP3    H153940   2.082   0.580   8.874 -2.0415 -1.1662  0.4757
 9915TIP3    H253941   2.056   0.704   8.957  0.8136  0.0899 -0.3650
 9916TIP3   OH253942   3.633   0.907   8.956 -0.4491 -0.1157  0.6809
 9916TIP3    H153943   3.709   0.939   9.005 -0.2569 -1.3277  1.2311
 9916TIP3    H253944   3.613   0.823   8.997 -0.7089 -0.8663 -0.8988
 9917TIP3   OH253945   3.436   7.288   1.806  0.1801 -0.0683 -0.5129
 9917TIP3    H153946   3.392   7.310   1.724  1.8707  0.3739 -1.3639
 9917TIP3    H253947   3.458   7.196   1.798  1.8895  0.3674 -1.3908
 9918TIP3   OH253948   1.900   0.395   2.664 -0.7073 -0.4745 -0.4323
 9918TIP3    H153949   1.910   0.325   2.600  2.5373  1.0882 -1.8452
 9918TIP3    H253950   1.842   0.458   2.622 -0.9653 -0.7846 -0.5451
 9919TIP3   OH253951   6.606   1.010   9.704  0.1182 -0.0054  0.0840
 9919TIP3    H153952   6.622   1.101   9.729  0.3899 -0.2132  0.6887
 9919TIP3    H253953   6.690   0.978   9.672 -0.3224  0.3747 -1.5112
 9920TIP3   OH253954   0.815   4.887   9.510  0.0957 -0.4748 -0.0025
 9920TIP3    H153955   0.822   4.832   9.588 -1.6073 -0.0849  0.4829
 9920TIP3    H253956   0.795   4.974   9.545  0.0909 -0.1324 -0.8501
 9921TIP3   OH253957   2.051   4.288   0.905 -0.7327  0.3759  0.2527
 9921TIP3    H153958   1.963   4.252   0.893 -0.2491 -0.6437 -0.2973
 9921TIP3    H253959   2.050   4.323   0.994 -0.8594 -2.0880  1.3034
 9922TIP3   OH253960   4.812   2.468   1.800 -0.2536  0.5116  0.1095
 9922TIP3    H153961   4.738   2.434   1.750 -0.8896  1.8661  0.0781
 9922TIP3    H253962   4.816   2.561   1.777  0.7822  0.6989  0.9450
 9923TIP3   OH253963   3.807   4.423   0.672  0.6385  0.1245 -0.0819
 9923TIP3    H153964   3.892   4.382   0.659  1.2114  0.8251  1.2608
 9923TIP3    H253965   3.751   4.353   0.704  0.9944 -0.1102  0.0306
 9924TIP3   OH253966   2.360   6.788   7.755  0.7130  0.2928 -0.0129
 9924TIP3    H153967   2.391   6.730   7.825 -0.8306  0.2308  0.6603
 9924TIP3    H253968   2.355   6.731   7.678  0.0953 -0.2643  0.4236
 9925TIP3   OH253969   0.224   6.422   0.517 -0.2176 -0.2830  0.3647
 9925TIP3    H153970   0.135   6.403   0.489 -0.0436  1.4781 -1.6376
 9925TIP3    H253971   0.279   6.362   0.467 -0.1228  0.5561 -0.5584
 9926TIP3   OH253972   4.666   5.884   8.020  0.0271  0.4754  0.2950
 9926TIP3    H153973   4.705   5.969   8.039  0.1183  0.0307  2.3425
 9926TIP3    H253974   4.739   5.828   7.996 -0.0782  1.0320 -1.4587
 9927TIP3   OH253975   3.426   0.014   1.592 -0.2610  0.4697 -0.1049
 9927TIP3    H153976   3.423  -0.068   1.542  0.1194  0.3904 -0.0012
 9927TIP3    H253977   3.518   0.039   1.592 -0.2134  0.3350  0.7724
 9928TIP3   OH253978   4.230   4.972   1.029 -0.1293  0.2018  0.4783
 9928TIP3    H153979   4.310   5.019   1.055  0.5145 -1.4422  1.6636
 9928TIP3    H253980   4.230   4.894   1.085 -3.2271  0.7315  1.3781
 9929TIP3   OH253981   0.809   6.743   0.993 -0.0571  0.3541 -0.3584
 9929TIP3    H153982   0.832   6.836   0.985 -0.3366  0.3321 -1.6412
 9929TIP3    H253983   0.718   6.744   1.025 -0.5443  0.5703 -1.6872
 9930TIP3   OH253984   2.357   1.341   2.521 -0.4298  0.6842 -1.0008
 9930TIP3    H153985   2.435   1.326   2.574  0.5450  0.1478 -2.5250
 9930TIP3    H253986   2.369   1.286   2.444 -2.4581  0.3934 -1.1621
 9931TIP3   OH253987   0.815   0.113   0.343  0.5032 -0.1750  0.8702
 9931TIP3    H153988   0.828   0.019   0.339 -0.5668 -0.3138  0.3235
 9931TIP3    H253989   0.745   0.131   0.280  3.4852  1.5437 -2.3161
 9932TIP3   OH253990   6.498   7.069   9.488 -0.0573 -0.2229 -0.1592
 9932TIP3    H153991   6.486   7.130   9.561  0.5789  1.2097 -1.1838
 9932TIP3    H253992   6.559   7.003   9.520  0.4146  0.5306  0.5250
 9933TIP3   OH253993   6.271   3.615   8.633  0.0062 -0.3612 -0.4136
 9933TIP3    H153994   6.228   3.584   8.553  1.3562 -0.6044 -1.0865
 9933TIP3    H253995   6.315   3.696   8.606 -0.3804  0.1086  0.3576
 9934TIP3   OH253996   4.646   0.653   2.588 -0.4631  0.0523  0.3124
 9934TIP3    H153997   4.593   0.573   2.584 -0.0018 -0.2024 -1.6222
 9934TIP3    H253998   4.736   0.621   2.594 -0.2358  0.3916 -1.0408
 9935TIP3   OH253999   5.958   5.050   8.959  0.1470  0.9629 -0.2479
 9935TIP3    H154000   5.931   5.071   8.870 -1.4207 -0.8542 -0.2778
 9935TIP3    H254001   5.964   4.954   8.960  2.0441  1.0425  1.1101
 9936TIP3   OH254002   4.982   5.282   9.118  0.1939 -0.4607 -0.4679
 9936TIP3    H154003   4.985   5.343   9.192  1.1894 -1.6104  0.4882
 9936TIP3    H254004   4.894   5.292   9.082 -0.1523  0.4741  0.5798
 9937TIP3   OH254005   3.732   2.824   1.142  0.1160  0.4417  0.3484
 9937TIP3    H154006   3.719   2.825   1.237 -1.0436 -1.3678  0.2621
 9937TIP3    H254007   3.731   2.916   1.117  0.3448  0.9525  2.0753
 9938TIP3   OH254008   2.340   7.537   1.361 -0.1027 -0.1616  0.3310
 9938TIP3    H154009   2.411   7.473   1.369 -0.0202  0.0939  1.8475
 9938TIP3    H254010   2.365   7.608   1.420 -1.0860  0.4411  0.0453
 9939TIP3   OH254011   1.835   6.320   1.170 -0.9799  0.0338 -0.2691
 9939TIP3    H154012   1.804   6.330   1.080 -0.7632 -1.2463 -0.5092
 9939TIP3    H254013   1.798   6.237   1.199  1.2979 -1.0426 -0.2009
 9940TIP3   OH254014   0.256   0.770   9.614  0.2192  0.2233 -0.7389
 9940TIP3    H154015   0.306   0.818   9.680  0.6824  1.5371 -1.9973
 9940TIP3    H254016   0.318   0.705   9.580  0.3310  0.2911 -0.6643
 9941TIP3   OH254017   0.451   4.917   7.515 -0.5637 -0.4278  0.8927
 9941TIP3    H154018   0.365   4.933   7.554 -0.0311  1.9654  1.2154
 9941TIP3    H254019   0.477   5.001   7.479  1.5055 -1.1928  0.4711
 9942TIP3   OH254020   3.460   3.967   2.495  0.0097 -0.3377  0.0194
 9942TIP3    H154021   3.506   3.901   2.546  1.9374  0.8622 -0.0684
 9942TIP3    H254022   3.405   3.917   2.435  1.1521 -1.8547  0.1796
 9943TIP3   OH254023   5.507   4.893   3.012  0.3668 -0.1876 -0.5230
 9943TIP3    H154024   5.449   4.829   3.052 -0.2329  0.0240 -1.0478
 9943TIP3    H254025   5.555   4.931   3.086  0.7120 -1.2041 -0.2030
 9944TIP3   OH254026   5.345   6.866   7.910  0.9597 -0.0532 -0.1465
 9944TIP3    H154027   5.314   6.909   7.990 -1.6555  0.6611 -1.4531
 9944TIP3    H254028   5.307   6.778   7.914  2.5693 -0.7681  0.3390
 9945TIP3   OH254029   3.646   4.413   0.327 -0.1694 -0.1303 -0.6739
 9945TIP3    H154030   3.602   4.387   0.408 -1.8293  3.7234 -0.0961
 9945TIP3    H254031   3.579   4.404   0.259 -0.3975  1.2178 -0.6631
 9946TIP3   OH254032   4.426   0.784   1.995  0.1013  0.0119  0.1102
 9946TIP3    H154033   4.355   0.843   1.971 -0.0500 -0.0796  0.3276
 9946TIP3    H254034   4.463   0.821   2.075  0.0863 -0.1166  0.1784
 9947TIP3   OH254035   6.680   2.485   0.645  0.2318 -0.1644  0.2635
 9947TIP3    H154036   6.750   2.529   0.694 -0.5613  0.7258  0.6292
 9947TIP3    H254037   6.599   2.528   0.675 -0.2210  1.4460 -2.8047
 9948TIP3   OH254038   1.590   4.494   1.603  0.1179  0.0516  0.2022
 9948TIP3    H154039   1.520   4.437   1.572  0.7646 -1.1418  0.8120
 9948TIP3    H254040   1.546   4.566   1.646 -0.7383  0.1664 -0.8452
 9949TIP3   OH254041   5.947   0.766   0.966  0.3973 -0.5186  0.6390
 9949TIP3    H154042   5.987   0.846   0.998 -1.3398  0.0787  1.4451
 9949TIP3    H254043   5.863   0.761   1.011 -0.5166 -1.6347 -1.0611
 9950TIP3   OH254044   4.189   5.521   7.351 -0.3972 -0.3066  0.0157
 9950TIP3    H154045   4.143   5.594   7.393 -2.4813 -0.8870 -1.0704
 9950TIP3    H254046   4.173   5.534   7.257  0.1840 -1.5146 -0.2756
 9951TIP3   OH254047   3.292   2.986   8.164 -0.6685 -0.3594 -0.0741
 9951TIP3    H154048   3.370   2.991   8.219 -0.7639 -0.5937  0.0801
 9951TIP3    H254049   3.246   2.908   8.194  0.0360 -1.3496 -1.4646
 9952TIP3   OH254050   5.680   4.885   9.114  0.3674  0.4415  0.0078
 9952TIP3    H154051   5.653   4.834   9.037  0.1417 -0.2261  0.5196
 9952TIP3    H254052   5.721   4.963   9.078 -0.6395  0.6232 -0.7972
 9953TIP3   OH254053   2.790   5.576   9.732 -0.2821 -0.5023  0.6180
 9953TIP3    H154054   2.734   5.570   9.809  0.1530 -0.3164  0.9471
 9953TIP3    H254055   2.858   5.638   9.756 -0.4265 -0.0592 -0.0899
 9954TIP3   OH254056   2.991   4.690   1.192  0.4579  0.2094 -0.8680
 9954TIP3    H154057   2.907   4.726   1.163  0.0893  0.2824  0.2241
 9954TIP3    H254058   2.967   4.614   1.245  1.0606  0.3844 -0.3366
 9955TIP3   OH254059   2.488   0.951   0.156 -0.0466 -0.1015 -0.4317
 9955TIP3    H154060   2.524   0.896   0.225  2.1648  0.9682 -0.6551
 9955TIP3    H254061   2.515   0.908   0.075 -0.9944 -0.3324 -0.6328
 9956TIP3   OH254062   5.721   0.474   6.985 -0.1508 -0.1789  0.5037
 9956TIP3    H154063   5.693   0.459   6.895  0.2768 -0.5461  0.4307
 9956TIP3    H254064   5.665   0.417   7.038 -0.0294 -0.3717  0.4229
 9957TIP3   OH254065   1.656   0.376   0.511 -0.3734 -0.1519 -0.4821
 9957TIP3    H154066   1.697   0.457   0.481  1.2287 -0.4113  0.8557
 9957TIP3    H254067   1.580   0.404   0.561  0.8973  0.6264  1.0674
 9958TIP3   OH254068   2.686   2.916   8.182 -0.8236 -0.1491  0.6796
 9958TIP3    H154069   2.740   2.968   8.122 -0.2024  1.0336  2.2007
 9958TIP3    H254070   2.702   2.825   8.155  0.7923  0.2515  0.1483
 9959TIP3   OH254071   2.585   5.881   9.117 -0.2712 -0.4812 -0.1635
 9959TIP3    H154072   2.522   5.836   9.173 -0.5424  0.7691  0.5865
 9959TIP3    H254073   2.669   5.841   9.139 -0.7540 -2.1755 -1.1830
 9960TIP3   OH254074   2.559   5.513   7.948  0.3491 -0.2263 -0.4031
 9960TIP3    H154075   2.629   5.448   7.954  0.2224 -0.3498 -0.2541
 9960TIP3    H254076   2.481   5.462   7.926  0.8584  0.2211 -3.8026
 9961TIP3   OH254077   1.947   2.352   9.863  0.2652 -0.0161  0.4176
 9961TIP3    H154078   1.961   2.277   9.921  0.0866 -0.2600  0.1529
 9961TIP3    H254079   1.871   2.398   9.899  0.0152 -0.2939  0.2544
 9962TIP3   OH254080   2.814   6.561   7.215 -0.0958  0.4448  0.4558
 9962TIP3    H154081   2.864   6.525   7.288  0.6077  0.9174  0.2187
 9962TIP3    H254082   2.878   6.569   7.144 -1.1588 -1.9421 -0.9149
 9963TIP3   OH254083   7.112   5.369   0.544  0.1063  0.0907  0.1986
 9963TIP3    H154084   7.199   5.392   0.512 -0.0433  0.7383  0.2467
 9963TIP3    H254085   7.096   5.282   0.509 -0.0367  0.7513 -1.4375
 9964TIP3   OH254086   2.072   5.786   0.847 -0.4300  0.3090 -0.2585
 9964TIP3    H154087   2.085   5.740   0.764 -1.5246  0.0207 -0.2813
 9964TIP3    H254088   2.112   5.728   0.912 -0.5099  0.0157 -0.4631
 9965TIP3   OH254089   6.134   6.541   0.085  0.0499 -0.1603 -0.9043
 9965TIP3    H154090   6.103   6.450   0.087  0.5730 -0.3396  0.5944
 9965TIP3    H254091   6.075   6.588   0.143 -0.0478  0.4100 -1.4596
 9966TIP3   OH254092   3.543   0.621   8.534 -0.2205 -0.3523 -0.3920
 9966TIP3    H154093   3.480   0.667   8.590  1.5114  0.8524  0.6785
 9966TIP3    H254094   3.556   0.537   8.578 -0.0118 -0.0217  0.1998
 9967TIP3   OH254095   0.992   6.835   9.416  0.3182  0.0871 -0.4887
 9967TIP3    H154096   1.075   6.794   9.391  0.7299  0.2424  0.5809
 9967TIP3    H254097   0.926   6.784   9.369  0.8491 -1.5488  0.4609
 9968TIP3   OH254098   2.870   5.422   8.087  0.1500 -0.2117  0.0740
 9968TIP3    H154099   2.844   5.388   8.172 -0.2622 -0.7204 -0.2476
 9968TIP3    H254100   2.859   5.348   8.027  0.0299  0.2570 -0.4951
 9969TIP3   OH254101   1.095   2.618   0.960  0.1751 -0.0878  0.8276
 9969TIP3    H154102   1.041   2.658   1.027 -1.7608 -1.8803  0.4379
 9969TIP3    H254103   1.060   2.651   0.877 -0.1291 -0.9759  0.5856
 9970TIP3   OH254104   0.336   0.507   0.996  0.2594 -0.1408  0.4495
 9970TIP3    H154105   0.270   0.448   1.031 -1.4250  1.8014  0.7517
 9970TIP3    H254106   0.354   0.474   0.908  0.7660 -2.1145  1.2308
 9971TIP3   OH254107   1.658   0.096   0.589  1.0155 -0.6288  0.4340
 9971TIP3    H154108   1.700   0.081   0.675  1.2762  0.6187  0.5409
 9971TIP3    H254109   1.668   0.190   0.574  1.2175 -0.8786 -1.1043
 9972TIP3   OH254110   5.826   6.326   9.279  0.1925 -0.0590 -0.2141
 9972TIP3    H154111   5.837   6.261   9.210 -0.1058  0.2093 -0.5136
 9972TIP3    H254112   5.843   6.278   9.360  1.0643 -0.2525 -0.5017
 9973TIP3   OH254113   1.346   7.377   8.639  0.1944 -0.1188 -0.1662
 9973TIP3    H154114   1.288   7.442   8.680  2.0750  1.5347  0.0117
 9973TIP3    H254115   1.350   7.403   8.547  1.9092  0.8244  0.1375
 9974TIP3   OH254116   1.707   0.634   0.952  0.2066 -0.5543 -1.0865
 9974TIP3    H154117   1.674   0.623   1.041  1.2861  2.9035 -0.1032
 9974TIP3    H254118   1.780   0.572   0.946  1.1662  0.2350  1.0907
 9975TIP3   OH254119   5.748   7.609   9.507  0.1232 -0.8100  0.1299
 9975TIP3    H154120   5.669   7.557   9.518  0.8278 -1.4132  3.3276
 9975TIP3    H254121   5.734   7.687   9.561  0.6283  0.4644 -1.5038
 9976TIP3   OH254122   5.041   0.169   0.908 -0.3392 -0.2366  0.0852
 9976TIP3    H154123   4.955   0.207   0.925 -0.0200  0.2354  0.6621
 9976TIP3    H254124   5.073   0.143   0.994 -0.2609 -1.2053 -0.2201
 9977TIP3   OH254125   4.669   2.751   1.815  0.4102 -0.1931 -0.6207
 9977TIP3    H154126   4.745   2.809   1.818  0.2486  0.0206 -0.5929
 9977TIP3    H254127   4.608   2.788   1.879  0.3208 -0.4184 -0.5726
 9978TIP3   OH254128   1.748   4.076   8.105 -0.2257  0.5514  0.1752
 9978TIP3    H154129   1.685   4.064   8.034 -0.2422  0.9491  0.1213
 9978TIP3    H254130   1.812   4.139   8.071  1.8372 -1.9129 -0.8314
 9979TIP3   OH254131   2.240   4.022   7.853  0.4756 -0.6113 -0.2782
 9979TIP3    H154132   2.155   3.979   7.860  1.3590 -2.4441 -0.2149
 9979TIP3    H254133   2.298   3.955   7.816  1.7864  0.7549 -0.8364
 9980TIP3   OH254134   7.669   6.247   2.203 -0.0903 -0.2777  0.3641
 9980TIP3    H154135   7.655   6.152   2.210 -0.6979 -0.0586  4.0126
 9980TIP3    H254136   7.763   6.257   2.218  0.4024 -0.3709 -2.3102
 9981TIP3   OH254137   3.505   1.128   7.257  0.1310  0.0997 -0.0486
 9981TIP3    H154138   3.566   1.055   7.251 -0.3498 -0.2194 -1.4659
 9981TIP3    H254139   3.418   1.087   7.259 -0.1053  0.6019  0.2112
 9982TIP3   OH254140   3.347   4.124   8.020 -0.1249  0.2375 -0.1144
 9982TIP3    H154141   3.319   4.159   8.104  0.8630  1.1227 -0.1356
 9982TIP3    H254142   3.387   4.040   8.041 -0.9416 -0.0903  0.1523
 9983TIP3   OH254143   4.947   0.917   1.218  0.2471 -0.2342  0.2296
 9983TIP3    H154144   4.905   0.849   1.271 -0.3040 -0.1178 -0.0514
 9983TIP3    H254145   4.912   0.903   1.130 -0.1038  0.6033  0.2341
 9984TIP3   OH254146   3.786   0.705   0.743  0.3072  0.3217 -0.0495
 9984TIP3    H154147   3.761   0.712   0.650  0.8471  1.0347 -0.1486
 9984TIP3    H254148   3.875   0.672   0.741 -0.1337 -0.9376  0.2696
 9985TIP3   OH254149   2.882   0.454   0.641  0.6943  0.2043 -0.9016
 9985TIP3    H154150   2.792   0.456   0.607 -0.0569 -1.3549  0.8327
 9985TIP3    H254151   2.900   0.545   0.666 -0.3030  0.5849 -1.5044
 9986TIP3   OH254152   0.701   2.742   9.237 -0.1837  0.4263  0.0807
 9986TIP3    H154153   0.707   2.830   9.276  1.9740 -0.5767  2.2740
 9986TIP3    H254154   0.633   2.698   9.288 -0.7870  0.5860 -0.5704
 9987TIP3   OH254155   4.815   6.986   0.574  0.5126  0.5693  0.0261
 9987TIP3    H154156   4.891   6.935   0.546  0.7620  1.3705 -0.8361
 9987TIP3    H254157   4.852   7.059   0.625  0.1229 -0.3783  1.7575
 9988TIP3   OH254158   3.335   4.368   1.173 -0.0945 -0.4510 -0.1443
 9988TIP3    H154159   3.351   4.314   1.251 -0.7853 -0.2845  0.1221
 9988TIP3    H254160   3.352   4.457   1.202 -0.2688 -0.3969 -0.2085
 9989TIP3   OH254161   7.156   6.692   0.076 -0.5554 -0.0968  0.3122
 9989TIP3    H154162   7.092   6.760   0.095  1.5628  2.0875  0.0385
 9989TIP3    H254163   7.181   6.707  -0.015  0.2764 -0.9985  0.3801
 9990TIP3   OH254164   7.191   3.317   8.387  0.4176  0.2819  0.4670
 9990TIP3    H154165   7.247   3.388   8.419  0.0406  0.2105  1.3207
 9990TIP3    H254166   7.244   3.273   8.321  0.4145  1.7716 -0.5865
 9991TIP3   OH254167   0.964   5.793   7.204  0.1362 -0.3914 -0.8709
 9991TIP3    H154168   1.003   5.757   7.124  0.0162 -0.8288 -0.7336
 9991TIP3    H254169   0.938   5.882   7.180  0.9377 -0.1989 -1.0538
 9992TIP3   OH254170   5.159   3.821   9.064 -0.3306 -0.2245  0.1451
 9992TIP3    H154171   5.141   3.803   8.972 -0.6163  0.6282  0.0298
 9992TIP3    H254172   5.073   3.840   9.102 -0.1859 -0.3525  0.5380
 9993TIP3   OH254173   1.116   4.880   9.004  0.3795  0.4590 -0.1944
 9993TIP3    H154174   1.107   4.799   8.954  0.5504  0.4040 -0.1357
 9993TIP3    H254175   1.160   4.941   8.945  2.4327 -0.2223  0.5428
 9994TIP3   OH254176   1.327   5.775   1.894  0.5084 -0.2295 -0.0918
 9994TIP3    H154177   1.357   5.863   1.920 -0.4748 -0.5201  2.2788
 9994TIP3    H254178   1.269   5.790   1.820  1.3222  0.9913 -0.5055
 9995TIP3   OH254179   7.248   4.389   1.149  0.3998 -0.1176 -0.2945
 9995TIP3    H154180   7.335   4.405   1.114  0.2170  0.2507 -0.5872
 9995TIP3    H254181   7.222   4.472   1.190  0.2715 -0.2882 -0.0221
 9996TIP3   OH254182   6.560   0.178   1.981 -0.5427  0.1343  0.1762
 9996TIP3    H154183   6.581   0.104   2.037 -2.3413  0.5328  1.4646
 9996TIP3    H254184   6.625   0.245   2.005 -0.6340 -0.0720  1.0444
 9997TIP3   OH254185   3.312   5.342   2.593 -0.4163 -0.3494  0.1349
 9997TIP3    H154186   3.289   5.432   2.615  2.7569 -0.0223  2.9435
 9997TIP3    H254187   3.229   5.295   2.594 -2.1009  2.3972 -0.9326
 9998TIP3   OH254188   1.510   1.050   0.781  0.1012  0.3787  0.4395
 9998TIP3    H154189   1.549   0.963   0.770  2.3011  1.0506  2.1558
 9998TIP3    H254190   1.445   1.037   0.851 -0.2501 -0.0405  0.0475
 9999TIP3   OH254191   2.193   6.992   0.883  0.2330 -0.0048 -0.2711
 9999TIP3    H154192   2.127   6.923   0.882 -0.5725  0.7563 -1.8890
 9999TIP3    H254193   2.189   7.027   0.972 -3.0583  1.4073 -0.8434
10000TIP3   OH254194   7.387   3.587   0.922  0.3417  0.5490 -0.6700
10000TIP3    H154195   7.435   3.604   1.003  0.3888  0.5313 -0.6943
10000TIP3    H254196   7.302   3.628   0.935  0.1480  0.0692 -0.3874
10001TIP3   OH254197   3.188   5.489   8.502  0.1209  0.7324 -0.4715
10001TIP3    H154198   3.104   5.491   8.456 -0.0237 -0.3164 -0.2928
10001TIP3    H254199   3.249   5.454   8.437 -0.1862 -1.2471  0.2209
10002TIP3   OH254200   5.620   4.136   9.837 -0.1757  0.1105 -0.9058
10002TIP3    H154201   5.624   4.186   9.755 -0.8869  0.7032 -0.5845
10002TIP3    H254202   5.593   4.199   9.903 -0.2080 -0.5010 -0.3195
10003TIP3   OH254203   2.075   6.815   9.152  0.6004 -0.4399  0.2995
10003TIP3    H154204   2.008   6.848   9.092 -1.2764  0.6549  2.8102
10003TIP3    H254205   2.145   6.880   9.149  0.1760  0.0000 -0.1029
10004TIP3   OH254206   5.077   4.504   0.853 -0.1149  0.2126  0.4581
10004TIP3    H154207   5.007   4.566   0.874 -0.2402  0.7452 -1.3180
10004TIP3    H254208   5.146   4.559   0.815 -0.2003 -0.6994 -1.0904
10005TIP3   OH254209   3.017   6.155   1.079  0.2246 -0.1217 -0.0125
10005TIP3    H154210   3.016   6.186   0.988  0.5243  0.3211  0.1319
10005TIP3    H254211   2.979   6.227   1.129  0.6596 -0.1040  0.2943
10006TIP3   OH254212   6.281   0.130   1.597  0.2657  0.7327  0.0478
10006TIP3    H154213   6.374   0.147   1.615  0.7755  0.6852 -2.2077
10006TIP3    H254214   6.241   0.122   1.684  1.8510  3.3395  1.1433
10007TIP3   OH254215   1.687   4.239   1.941  0.2875 -0.3032 -0.1947
10007TIP3    H154216   1.720   4.196   2.020  1.0422 -1.2507 -0.9916
10007TIP3    H254217   1.755   4.301   1.917  0.4453 -0.6237 -0.5732
10008TIP3   OH254218   2.559   2.592   1.809 -0.1221  0.1826 -0.0841
10008TIP3    H154219   2.617   2.527   1.851  0.0659  0.6676  0.4232
10008TIP3    H254220   2.484   2.541   1.779  1.0252 -0.6440 -1.7047
10009TIP3   OH254221   6.154   5.360   0.265 -0.3309  0.4299 -0.4404
10009TIP3    H154222   6.102   5.329   0.191 -0.3666  1.0838 -0.6961
10009TIP3    H254223   6.129   5.452   0.275 -0.7077  0.2214  0.7171
10010TIP3   OH254224   5.425   4.338   0.890 -1.0488  0.3206  0.1561
10010TIP3    H154225   5.366   4.263   0.878  0.2629 -0.8819  0.7938
10010TIP3    H254226   5.380   4.394   0.953 -1.5869 -0.4865  0.5163
10011TIP3   OH254227   6.856   6.758   2.142 -0.1193  0.1897 -0.2821
10011TIP3    H154228   6.876   6.679   2.091  0.7589  0.5062 -0.4496
10011TIP3    H254229   6.761   6.755   2.153 -0.2809 -0.1593 -1.5043
10012TIP3   OH254230   0.955   2.427   9.084 -0.5560 -0.1881 -0.2756
10012TIP3    H154231   0.893   2.367   9.125 -0.3213 -0.1730  0.1077
10012TIP3    H254232   0.950   2.506   9.137 -2.0776  0.7532 -1.7252
10013TIP3   OH254233   1.944   4.914   8.593  0.1641  0.1857  0.1771
10013TIP3    H154234   1.894   4.849   8.544 -0.1050 -1.0445  1.9672
10013TIP3    H254235   1.921   4.998   8.552 -0.3203 -0.7212 -1.4985
10014TIP3   OH254236   5.963   1.651   0.056 -0.1605  0.1599  0.1314
10014TIP3    H154237   5.947   1.589  -0.015  2.1895  0.3751 -0.6715
10014TIP3    H254238   5.896   1.630   0.121 -0.8874 -1.6506 -1.1056
10015TIP3   OH254239   1.271   3.425   0.416  0.5271  1.3429  0.3051
10015TIP3    H154240   1.289   3.381   0.499 -0.5249  1.1944  0.4606
10015TIP3    H254241   1.235   3.357   0.359  1.7572  1.3103 -0.4760
10016TIP3   OH254242   0.304   7.036   1.911 -0.1057  0.3852  0.1324
10016TIP3    H154243   0.322   7.129   1.921 -1.1410  0.6375 -0.2852
10016TIP3    H254244   0.277   7.007   1.998 -1.0948  0.7799 -0.0300
10017TIP3   OH254245   1.779   6.333   0.310 -0.0060  0.3707  0.1477
10017TIP3    H154246   1.705   6.301   0.258  0.5387 -2.3440  0.8932
10017TIP3    H254247   1.739   6.391   0.375 -1.1528  0.8464 -0.9352
10018TIP3   OH254248   2.163   2.829   9.175  0.0575  0.1308 -0.3111
10018TIP3    H154249   2.214   2.849   9.254  1.0324  1.5274 -1.2537
10018TIP3    H254250   2.127   2.742   9.192  0.1770  0.4190  1.7022
10019TIP3   OH254251   2.501   6.909   9.137 -0.1560  0.7932  0.2456
10019TIP3    H154252   2.585   6.862   9.134  0.8601  2.5878 -0.4752
10019TIP3    H254253   2.466   6.888   9.224 -0.2596 -2.0790 -0.3851
10020TIP3   OH254254   2.530   6.870   8.391  0.1951 -0.0443  0.8618
10020TIP3    H154255   2.483   6.872   8.308  2.3411 -2.4859 -0.5515
10020TIP3    H254256   2.563   6.959   8.402 -0.5717  0.4494 -0.5982
10021TIP3   OH254257   5.387   2.369   9.256 -0.0648 -0.2212 -0.0850
10021TIP3    H154258   5.471   2.385   9.300  0.5456  1.1574 -1.6070
10021TIP3    H254259   5.408   2.305   9.188 -0.7552 -1.5165  0.8899
10022TIP3   OH254260   1.363   5.303   8.380  0.3260 -0.2455  0.2094
10022TIP3    H154261   1.417   5.239   8.334  1.1374  1.3219 -1.1037
10022TIP3    H254262   1.382   5.387   8.337 -1.9572  0.6282  0.7586
10023TIP3   OH254263   6.256   7.377   2.146 -0.1663 -0.0651 -0.2101
10023TIP3    H154264   6.183   7.316   2.148  1.4666 -2.1378  0.1916
10023TIP3    H254265   6.244   7.428   2.066 -1.8669 -0.5474 -0.2857
10024TIP3   OH254266   4.905   6.106   1.755 -0.3454  0.0639  0.4869
10024TIP3    H154267   4.859   6.165   1.815 -0.3906  0.0608  0.4551
10024TIP3    H254268   4.896   6.019   1.794  1.8741  0.3849  1.8895
10025TIP3   OH254269   3.541   5.713   0.412 -0.2886 -0.4992  0.1255
10025TIP3    H154270   3.452   5.748   0.422 -0.7256 -1.0631 -1.4832
10025TIP3    H254271   3.583   5.730   0.496 -1.0330  2.2724  0.0275
10026TIP3   OH254272   1.050   5.862   7.882 -0.3663  0.0449 -0.0058
10026TIP3    H154273   1.048   5.821   7.968 -0.0717 -0.4685 -0.2329
10026TIP3    H254274   1.072   5.790   7.822  1.3212  0.7441 -0.2827
10027TIP3   OH254275   1.631   1.286   2.401 -0.2684  0.1743 -0.6316
10027TIP3    H154276   1.677   1.205   2.379 -0.1347  0.6408 -2.1936
10027TIP3    H254277   1.542   1.272   2.367 -0.2729  0.6426 -0.8089
10028TIP3   OH254278   4.209   1.505   1.236  0.1497 -0.0894  0.0147
10028TIP3    H154279   4.225   1.422   1.281 -0.5200 -0.3592 -0.2346
10028TIP3    H254280   4.164   1.480   1.155  2.1312  0.2901 -1.2795
10029TIP3   OH254281   6.009   6.948   9.164  0.8069 -0.0795  0.0760
10029TIP3    H154282   5.941   6.902   9.213  0.2431 -1.3039 -1.7440
10029TIP3    H254283   6.079   6.962   9.227 -0.6932  0.2899  1.7391
10030TIP3   OH254284   0.832   0.219   9.367  0.3494  0.0937 -0.4574
10030TIP3    H154285   0.913   0.212   9.316 -0.4839  1.2812 -2.0351
10030TIP3    H254286   0.792   0.133   9.360  1.5826 -0.6085  0.6027
10031TIP3   OH254287   0.130   1.591   0.722 -0.3660 -0.3789 -0.4254
10031TIP3    H154288   0.120   1.636   0.638 -0.7037 -0.8293 -0.6327
10031TIP3    H254289   0.057   1.530   0.725  0.4605 -1.3900 -0.4487
10032TIP3   OH254290   1.538   7.474   0.470  0.2885  0.1767 -0.0987
10032TIP3    H154291   1.501   7.388   0.486 -0.2992  0.5784  0.7862
10032TIP3    H254292   1.593   7.493   0.546  2.0473 -0.2327 -1.2044
10033TIP3   OH254293   7.147   7.057   9.133  0.5766 -0.3842 -0.3432
10033TIP3    H154294   7.152   7.044   9.038 -0.6984  0.7225 -0.5915
10033TIP3    H254295   7.147   7.152   9.144  0.8019 -0.5040  0.7846
10034TIP3   OH254296   6.284   0.167   1.899  0.1314 -0.5467  0.2293
10034TIP3    H154297   6.230   0.187   1.975  2.4385 -1.8977  2.4030
10034TIP3    H254298   6.374   0.170   1.932  1.1865 -2.4274 -2.1276
10035TIP3   OH254299   0.384   6.153   8.902  0.3252  0.4441  0.1852
10035TIP3    H154300   0.382   6.066   8.943  1.1773 -0.3021 -1.2714
10035TIP3    H254301   0.475   6.180   8.906  0.0261  1.4069  0.8518
10036TIP3   OH254302   1.788   2.794   1.924  0.2353 -0.0047 -0.0503
10036TIP3    H154303   1.833   2.842   1.994 -0.0295 -0.0302  0.1383
10036TIP3    H254304   1.765   2.862   1.860 -1.2318  0.3224  0.7918
10037TIP3   OH254305   4.169   6.462   1.580 -0.0830 -0.3614  0.1459
10037TIP3    H154306   4.092   6.479   1.635 -0.4283 -1.1994 -0.0695
10037TIP3    H254307   4.136   6.410   1.507  0.8589 -1.6069  0.5776
10038TIP3   OH254308   7.620   2.757   1.414 -0.1299  0.4939 -0.7280
10038TIP3    H154309   7.658   2.715   1.491  0.1099  0.5579 -0.8111
10038TIP3    H254310   7.546   2.808   1.448  0.4879  1.2018 -0.4172
10039TIP3   OH254311   6.788   4.924   9.779 -0.8614 -0.1741  0.0172
10039TIP3    H154312   6.867   4.969   9.748  0.3315 -0.2724  2.6311
10039TIP3    H254313   6.742   4.991   9.831 -1.5603 -0.6452  0.0118
10040TIP3   OH254314   0.979   4.444   2.406  0.4683 -0.1682  0.1602
10040TIP3    H154315   0.931   4.361   2.403  0.8225 -0.4900  2.1066
10040TIP3    H254316   0.954   4.483   2.490  1.3118  1.0777 -0.1433
10041TIP3   OH254317   4.854   6.496   6.957  0.0477  0.1026 -0.1844
10041TIP3    H154318   4.875   6.403   6.946 -1.7791 -0.9892  3.7886
10041TIP3    H254319   4.758   6.499   6.951 -0.2226  1.0195  3.0340
10042TIP3   OH254320   0.275   2.307   0.466 -0.1386  0.5914 -0.2892
10042TIP3    H154321   0.368   2.330   0.463  0.3609 -1.2723 -0.3995
10042TIP3    H254322   0.256   2.270   0.380 -0.6500 -0.1975  0.1475
10043TIP3   OH254323   2.105   1.500   9.025 -0.1470  0.1219  0.6590
10043TIP3    H154324   2.085   1.417   8.981  0.5966 -0.2669  1.0184
10043TIP3    H254325   2.132   1.559   8.955 -1.0436  0.1873  0.3561
10044TIP3   OH254326   5.590   3.425   0.039  0.3482 -0.0687  0.2612
10044TIP3    H154327   5.681   3.437   0.068  1.2730 -1.4248 -1.8451
10044TIP3    H254328   5.560   3.346   0.084  0.4102  0.0408  0.4973
10045TIP3   OH254329   5.307   1.873   1.710 -0.0249 -0.3363 -0.0835
10045TIP3    H154330   5.230   1.884   1.654 -0.1884 -2.0608 -0.2394
10045TIP3    H254331   5.283   1.804   1.772  1.0510 -0.2205  0.4905
10046TIP3   OH254332   7.151   0.683   8.392 -0.2048  0.2391  0.6683
10046TIP3    H154333   7.094   0.706   8.319 -0.2385  1.1380  0.9640
10046TIP3    H254334   7.225   0.638   8.352 -0.3955  0.4064  0.1259
10047TIP3   OH254335   3.376   3.908   9.615  0.4046  0.1223  0.2972
10047TIP3    H154336   3.415   3.989   9.646 -0.3710  0.6864 -0.1827
10047TIP3    H254337   3.410   3.896   9.527  0.2776  0.0837  0.2526
10048TIP3   OH254338   3.655   5.456   7.729  0.0400  0.5201  0.0626
10048TIP3    H154339   3.585   5.396   7.702 -0.0473 -0.3687  2.1027
10048TIP3    H254340   3.693   5.486   7.647 -1.1766 -0.8299 -1.0598
10049TIP3   OH254341   2.023   1.904   9.307  0.3856 -0.2875  0.4350
10049TIP3    H154342   1.947   1.846   9.320 -0.6552  1.1345  0.9035
10049TIP3    H254343   2.060   1.875   9.223 -0.2479 -1.4610  0.5316
10050TIP3   OH254344   6.928   2.502   9.924 -0.0886  0.2534  0.1595
10050TIP3    H154345   7.005   2.559   9.923  0.6019 -0.6548  0.5162
10050TIP3    H254346   6.959   2.420   9.961 -1.3673  0.0414  0.8064
10051TIP3   OH254347   1.407   6.387   0.603  0.6404  0.0215  0.3358
10051TIP3    H154348   1.429   6.306   0.649  1.0997  0.0531  0.1722
10051TIP3    H254349   1.334   6.424   0.653  1.0731  0.0058  0.9857
10052TIP3   OH254350   0.324   3.291   7.934 -0.1924  0.2058  0.7844
10052TIP3    H154351   0.379   3.308   7.858 -0.5145  0.1199  0.5293
10052TIP3    H254352   0.267   3.219   7.907 -2.6620  2.3445 -0.1471
10053TIP3   OH254353   4.078   7.052   0.394  0.0696 -0.0562 -0.2552
10053TIP3    H154354   4.151   7.043   0.456  1.3861  1.5481 -1.4752
10053TIP3    H254355   4.058   7.145   0.392 -1.5553 -0.3778 -0.5068
10054TIP3   OH254356   0.505   0.496   2.499 -0.7829  0.5499  0.5655
10054TIP3    H154357   0.512   0.407   2.463 -0.5706  0.3762  1.0212
10054TIP3    H254358   0.429   0.492   2.557 -1.6503  1.0623 -0.5103
10055TIP3   OH254359   2.450   6.500   8.934  0.1350  0.1854 -0.1587
10055TIP3    H154360   2.389   6.447   8.883 -0.1092 -0.7358  1.0348
10055TIP3    H254361   2.395   6.554   8.990  0.3964  0.3631 -0.0688
10056TIP3   OH254362   0.510   4.286   9.353 -0.3218  0.3677  0.1576
10056TIP3    H154363   0.551   4.221   9.297 -1.1950 -0.9594  1.0205
10056TIP3    H254364   0.543   4.266   9.441 -0.5376  1.1574  0.4305
10057TIP3   OH254365   5.808   1.609   9.400  0.4704 -0.1846  0.1796
10057TIP3    H154366   5.812   1.578   9.310  2.8353 -0.4973  0.3077
10057TIP3    H254367   5.881   1.671   9.407  0.4879 -0.3442  1.9262
10058TIP3   OH254368   4.402   5.178   1.509 -0.0211 -0.1576 -0.5454
10058TIP3    H154369   4.372   5.096   1.470 -0.7874 -0.5802  0.8600
10058TIP3    H254370   4.329   5.238   1.497  1.0412  0.7929 -2.7894
10059TIP3   OH254371   0.798   0.634   1.686  0.1234  0.0795 -1.0160
10059TIP3    H154372   0.724   0.693   1.670 -0.4402 -0.4860 -0.5525
10059TIP3    H254373   0.868   0.691   1.718 -1.0501  0.2586  1.4140
10060TIP3   OH254374   6.529   3.298   9.411 -0.3024 -0.4374  0.4011
10060TIP3    H154375   6.498   3.343   9.332 -0.7814  0.7460  1.2391
10060TIP3    H254376   6.556   3.211   9.380  0.6169  0.3929 -1.2654
10061TIP3   OH254377   4.808   4.896   8.674  0.1190 -0.5136  0.2956
10061TIP3    H154378   4.854   4.824   8.630 -1.9595 -2.0065  0.4337
10061TIP3    H254379   4.876   4.962   8.689  1.3901 -0.8382 -3.1502
10062TIP3   OH254380   0.748   4.585   9.489  0.7508  0.4057 -0.6339
10062TIP3    H154381   0.776   4.501   9.525 -0.3764  0.2731 -0.0457
10062TIP3    H254382   0.768   4.648   9.559 -0.7044  0.2581 -0.0492
10063TIP3   OH254383   3.841   2.589   0.005  0.3968 -0.0101  0.3907
10063TIP3    H154384   3.885   2.671  -0.016  0.6751 -0.1582  0.3868
10063TIP3    H254385   3.892   2.522  -0.041 -0.6750 -0.0480 -0.8338
10064TIP3   OH254386   7.561   4.459   1.109  0.7007  0.5153 -0.6629
10064TIP3    H154387   7.623   4.525   1.141  2.0653 -0.6050 -0.8972
10064TIP3    H254388   7.594   4.435   1.023  0.1359 -0.3576 -0.6443
10065TIP3   OH254389   3.171   0.395   2.356  0.4729  0.0848  0.3403
10065TIP3    H154390   3.120   0.444   2.291  1.4774 -0.6889 -1.0868
10065TIP3    H254391   3.119   0.315   2.370  0.4782  0.0460  0.1427
10066TIP3   OH254392   6.189   4.425   7.933 -0.3962  0.1419 -0.7122
10066TIP3    H154393   6.098   4.437   7.960  0.0492  0.3043  0.8218
10066TIP3    H254394   6.210   4.335   7.958 -0.1860  0.0341 -1.2582
10067TIP3   OH254395   0.430   4.953   1.251  0.0862 -0.1886 -0.3888
10067TIP3    H154396   0.398   4.873   1.210 -0.5054  1.1723 -2.7559
10067TIP3    H254397   0.360   5.017   1.239  1.5522  1.3961 -0.9530
10068TIP3   OH254398   0.308   2.302   9.410 -0.1086  0.6738 -0.1316
10068TIP3    H154399   0.282   2.391   9.390  0.3210  1.1001  1.0888
10068TIP3    H254400   0.305   2.297   9.506 -1.6904 -1.0992 -0.1943
10069TIP3   OH254401   4.230   5.849   0.442  0.0092  0.3069  0.2182
10069TIP3    H154402   4.258   5.787   0.509  0.1780  0.7709  0.5883
10069TIP3    H254403   4.309   5.897   0.419  0.0734 -0.2391 -0.7474
10070TIP3   OH254404   4.615   0.472   9.918 -0.4770  0.3286  0.2200
10070TIP3    H154405   4.625   0.514   9.833 -1.3879  1.8097  0.8013
10070TIP3    H254406   4.699   0.486   9.962  0.6426 -1.9436 -0.9892
10071TIP3   OH254407   3.005   3.182   7.919 -0.4564 -0.1703  0.3143
10071TIP3    H154408   3.022   3.180   8.014  0.1343 -0.7989  0.2079
10071TIP3    H254409   3.045   3.101   7.886 -1.2764 -0.3087 -0.3780
10072TIP3   OH254410   6.839   2.743   7.128 -0.1592  0.0333  0.0779
10072TIP3    H154411   6.908   2.725   7.064 -0.8803 -0.8171 -0.4934
10072TIP3    H254412   6.850   2.836   7.150  1.5108 -0.2153  0.4433
10073TIP3   OH254413   7.001   5.217   9.819 -0.2344 -0.4264  0.0009
10073TIP3    H154414   6.941   5.276   9.773  1.6741  1.2806 -0.4638
10073TIP3    H254415   7.047   5.171   9.749 -0.8092 -1.5479  0.3461
10074TIP3   OH254416   1.753   5.659   0.102 -0.3129  0.3356 -0.0146
10074TIP3    H154417   1.660   5.654   0.079 -0.7656 -1.5702  1.8713
10074TIP3    H254418   1.754   5.652   0.198  1.8218 -1.8370 -0.0909
10075TIP3   OH254419   5.856   7.647   0.956 -0.0602  0.5648  0.1839
10075TIP3    H154420   5.895   7.564   0.927 -1.6456  0.0995 -0.7426
10075TIP3    H254421   5.837   7.694   0.875 -0.8527  1.0432  0.6377
10076TIP3   OH254422   6.422   4.237   8.656 -0.4667  0.3824  0.4298
10076TIP3    H154423   6.426   4.278   8.742 -1.6615  0.2495  0.5690
10076TIP3    H254424   6.479   4.160   8.663  0.0801  0.8198  0.8362
10077TIP3   OH254425   0.615   2.086   9.108  0.0747 -0.0203  0.1969
10077TIP3    H154426   0.709   2.099   9.115 -0.0358  1.0735 -0.1906
10077TIP3    H254427   0.578   2.135   9.182 -0.2024 -0.2154  0.1885
10078TIP3   OH254428   0.725   1.175   2.583  0.2836 -0.1965 -0.5124
10078TIP3    H154429   0.768   1.171   2.668 -0.3863 -1.4459 -0.2134
10078TIP3    H254430   0.749   1.093   2.540 -0.0507  0.0539 -1.1961
10079TIP3   OH254431   0.024   6.568   8.173 -0.1693  0.0543 -0.0491
10079TIP3    H154432   0.116   6.568   8.199  0.1490 -0.0784 -1.0958
10079TIP3    H254433  -0.023   6.594   8.251  0.9111  1.9625  0.0495
10080TIP3   OH254434   7.435   2.220   8.556 -0.0015  0.5188  0.1080
10080TIP3    H154435   7.505   2.278   8.586  0.1966  0.2714  0.1213
10080TIP3    H254436   7.401   2.179   8.635 -1.0197  1.5932  0.2551
10081TIP3   OH254437   3.581   4.382   9.066  0.2260  0.3707 -0.7574
10081TIP3    H154438   3.499   4.416   9.032 -0.1049  0.9828  0.6018
10081TIP3    H254439   3.614   4.451   9.123  0.9924 -0.4311 -0.2004
10082TIP3   OH254440   6.864   5.847   1.194 -0.1205 -0.0084  0.1677
10082TIP3    H154441   6.868   5.921   1.133  0.5112 -1.1079 -1.1605
10082TIP3    H254442   6.896   5.883   1.277 -0.4860  1.3766 -0.2663
10083TIP3   OH254443   7.327   4.787   9.011 -0.0973  0.2891  0.3520
10083TIP3    H154444   7.350   4.875   9.042  0.2578  0.3776 -0.1400
10083TIP3    H254445   7.291   4.801   8.924 -0.0866 -0.0504  0.2922
10084TIP3   OH254446   5.125   0.345   9.904 -0.0784  0.7169 -0.2237
10084TIP3    H154447   5.154   0.330   9.815  0.1540 -0.0237 -0.0312
10084TIP3    H254448   5.204   0.332   9.958 -0.1101  1.5952  0.0590
10085TIP3   OH254449   7.654   6.812   9.602  0.3344  0.6055  0.0775
10085TIP3    H154450   7.707   6.881   9.562  1.0080  1.1870  1.8605
10085TIP3    H254451   7.705   6.732   9.590  1.8039  1.1821  1.9339
10086TIP3   OH254452   7.520   1.552   0.965  0.2691 -0.2521 -0.1390
10086TIP3    H154453   7.477   1.583   1.044  0.5237  0.2070 -0.1785
10086TIP3    H254454   7.614   1.564   0.983  0.3508 -0.6264 -0.3074
10087TIP3   OH254455   7.081   2.381   8.608 -0.0869 -0.2092  0.2527
10087TIP3    H154456   7.143   2.382   8.535 -1.6985 -1.6816 -1.2195
10087TIP3    H254457   7.105   2.457   8.661  3.0566 -0.8009 -0.1189
10088TIP3   OH254458   3.359   5.030   9.400  0.5615  0.2040  0.2717
10088TIP3    H154459   3.372   5.085   9.323  1.4315 -0.2202  0.1016
10088TIP3    H254460   3.401   5.078   9.472  1.2685 -0.1968  0.1348
10089TIP3   OH254461   3.169   0.699   2.351 -0.6716 -0.5134  0.1832
10089TIP3    H154462   3.230   0.741   2.412  0.7304 -0.9479 -0.8671
10089TIP3    H254463   3.165   0.608   2.380 -0.6825 -0.5229  0.1512
10090TIP3   OH254464   1.406   4.360   1.445 -0.0708  0.3371  0.4934
10090TIP3    H154465   1.313   4.373   1.428 -0.0925  2.3614  1.7568
10090TIP3    H254466   1.447   4.361   1.359 -1.0118  1.7028  0.0362
10091TIP3   OH254467   3.972   0.561   9.726 -0.2238 -0.1898  0.2127
10091TIP3    H154468   3.989   0.489   9.788  0.9206 -0.2438 -0.1560
10091TIP3    H254469   3.879   0.582   9.740 -0.7565 -2.1354 -0.0825
10092TIP3   OH254470   2.348   0.044   9.847 -0.3627 -0.0518  0.0935
10092TIP3    H154471   2.307   0.048   9.761 -0.8948 -1.9142  0.2046
10092TIP3    H254472   2.436   0.078   9.833 -1.0262  1.4316 -0.7522
10093TIP3   OH254473   2.763   5.105   2.290  0.3881  0.4068 -0.3013
10093TIP3    H154474   2.814   5.070   2.363  0.9692  0.9697 -0.4308
10093TIP3    H254475   2.675   5.070   2.304  0.2437  1.2988  1.2467
10094TIP3   OH254476   5.769   0.035   0.029 -0.7376 -0.5292  0.0891
10094TIP3    H154477   5.686   0.003  -0.006 -1.5505  0.5544  0.9789
10094TIP3    H254478   5.801  -0.035   0.086 -1.6806 -0.4353  0.7415
10095TIP3   OH254479   4.542   4.416   2.703 -0.2149 -0.1105  0.0251
10095TIP3    H154480   4.585   4.500   2.692 -1.5175  0.3279 -2.1348
10095TIP3    H254481   4.465   4.435   2.756 -0.2174 -0.0555  0.0010
10096TIP3   OH254482   3.274   3.278   9.250 -0.1032  0.1304 -0.4639
10096TIP3    H154483   3.302   3.214   9.184  0.6667  2.0120 -2.0495
10096TIP3    H254484   3.350   3.289   9.307 -0.1940 -0.2391 -0.2652
10097TIP3   OH254485   4.883   0.725   7.135 -0.2325 -0.5969  0.2663
10097TIP3    H154486   4.868   0.819   7.121  0.6848 -0.3775  0.6878
10097TIP3    H254487   4.950   0.721   7.203  0.1607 -1.5541 -0.1543
10098TIP3   OH254488   6.032   2.949   8.673  0.0843  0.0099  0.4679
10098TIP3    H154489   6.029   3.037   8.711  1.6865 -0.4463  1.7623
10098TIP3    H254490   6.083   2.898   8.735 -1.0904 -1.9552 -0.0784
10099TIP3   OH254491   3.291   0.274   8.448  0.4622 -0.4612 -0.1702
10099TIP3    H154492   3.320   0.328   8.374 -0.1379 -2.7796 -2.2170
10099TIP3    H254493   3.201   0.249   8.426 -0.3180  0.0034  2.1425
10100TIP3   OH254494   0.940   1.801   9.587 -0.0480 -0.1837 -0.3606
10100TIP3    H154495   1.014   1.848   9.626 -0.6363 -1.0604  1.9212
10100TIP3    H254496   0.929   1.724   9.641 -1.1526 -1.3250 -2.1086
10101TIP3   OH254497   7.293   7.502   1.639 -0.1089 -0.3954  0.7295
10101TIP3    H154498   7.252   7.588   1.627 -2.9535 -1.9120 -2.3333
10101TIP3    H254499   7.380   7.512   1.601  0.1832  1.4508  1.7582
10102TIP3   OH254500   6.923   0.670   9.504 -0.4189 -0.8837 -0.3931
10102TIP3    H154501   6.892   0.625   9.582 -0.1997 -0.3509  0.0066
10102TIP3    H254502   6.953   0.600   9.446  2.0829 -1.2080  1.1442
10103TIP3   OH254503   1.893   0.467   2.031 -0.5734 -0.0246 -0.5827
10103TIP3    H154504   1.815   0.487   1.980 -1.9359 -0.6314  1.1469
10103TIP3    H254505   1.913   0.549   2.077  0.5294  0.4608 -1.8511
10104TIP3   OH254506   1.794   6.625   9.912  0.6249  0.3411 -0.2616
10104TIP3    H154507   1.746   6.546   9.887  1.7709 -0.3056 -0.4910
10104TIP3    H254508   1.817   6.610  10.003  2.2658 -0.3669 -0.7577
10105TIP3   OH254509   7.413   6.995   1.324 -0.6701  0.2551  0.2344
10105TIP3    H154510   7.481   7.025   1.264 -1.6913  0.0495 -1.0680
10105TIP3    H254511   7.418   6.899   1.320  0.1980  0.2177  1.6099
10106TIP3   OH254512   3.992   4.550   7.352 -0.0628 -0.4191  0.3160
10106TIP3    H154513   3.954   4.562   7.265 -0.3063  1.4228  0.6478
10106TIP3    H254514   4.085   4.565   7.340  0.2110 -2.1048  0.0446
10107TIP3   OH254515   4.379   1.028   8.729  0.1149  0.2330 -0.0113
10107TIP3    H154516   4.400   1.113   8.691  1.6481  0.2488  0.8124
10107TIP3    H254517   4.319   1.048   8.801 -1.0454  0.4084 -0.9970
10108TIP3   OH254518   5.790   6.623   9.586  1.0433 -0.0795  0.2089
10108TIP3    H154519   5.867   6.567   9.597 -0.2643 -1.6701  1.9306
10108TIP3    H254520   5.808   6.701   9.638  1.3992 -0.5536  0.8004
10109TIP3   OH254521   1.960   6.080   7.463  0.2159  0.4662 -0.6165
10109TIP3    H154522   1.971   5.985   7.460  0.2331  0.4579 -0.3005
10109TIP3    H254523   2.047   6.114   7.439  1.7128  0.4053  3.7407
10110TIP3   OH254524   7.541   7.087   1.642 -0.8852 -0.2255  0.1314
10110TIP3    H154525   7.453   7.049   1.635 -0.7531 -0.7906  1.2763
10110TIP3    H254526   7.598   7.027   1.595 -0.9326 -0.5333  0.4650
10111TIP3   OH254527   3.148   6.767   1.158 -0.4144 -0.3259  0.2603
10111TIP3    H154528   3.075   6.787   1.217 -0.8160 -0.0311 -0.3299
10111TIP3    H254529   3.216   6.731   1.215 -1.3008 -1.3321  0.7165
10112TIP3   OH254530   3.921   1.221   9.238 -0.0656 -0.1327 -0.6482
10112TIP3    H154531   4.001   1.170   9.233 -0.5338 -0.7891 -2.6634
10112TIP3    H254532   3.950   1.312   9.230  0.5520 -0.2689 -0.0307
10113TIP3   OH254533   6.904   1.197   9.606  0.1885 -0.2914  0.2576
10113TIP3    H154534   6.874   1.235   9.524 -2.5424 -2.6043  0.0127
10113TIP3    H254535   6.834   1.217   9.668 -0.9486 -3.8035  0.3441
10114TIP3   OH254536   1.310   7.404   0.743 -0.0156 -0.3369 -0.6569
10114TIP3    H154537   1.322   7.332   0.681 -1.2761 -1.3767  0.2473
10114TIP3    H254538   1.276   7.476   0.690  2.7200  0.1879 -1.8675
10115TIP3   OH254539   4.518   3.273   9.516 -0.0608 -0.1816 -0.1437
10115TIP3    H154540   4.460   3.350   9.518  0.6191  0.5169 -2.7719
10115TIP3    H254541   4.606   3.309   9.510  0.3241 -1.1562 -0.6697
10116TIP3   OH254542   1.446   4.585   0.412 -0.3341 -0.4512  0.1114
10116TIP3    H154543   1.447   4.591   0.507 -1.2555  0.0757  0.0948
10116TIP3    H254544   1.354   4.597   0.388 -0.3983 -2.2735 -0.7473
10117TIP3   OH254545   5.078   3.671   8.629 -0.1904  0.4552 -0.3900
10117TIP3    H154546   5.035   3.703   8.708 -0.7292 -2.4882  0.6639
10117TIP3    H254547   5.146   3.612   8.661 -0.4816 -0.8755 -2.0596
10118TIP3   OH254548   2.139   7.122   7.762 -0.5821  0.3285  0.1395
10118TIP3    H154549   2.045   7.108   7.762 -0.7263  0.9225  2.1789
10118TIP3    H254550   2.175   7.042   7.799 -0.3301  0.3320 -0.0956
10119TIP3   OH254551   0.494   5.072   1.858 -0.3107 -0.0973  0.0905
10119TIP3    H154552   0.587   5.091   1.845  0.2187 -1.9238  1.0037
10119TIP3    H254553   0.457   5.155   1.890  0.9229  0.7177 -0.5105
10120TIP3   OH254554   4.248   0.200   6.988  0.2253  0.1935  0.2036
10120TIP3    H154555   4.343   0.192   6.983  0.2240  0.5675 -0.7403
10120TIP3    H254556   4.222   0.141   7.059  0.9779 -1.4608 -0.8214
10121TIP3   OH254557   0.770   3.738   0.420 -0.1320 -0.0612  0.0806
10121TIP3    H154558   0.690   3.786   0.440 -0.6106 -0.3929 -1.0331
10121TIP3    H254559   0.756   3.701   0.333  0.5918 -1.4708  0.5319
10122TIP3   OH254560   6.055   5.801   1.805  0.5817  0.0029  0.0895
10122TIP3    H154561   5.969   5.765   1.787  0.1237  1.2953 -0.4646
10122TIP3    H254562   6.084   5.756   1.884 -0.0072 -1.4134 -0.4749
10123TIP3   OH254563   3.776   5.117   7.996 -0.0322  0.7905 -0.4168
10123TIP3    H154564   3.818   5.031   8.001 -1.0392  0.3280  0.5384
10123TIP3    H254565   3.845   5.179   8.018  0.8780  0.3061 -1.7651
10124TIP3   OH254566   6.123   4.494   9.818 -0.2753 -0.3100 -0.1823
10124TIP3    H154567   6.218   4.478   9.819  0.1594  1.8494 -1.4011
10124TIP3    H254568   6.111   4.562   9.752 -2.6178 -0.0140  0.4746
10125TIP3   OH254569   7.302   6.073   7.819 -0.2654  0.6670  0.6523
10125TIP3    H154570   7.242   6.089   7.746 -1.9066  0.1351  1.8227
10125TIP3    H254571   7.275   5.988   7.854  1.0104  0.5462  1.4052
10126TIP3   OH254572   6.516   2.916   7.885 -0.3423 -0.2097 -0.3375
10126TIP3    H154573   6.563   2.972   7.823 -0.6363  0.7084  0.2347
10126TIP3    H254574   6.457   2.977   7.931 -0.0754 -0.8503  0.8911
10127TIP3   OH254575   1.497   3.130   1.043  0.1924 -0.0431 -0.0357
10127TIP3    H154576   1.411   3.108   1.008  0.0854 -0.4283  0.4669
10127TIP3    H254577   1.501   3.087   1.128  1.7265 -1.9245 -0.9620
10128TIP3   OH254578   1.256   5.629   8.565 -0.1619 -0.6577  0.1657
10128TIP3    H154579   1.309   5.587   8.633 -0.5771 -1.5154 -0.0195
10128TIP3    H254580   1.173   5.581   8.567 -1.3415  1.3121  1.1506
10129TIP3   OH254581   3.606   6.014   0.032  0.1939 -0.4456  0.1736
10129TIP3    H154582   3.544   5.942   0.045 -0.9270 -0.0549 -2.3376
10129TIP3    H254583   3.552   6.093   0.036  0.9255  0.0606  0.1707
10130TIP3   OH254584   0.734   6.324   8.985  0.4698  0.3439 -0.1140
10130TIP3    H154585   0.731   6.315   8.890  1.0320  0.7474 -0.1734
10130TIP3    H254586   0.661   6.381   9.006  1.6347  2.0751 -0.5412
10131TIP3   OH254587   1.091   2.049   7.062  0.0970  0.2790 -0.8815
10131TIP3    H154588   1.111   2.005   6.979  0.0732 -1.6614  0.0836
10131TIP3    H254589   1.026   1.992   7.103  2.5311 -0.7158  1.9449
10132TIP3   OH254590   7.676   1.180   1.813  0.7133  0.1295 -0.0256
10132TIP3    H154591   7.628   1.222   1.741  1.8838  0.0195 -0.9225
10132TIP3    H254592   7.740   1.246   1.840  1.4758 -0.4561 -0.3340
10133TIP3   OH254593   1.369   7.658   7.017 -0.3778 -0.2921  0.0646
10133TIP3    H154594   1.316   7.710   6.958  0.2537  0.2292 -0.0490
10133TIP3    H254595   1.459   7.670   6.987 -0.0692 -0.2092  0.9799
10134TIP3   OH254596   3.401   3.007   7.029  0.0415 -0.2402  0.0043
10134TIP3    H154597   3.471   2.942   7.021  1.3112  1.1678 -0.7671
10134TIP3    H254598   3.389   3.019   7.123  0.1149 -1.2187  0.1538
10135TIP3   OH254599   4.056   7.225   7.284  0.1815  0.1915 -0.4114
10135TIP3    H154600   4.133   7.184   7.244  0.4549  0.5322 -0.2308
10135TIP3    H254601   4.085   7.254   7.370 -0.4446 -0.6533  0.1003
10136TIP3   OH254602   6.183   1.546   1.895  0.2105  0.4919  0.0222
10136TIP3    H154603   6.203   1.615   1.832  0.4401  1.4716  1.1224
10136TIP3    H254604   6.263   1.538   1.947  0.3767 -0.9985 -0.4182
10137TIP3   OH254605   2.600   3.528   1.084 -0.4149 -0.1819 -0.3176
10137TIP3    H154606   2.523   3.500   1.134  0.1706 -1.3321 -0.0162
10137TIP3    H254607   2.577   3.510   0.993 -0.8204  0.2726 -0.3071
10138TIP3   OH254608   3.889   7.336   8.655 -0.7527 -0.2407 -0.0843
10138TIP3    H154609   3.804   7.298   8.632 -1.4499  1.9097 -1.3161
10138TIP3    H254610   3.868   7.412   8.709  0.3809  0.3420 -0.4287
10139TIP3   OH254611   2.177   5.372   1.845 -0.1101  0.3152  0.3403
10139TIP3    H154612   2.218   5.297   1.889  0.9335  1.4281  1.3371
10139TIP3    H254613   2.250   5.422   1.810 -0.5176  2.4037  2.2336
10140TIP3   OH254614   0.154   3.158   9.576 -0.1070 -0.4648 -0.3239
10140TIP3    H154615   0.131   3.220   9.645 -0.9464 -0.3943 -0.6569
10140TIP3    H254616   0.070   3.127   9.542  0.2977 -0.8262 -1.0210
10141TIP3   OH254617   4.307   6.599   7.412 -0.2819 -0.1988 -0.4790
10141TIP3    H154618   4.241   6.649   7.364 -2.5016  1.0610  3.4857
10141TIP3    H254619   4.265   6.574   7.494  3.6065 -0.8354  1.5914
10142TIP3   OH254620   1.282   2.807   1.627 -0.2980  0.3014  0.4057
10142TIP3    H154621   1.303   2.860   1.550 -1.1376 -0.5702 -0.4491
10142TIP3    H254622   1.209   2.853   1.669 -2.2557 -1.0389 -1.3439
10143TIP3   OH254623   5.627   1.482   9.914  0.0922  0.3254 -0.0121
10143TIP3    H154624   5.685   1.550   9.948 -0.7469  0.7666  0.5752
10143TIP3    H254625   5.539   1.511   9.938 -0.6327  0.8761 -2.8911
10144TIP3   OH254626   1.782   3.602   0.539  0.1475  0.2844  0.1803
10144TIP3    H154627   1.762   3.692   0.513 -0.9184 -0.1168 -0.4280
10144TIP3    H254628   1.820   3.562   0.461 -0.7085 -0.1982 -0.0002
10145TIP3   OH254629   6.484   3.206   1.647  0.2925  0.1524  0.6938
10145TIP3    H154630   6.573   3.188   1.680  0.1404  0.3896  1.2502
10145TIP3    H254631   6.448   3.119   1.627 -0.0638 -0.1176  2.3676
10146TIP3   OH254632   0.805   4.929   0.795  0.0117  0.1839 -0.0237
10146TIP3    H154633   0.860   4.869   0.846  0.3209  1.2701  0.9449
10146TIP3    H254634   0.722   4.933   0.843 -0.6799 -0.8637 -1.0773
10147TIP3   OH254635   3.475   3.077   9.898  0.1723  0.0575  0.0816
10147TIP3    H154636   3.504   3.103   9.986 -1.5897 -0.0399  0.7254
10147TIP3    H254637   3.498   2.985   9.891  2.1617  0.5231 -0.3954
10148TIP3   OH254638   2.816   2.439   7.099 -0.5717  0.3274 -0.2494
10148TIP3    H154639   2.740   2.489   7.068 -1.7113 -1.6532 -0.8265
10148TIP3    H254640   2.778   2.359   7.137  1.2043 -0.4257  0.0304
10149TIP3   OH254641   6.977   3.209   1.769  1.0480 -0.6578  0.4573
10149TIP3    H154642   6.960   3.227   1.861  0.0319 -0.8280  0.3117
10149TIP3    H254643   7.004   3.293   1.733 -0.5490 -0.1020  0.4803
10150TIP3   OH254644   2.799   2.900   2.047  0.0790  0.4504  0.3045
10150TIP3    H154645   2.753   2.955   2.110 -1.0904 -0.2142  0.0769
10150TIP3    H254646   2.815   2.957   1.972  0.3594  0.9092  0.7113
10151TIP3   OH254647   1.509   3.570   0.605 -0.6937  0.2358  0.0756
10151TIP3    H154648   1.493   3.628   0.531  0.5166 -0.9183 -1.1347
10151TIP3    H254649   1.603   3.552   0.602 -0.7099 -0.2766  1.5818
10152TIP3   OH254650   4.180   3.109   0.822  0.6004  0.2268  0.1432
10152TIP3    H154651   4.252   3.169   0.842  1.0432  0.6995 -2.4385
10152TIP3    H254652   4.152   3.134   0.734 -2.6929 -0.0466  0.9882
10153TIP3   OH254653   7.558   6.168   9.289  0.2452 -0.5859 -0.4483
10153TIP3    H154654   7.603   6.131   9.365 -2.0847 -0.6508  1.0149
10153TIP3    H254655   7.465   6.150   9.305 -0.4231  0.2894 -2.8496
10154TIP3   OH254656   2.928   1.077   0.102 -0.2218 -0.6737  1.1945
10154TIP3    H154657   3.010   1.050   0.143 -0.2933 -2.7946  0.0828
10154TIP3    H254658   2.943   1.063   0.008 -2.3841 -2.8618  1.0879
10155TIP3   OH254659   5.109   6.600   0.304  0.3517 -0.1216  0.0896
10155TIP3    H154660   5.137   6.688   0.280 -3.5072  0.9452 -1.2076
10155TIP3    H254661   5.112   6.550   0.222 -0.2848 -0.3121  0.1746
10156TIP3   OH254662   7.370   1.183   2.208 -0.4440 -0.4128 -0.2932
10156TIP3    H154663   7.361   1.109   2.269  0.4344 -0.6693 -0.4559
10156TIP3    H254664   7.386   1.141   2.123  1.3309 -0.0555 -0.1752
10157TIP3   OH254665   5.433   2.035   0.628  0.6156  0.3600 -0.3506
10157TIP3    H154666   5.520   2.015   0.661  0.8075  1.2700 -0.2756
10157TIP3    H254667   5.443   2.118   0.581 -0.2669  0.6354 -0.0808
10158TIP3   OH254668   1.352   0.758   0.423  0.0750 -0.4087  0.4144
10158TIP3    H154669   1.346   0.755   0.518 -0.6301  1.9504  0.5012
10158TIP3    H254670   1.294   0.829   0.397  1.0069 -0.3377 -1.6995
10159TIP3   OH254671   2.403   3.027   2.014 -0.7792 -0.3754 -0.4139
10159TIP3    H154672   2.403   3.047   1.920 -1.4840 -0.8387 -0.5240
10159TIP3    H254673   2.408   2.931   2.018 -1.9641 -0.4362 -0.0187
10160TIP3   OH254674   6.994   4.681   1.532 -0.0249 -0.0829  0.1299
10160TIP3    H154675   6.909   4.686   1.488  0.1752 -0.2666 -0.2843
10160TIP3    H254676   7.006   4.767   1.571  0.0866  0.3043 -0.7335
10161TIP3   OH254677   2.564   3.973   7.009 -0.6445 -0.4257 -0.8790
10161TIP3    H154678   2.524   4.040   6.953 -0.8865  0.7380  0.6302
10161TIP3    H254679   2.542   3.891   6.966 -0.4317  0.4287 -2.7392
10162TIP3   OH254680   3.651   4.537   1.294  0.3288 -0.1646  0.3161
10162TIP3    H154681   3.570   4.553   1.341  0.0757  1.0523 -0.4928
10162TIP3    H254682   3.689   4.623   1.281  0.7864 -0.5378 -1.0075
10163TIP3   OH254683   2.035   6.208   6.744 -0.0002  0.3343 -0.0011
10163TIP3    H154684   2.051   6.167   6.829 -0.0309  0.3673  0.0205
10163TIP3    H254685   1.961   6.266   6.759 -1.0434 -0.8489 -0.4315
10164TIP3   OH254686   2.007   1.200   7.263 -0.2590  0.2822 -0.0149
10164TIP3    H154687   1.994   1.127   7.203  0.9520  0.5574 -0.6407
10164TIP3    H254688   2.087   1.178   7.311 -0.5006  0.6785  0.5943
10165TIP3   OH254689   4.486   2.272   2.398  0.3393 -0.1709  0.2628
10165TIP3    H154690   4.451   2.253   2.485  0.6560 -0.7230  0.2745
10165TIP3    H254691   4.417   2.245   2.338  1.2446 -2.6465  0.2125
10166TIP3   OH254692   3.632   0.425   9.130 -0.7067  0.4011  0.7279
10166TIP3    H154693   3.639   0.341   9.085 -0.7437  0.3126  0.8869
10166TIP3    H254694   3.686   0.415   9.209 -0.0958  0.7824  0.3700
10167TIP3   OH254695   3.970   1.510   2.863  0.2563 -0.4225 -0.1676
10167TIP3    H154696   3.875   1.499   2.857  0.4066 -2.3178  0.2847
10167TIP3    H254697   3.983   1.576   2.931 -0.7329  0.5703 -0.9111
10168TIP3   OH254698   5.654   0.263   1.202 -0.3539 -0.0518 -0.0089
10168TIP3    H154699   5.750   0.267   1.203 -0.2870 -0.5408  2.4159
10168TIP3    H254700   5.629   0.313   1.124  1.8766 -0.9135 -1.3957
10169TIP3   OH254701   4.087   6.725   1.238  0.0570 -0.7971  0.3035
10169TIP3    H154702   3.997   6.754   1.224  0.1754 -0.4940  0.1558
10169TIP3    H254703   4.134   6.804   1.264 -0.2040 -1.3769  2.7571
10170TIP3   OH254704   3.342   6.904   0.920 -0.1040 -0.6380  0.3251
10170TIP3    H154705   3.421   6.917   0.972 -1.3738  2.0313  1.8039
10170TIP3    H254706   3.373   6.870   0.836  2.6983  0.9494  0.6040
10171TIP3   OH254707   4.383   5.273   0.266  0.2783  0.1250 -0.0465
10171TIP3    H154708   4.340   5.321   0.195  0.0603  0.6550  0.4351
10171TIP3    H254709   4.355   5.318   0.346  2.7178  1.2921  0.2164
10172TIP3   OH254710   3.753   3.656   1.181 -0.4722  0.0542 -0.2607
10172TIP3    H154711   3.782   3.728   1.236 -0.0647  0.7672 -1.3605
10172TIP3    H254712   3.833   3.619   1.145 -0.6595 -1.1276  0.4727
10173TIP3   OH254713   3.203   1.138   7.638  0.3884 -0.3486 -0.2588
10173TIP3    H154714   3.268   1.179   7.582  0.1563  1.8505  0.9493
10173TIP3    H254715   3.133   1.109   7.579  1.5256 -0.9179 -1.3560
10174TIP3   OH254716   2.666   3.073   1.733 -0.3602 -0.4230  0.3019
10174TIP3    H154717   2.572   3.063   1.750 -0.0493  0.3234  2.7055
10174TIP3    H254718   2.701   2.984   1.742 -0.4907 -0.3319  1.8846
10175TIP3   OH254719   4.173   4.022   0.571 -0.2348  0.0819 -0.4243
10175TIP3    H154720   4.191   3.934   0.538 -1.2194 -0.7069  1.0605
10175TIP3    H254721   4.251   4.073   0.547  0.5173 -1.2733 -0.9535
10176TIP3   OH254722   3.210   7.176   7.930 -0.0383  0.2106 -0.2348
10176TIP3    H154723   3.264   7.193   8.007 -1.0762  0.3291  0.4887
10176TIP3    H254724   3.128   7.223   7.947 -0.1840  0.4817 -1.5421
10177TIP3   OH254725   1.718   0.431   8.742 -0.3637  0.2254 -0.2687
10177TIP3    H154726   1.768   0.485   8.681  1.2086 -0.0713  0.6983
10177TIP3    H254727   1.772   0.353   8.756 -0.7504  0.2119  1.3469
10178TIP3   OH254728   2.738   7.220   0.304 -0.2092 -0.6305  0.2151
10178TIP3    H154729   2.692   7.169   0.371 -0.6216 -0.0862  0.3526
10178TIP3    H254730   2.730   7.167   0.224 -1.3153 -0.4316  0.1707
10179TIP3   OH254731   5.940   6.227   0.769 -0.1576  0.2187 -0.0528
10179TIP3    H154732   5.890   6.288   0.823 -0.2107  0.2306 -0.1144
10179TIP3    H254733   6.012   6.278   0.733  0.0740  0.1264  0.2799
10180TIP3   OH254734   5.076   2.683   0.042  0.4647 -0.1751 -0.4921
10180TIP3    H154735   5.007   2.713   0.100  1.5121 -0.5743  1.0047
10180TIP3    H254736   5.036   2.611  -0.007 -0.8263  1.0107 -1.2593
10181TIP3   OH254737   2.807   3.929   0.456 -0.0020 -0.0667  0.1380
10181TIP3    H154738   2.778   3.936   0.365 -0.3651 -0.0502  0.2533
10181TIP3    H254739   2.899   3.903   0.450 -0.2289 -0.7912 -0.2229
10182TIP3   OH254740   4.079   5.082   9.988 -0.0004  0.6148  0.3779
10182TIP3    H154741   4.041   5.170   9.985 -1.5695 -0.0367  0.4788
10182TIP3    H254742   4.094   5.060   9.896  1.7961  1.5213  0.3937
10183TIP3   OH254743   6.153   7.541   1.404 -0.3361  0.2416  0.3624
10183TIP3    H154744   6.205   7.493   1.340  0.1960  0.5499  0.5646
10183TIP3    H254745   6.107   7.607   1.353  0.1120  0.5079  0.2977
10184TIP3   OH254746   2.306   2.246   0.078 -0.2544 -0.1226 -0.2271
10184TIP3    H154747   2.398   2.220   0.073 -0.0672  0.7073 -1.7458
10184TIP3    H254748   2.258   2.173   0.038 -0.1692 -0.1475 -0.2828
10185TIP3   OH254749   5.393   2.510   8.387  0.2840  0.0945  0.0570
10185TIP3    H154750   5.444   2.500   8.307 -2.3325  3.2924 -2.3154
10185TIP3    H254751   5.446   2.566   8.444  0.6920  0.8500 -1.0443
10186TIP3   OH254752   2.072   7.130   0.330  0.0577 -0.1003  0.2783
10186TIP3    H154753   2.082   7.178   0.412 -0.3206 -0.3033  0.4446
10186TIP3    H254754   2.045   7.196   0.266  0.7157  0.1275  0.2288
10187TIP3   OH254755   4.053   6.229   9.901  0.3589  0.1387 -0.9387
10187TIP3    H154756   4.076   6.322   9.896 -0.3113  0.5550  2.0083
10187TIP3    H254757   4.133   6.186   9.929  0.0946  0.1913 -0.0698
10188TIP3   OH254758   0.916   3.522   7.129 -0.3056 -0.0867 -0.2005
10188TIP3    H154759   0.933   3.429   7.112 -1.9677 -0.6221  0.8741
10188TIP3    H254760   0.822   3.527   7.147  0.0264  1.5222  1.4423
10189TIP3   OH254761   2.917   2.480   8.610 -0.1824 -0.4334 -0.5748
10189TIP3    H154762   2.863   2.484   8.530 -1.2650  0.3067  0.1580
10189TIP3    H254763   2.912   2.569   8.646  0.7698 -0.6138  0.0104
10190TIP3   OH254764   1.896   3.057   8.272  0.0781  0.0658  0.1243
10190TIP3    H154765   1.982   3.044   8.232  0.1429 -0.8764  0.5230
10190TIP3    H254766   1.895   2.995   8.345 -0.6026  0.7036  0.6701
10191TIP3   OH254767   7.236   1.421   7.906  0.1200 -0.3537 -0.1896
10191TIP3    H154768   7.222   1.327   7.918 -2.0776 -0.1040 -0.3792
10191TIP3    H254769   7.192   1.462   7.981 -2.7568  0.6350 -2.2175
10192TIP3   OH254770   2.636   2.225   7.166 -0.0571  0.3356  0.0306
10192TIP3    H154771   2.663   2.142   7.128  0.4489  0.2342  0.5979
10192TIP3    H254772   2.540   2.225   7.158  0.0283  0.2758 -1.1264
10193TIP3   OH254773   6.004   0.572   8.658 -0.3401  0.4725 -0.1659
10193TIP3    H154774   6.085   0.619   8.679 -0.9452  1.0694  0.9015
10193TIP3    H254775   6.031   0.480   8.655  0.1988  0.5457  1.3013
10194TIP3   OH254776   2.209   4.108   9.030 -0.3767 -0.2471 -0.2392
10194TIP3    H154777   2.275   4.177   9.031  0.8814 -1.4037  0.8408
10194TIP3    H254778   2.221   4.063   8.947 -1.4222  0.9924 -1.0940
10195TIP3   OH254779   1.942   4.283   8.836 -0.2956 -0.4480 -0.1607
10195TIP3    H154780   1.883   4.354   8.862  1.0453  0.2588  1.0967
10195TIP3    H254781   1.918   4.210   8.892 -1.0867 -0.7348 -0.8449
10196TIP3   OH254782   5.609   0.487   8.267 -0.0495 -0.2127  0.2547
10196TIP3    H154783   5.624   0.494   8.361  0.9043 -0.3747  0.1330
10196TIP3    H254784   5.515   0.497   8.256 -0.0149  1.2778  1.0904
10197TIP3   OH254785   3.857   3.956   6.804  0.4614 -0.3090 -0.0130
10197TIP3    H154786   3.897   3.902   6.872 -0.5634 -0.1778  0.7173
10197TIP3    H254787   3.806   4.021   6.852  0.0826  0.0677 -0.9046
10198TIP3   OH254788   3.930   5.351   8.088  0.3207  0.7000  0.1210
10198TIP3    H154789   3.843   5.360   8.049  0.4152  0.3507 -0.1768
10198TIP3    H254790   3.966   5.440   8.086 -0.6074  1.1363  1.6314
10199TIP3   OH254791   2.568   7.085   7.395  0.1132  0.3764  0.9034
10199TIP3    H154792   2.509   7.095   7.321  1.8984 -1.2521 -0.8860
10199TIP3    H254793   2.542   7.003   7.436  1.2574 -0.5470 -0.1225
10200TIP3   OH254794   3.186   6.422   0.082  0.2504  0.5740  0.3540
10200TIP3    H154795   3.124   6.376   0.139  2.9787 -1.8844  1.6158
10200TIP3    H254796   3.169   6.385  -0.005  0.1000 -0.2651  0.7274
10201TIP3   OH254797   4.736   3.285   1.432  0.3629  0.3427  0.0849
10201TIP3    H154798   4.742   3.350   1.502 -0.9218 -0.4796  1.0202
10201TIP3    H254799   4.641   3.276   1.417  0.4577 -1.8536  0.5342
10202TIP3   OH254800   6.388   7.630   0.451  0.4469  0.0378 -0.0009
10202TIP3    H154801   6.374   7.711   0.402  2.1045  0.4013  0.0656
10202TIP3    H254802   6.426   7.658   0.534 -0.1510 -0.7329  0.5493
10203TIP3   OH254803   0.797   5.448   9.318  0.4415 -0.2778  0.2402
10203TIP3    H154804   0.870   5.509   9.329 -0.1657  0.7505 -1.1559
10203TIP3    H254805   0.740   5.490   9.253 -0.9267 -1.4891  0.6023
10204TIP3   OH254806   0.052   4.636   1.245 -0.8209 -0.3790 -0.0083
10204TIP3    H154807   0.145   4.641   1.268 -0.4355 -2.0092 -1.0479
10204TIP3    H254808   0.042   4.698   1.173 -0.0044 -1.7594 -1.3677
10205TIP3   OH254809   5.010   6.532   1.393  0.0391  0.5818 -0.1765
10205TIP3    H154810   4.983   6.624   1.389 -1.0826  0.4692  2.4468
10205TIP3    H254811   5.099   6.534   1.428 -1.1657  0.7023  3.2392
10206TIP3   OH254812   6.137   6.680   7.449  0.0988 -0.6242  0.1307
10206TIP3    H154813   6.198   6.732   7.397 -0.5342  0.1901  0.1999
10206TIP3    H254814   6.096   6.742   7.509 -2.0949 -0.8028 -1.0820
10207TIP3   OH254815   5.681   3.488   8.487 -0.1901 -0.2310  0.5013
10207TIP3    H154816   5.730   3.547   8.544  0.7409  0.2449 -0.7674
10207TIP3    H254817   5.590   3.496   8.517 -0.2460  2.5619 -0.1992
10208TIP3   OH254818   7.272   6.494   1.056 -0.1447 -0.3232 -0.1586
10208TIP3    H154819   7.206   6.453   1.000 -0.2593 -2.3572  1.3481
10208TIP3    H254820   7.232   6.576   1.085 -1.2373 -0.6329 -0.7542
10209TIP3   OH254821   0.769   1.039   0.076 -0.1411  0.1747  0.0028
10209TIP3    H154822   0.833   0.986   0.029  0.7169  0.7363  0.5145
10209TIP3    H254823   0.685   1.015   0.037  0.5781  0.9904 -2.1796
10210TIP3   OH254824   3.645   6.456   1.809  0.0766 -0.1871  0.3442
10210TIP3    H154825   3.643   6.499   1.724 -0.5742  0.5703  0.7332
10210TIP3    H254826   3.638   6.362   1.789 -0.1695 -0.0079 -0.4233
10211TIP3   OH254827   6.968   0.941   9.124 -0.0007  0.2336 -0.4432
10211TIP3    H154828   6.989   0.954   9.216  0.2600  0.2531 -0.5045
10211TIP3    H254829   6.873   0.935   9.122  0.0629 -1.3168  0.0206
10212TIP3   OH254830   1.691   5.476   0.904  0.3721 -0.6352 -0.0090
10212TIP3    H154831   1.704   5.406   0.969  0.4179 -0.1257  0.5392
10212TIP3    H254832   1.770   5.474   0.850  0.9167 -0.2227  0.7564
10213TIP3   OH254833   1.521   1.954   8.943 -0.2162 -0.1673 -0.1720
10213TIP3    H154834   1.462   1.964   9.018  1.2993 -1.1066  1.1875
10213TIP3    H254835   1.584   2.025   8.953 -0.1077 -0.1961 -0.6561
10214TIP3   OH254836   5.608   4.618   0.824 -0.2663 -0.0397 -0.3345
10214TIP3    H154837   5.698   4.600   0.852  0.8816  1.0539 -3.0107
10214TIP3    H254838   5.575   4.533   0.794  0.6238 -0.0847 -1.2202
10215TIP3   OH254839   7.033   4.914   1.211  0.5011  0.0808  0.0996
10215TIP3    H154840   7.048   4.918   1.116 -1.6479  1.2039 -0.2362
10215TIP3    H254841   6.961   4.852   1.221  0.0184  0.7574  0.8982
10216TIP3   OH254842   7.665   7.385   1.244 -0.0540 -0.1923  0.4643
10216TIP3    H154843   7.604   7.339   1.302  0.0114 -1.1779 -0.2298
10216TIP3    H254844   7.746   7.391   1.295 -0.4107  0.2129  0.9991
10217TIP3   OH254845   5.706   2.035   9.965  0.1989 -0.6155  0.1503
10217TIP3    H154846   5.726   2.058  10.056  0.1179  0.7964 -0.1715
10217TIP3    H254847   5.648   2.104   9.934  3.8406  1.6498 -2.3681
10218TIP3   OH254848   0.665   4.897   1.462 -0.1090  0.7806 -1.0076
10218TIP3    H154849   0.688   4.816   1.416  1.3537 -1.0295  2.5201
10218TIP3    H254850   0.575   4.915   1.436 -0.4765 -1.9709 -1.9801
10219TIP3   OH254851   4.000   5.100   0.601 -0.1213  0.6753  0.3731
10219TIP3    H154852   3.973   5.157   0.529  1.2780 -0.2153 -0.9262
10219TIP3    H254853   4.062   5.154   0.652  2.7213 -0.1311 -1.9461
10220TIP3   OH254854   1.984   2.876   1.081  0.1317  0.0228 -0.0892
10220TIP3    H154855   1.928   2.800   1.065 -3.1137  1.8295  1.6973
10220TIP3    H254856   2.035   2.885   1.000 -2.0740 -1.8521 -1.8384
10221TIP3   OH254857   2.269   7.256   9.831  0.4720 -0.6161 -0.6268
10221TIP3    H154858   2.301   7.166   9.817  1.1588 -0.6097  0.6895
10221TIP3    H254859   2.305   7.306   9.758  0.7101 -1.2779 -0.9725
10222TIP3   OH254860   5.317   0.036   8.175  0.9670 -0.3429  0.2905
10222TIP3    H154861   5.234  -0.007   8.155  0.3528  0.4564  1.0337
10222TIP3    H254862   5.306   0.125   8.141  1.3746 -0.1200  0.7281
10223TIP3   OH254863   6.306   4.909   1.494 -0.1228 -0.2485  0.0235
10223TIP3    H154864   6.362   4.940   1.422 -2.0904  0.1451 -1.4209
10223TIP3    H254865   6.235   4.972   1.497 -0.1000 -0.2718  2.3724
10224TIP3   OH254866   2.680   6.226   6.882 -0.3534 -0.0783  0.0482
10224TIP3    H154867   2.611   6.187   6.828  0.8667 -1.2121 -0.7565
10224TIP3    H254868   2.708   6.303   6.834  0.9158 -1.2309 -1.1573
10225TIP3   OH254869   1.021   0.347   0.340  0.0119  0.1819 -0.4295
10225TIP3    H154870   0.938   0.299   0.334  0.1340 -0.3067  1.1251
10225TIP3    H254871   1.072   0.317   0.264  0.6349 -3.3792  1.1676
10226TIP3   OH254872   2.344   2.549   1.024  0.2194 -0.5466 -0.5324
10226TIP3    H154873   2.288   2.524   0.950 -1.7183 -0.3377  0.7999
10226TIP3    H254874   2.293   2.614   1.072  1.9573  0.2515  0.3265
10227TIP3   OH254875   2.662   2.682   1.536 -0.5095  0.6072  0.0213
10227TIP3    H154876   2.570   2.689   1.560 -1.1434 -0.8053 -1.7390
10227TIP3    H254877   2.670   2.736   1.457  0.3003  1.0671  0.4011
10228TIP3   OH254878   6.128   5.473   2.480  0.2575  0.0773  0.2336
10228TIP3    H154879   6.197   5.426   2.527 -0.5523 -0.0714  1.3069
10228TIP3    H254880   6.047   5.437   2.515 -0.3697  1.4275  0.2199
10229TIP3   OH254881   7.305   2.553   0.534 -0.4736 -0.5124  0.0612
10229TIP3    H154882   7.258   2.631   0.505 -1.4948 -1.4464 -0.9072
10229TIP3    H254883   7.365   2.534   0.461 -0.0414 -0.4908  0.4079
10230TIP3   OH254884   4.640   0.701   0.788  0.7383  0.7554  0.6546
10230TIP3    H154885   4.696   0.625   0.804 -0.2191  0.0170  0.6477
10230TIP3    H254886   4.579   0.671   0.720  1.8002  2.3024 -1.0746
10231TIP3   OH254887   0.074   7.295   9.867 -0.1551 -0.1148 -0.0958
10231TIP3    H154888   0.104   7.224   9.924  0.4799  0.1185 -0.1277
10231TIP3    H254889  -0.003   7.259   9.822 -0.2562 -0.5333  0.4073
10232TIP3   OH254890   0.839   0.979   8.971  0.3122 -0.4829  0.0781
10232TIP3    H154891   0.873   0.981   8.881 -0.4826 -1.3300 -0.2505
10232TIP3    H254892   0.822   0.887   8.988 -1.8512 -0.1034  0.2024
10233TIP3   OH254893   4.500   4.282   1.075 -0.0437  0.7132  0.1891
10233TIP3    H154894   4.492   4.213   1.141  1.0888 -0.7095 -1.1047
10233TIP3    H254895   4.419   4.276   1.025  1.1745 -1.6548 -1.6830
10234TIP3   OH254896   1.417   3.857   9.669 -0.1659 -0.2652  0.1558
10234TIP3    H154897   1.423   3.844   9.574 -0.4563  0.1845  0.0733
10234TIP3    H254898   1.384   3.946   9.679  0.6503 -0.0118  0.7000
10235TIP3   OH254899   3.050   2.725   3.199  0.4586 -0.1506  0.0541
10235TIP3    H154900   3.136   2.756   3.227  0.3815  0.4848 -0.3751
10235TIP3    H254901   3.067   2.643   3.153  1.0563  0.7865 -1.4867
10236TIP3   OH254902   0.054   6.174   7.433 -0.1324  0.3252 -0.2560
10236TIP3    H154903   0.010   6.145   7.513 -1.0561  0.2363 -0.7736
10236TIP3    H254904   0.028   6.266   7.423  0.4332  0.4964 -0.1581
10237TIP3   OH254905   1.431   6.596   2.875  0.0580  0.1851  0.3318
10237TIP3    H154906   1.506   6.653   2.857  0.7669 -0.4018  1.3092
10237TIP3    H254907   1.373   6.608   2.800  0.7407  1.2835 -0.0469
10238TIP3   OH254908   7.472   2.808   9.584  0.0370  0.1773 -0.2497
10238TIP3    H154909   7.404   2.784   9.522  0.0595  1.0234 -0.6186
10238TIP3    H254910   7.480   2.733   9.643 -0.4532 -0.3575 -0.8636
10239TIP3   OH254911   2.339   0.564   2.775 -0.1619 -0.5732 -0.1188
10239TIP3    H154912   2.277   0.517   2.719  0.5813 -1.9597  0.1784
10239TIP3    H254913   2.401   0.497   2.803  0.9847  0.6240  0.2735
10240TIP3   OH254914   4.319   0.417   9.219 -0.1883 -0.1107  0.2293
10240TIP3    H154915   4.287   0.482   9.156  0.1474 -0.8724 -0.7591
10240TIP3    H254916   4.279   0.442   9.302  0.7484  1.9868  0.1276
10241TIP3   OH254917   4.295   2.508   0.670 -0.8289 -0.1102 -0.1005
10241TIP3    H154918   4.373   2.452   0.675 -0.8426 -0.0369  1.7461
10241TIP3    H254919   4.233   2.457   0.617 -0.1723 -0.9899 -0.0606
10242TIP3   OH254920   1.238   0.393   9.212 -0.1839 -0.8501  0.1789
10242TIP3    H154921   1.289   0.389   9.293 -1.5992 -1.8584  1.0595
10242TIP3    H254922   1.191   0.477   9.218  0.9127 -0.1699 -0.3858
10243TIP3   OH254923   2.882   4.762   9.389  0.6388 -0.2533  0.3322
10243TIP3    H154924   2.917   4.850   9.406  1.3996 -0.5776  0.4797
10243TIP3    H254925   2.847   4.767   9.300 -2.2893  1.1207  1.4052
10244TIP3   OH254926   1.094   6.237   8.140  0.5957 -0.4300  0.2957
10244TIP3    H154927   1.135   6.273   8.218  0.2342 -0.6498  0.5878
10244TIP3    H254928   1.019   6.188   8.172  0.6653 -0.8472 -0.1558
10245TIP3   OH254929   6.128   0.834   9.643 -0.2211  0.1001 -0.1055
10245TIP3    H154930   6.219   0.832   9.671 -0.4451 -1.0125  0.5909
10245TIP3    H254931   6.129   0.887   9.563  0.8571  1.0181  0.4732
10246TIP3   OH254932   2.934   0.735   0.369  0.1041  0.4723  0.1724
10246TIP3    H154933   2.930   0.830   0.360 -0.6324  0.2972 -1.7987
10246TIP3    H254934   2.990   0.707   0.296  1.8083 -0.4937  1.7874
10247TIP3   OH254935   4.820   5.474   8.899 -0.2216  0.5383 -0.3107
10247TIP3    H154936   4.773   5.527   8.835 -2.4680 -1.5188 -0.5061
10247TIP3    H254937   4.761   5.401   8.917  1.4290 -0.2846  2.2190
10248TIP3   OH254938   3.569   4.469   8.788 -1.1585 -0.1359  0.1789
10248TIP3    H154939   3.499   4.458   8.723 -0.3302 -1.9840 -0.4687
10248TIP3    H254940   3.582   4.381   8.824 -0.7955  0.6232  2.0561
10249TIP3   OH254941   3.397   2.822   0.204  0.3445  0.1967  0.4607
10249TIP3    H154942   3.435   2.734   0.198 -0.2814 -0.1632  1.5094
10249TIP3    H254943   3.366   2.829   0.294 -0.0802  1.3070  0.2479
10250TIP3   OH254944   5.530   5.171   9.267 -0.1753  0.3969 -0.3060
10250TIP3    H154945   5.615   5.160   9.224  0.1737 -0.9285  0.6463
10250TIP3    H254946   5.552   5.192   9.357 -0.9030  2.6159 -0.5890
10251TIP3   OH254947   1.651   3.168   7.899  0.3648 -0.0809  0.1945
10251TIP3    H154948   1.674   3.195   7.988  2.2781  0.2086 -0.3419
10251TIP3    H254949   1.632   3.074   7.907 -0.6680  0.1871  1.0898
10252TIP3   OH254950   2.407   1.750   6.932  0.2454 -0.0909  0.3407
10252TIP3    H154951   2.334   1.722   6.876  0.8793  1.0340 -1.0874
10252TIP3    H254952   2.365   1.773   7.015 -1.0871  0.7844 -0.5250
10253TIP3   OH254953   4.882   4.341   9.996  0.3264  0.3680  0.4091
10253TIP3    H154954   4.847   4.430   9.998 -0.9634 -0.1224  0.8302
10253TIP3    H254955   4.977   4.352   9.989  0.1102  1.7574 -0.7628
10254TIP3   OH254956   4.673   4.752   9.785 -0.4873  0.4965  0.1402
10254TIP3    H154957   4.606   4.684   9.791 -0.1692  0.2754  1.6794
10254TIP3    H254958   4.628   4.826   9.746 -0.9295 -0.4746 -1.2729
10255TIP3   OH254959   1.345   0.464   1.972 -0.8349 -0.0190  0.0340
10255TIP3    H154960   1.303   0.472   1.887 -0.0698  2.8013 -0.1894
10255TIP3    H254961   1.439   0.460   1.953 -0.7337 -1.5709  0.7031
10256TIP3   OH254962   0.796   1.706   1.135 -0.9740  0.0760 -0.2314
10256TIP3    H154963   0.758   1.781   1.089 -0.7948 -0.0667 -0.6132
10256TIP3    H254964   0.720   1.657   1.167 -1.1099  1.5037  1.8380
10257TIP3   OH254965   3.674   3.143   2.001  0.4452 -0.3717 -0.1172
10257TIP3    H154966   3.591   3.097   1.987 -0.7349  1.5380  0.1726
10257TIP3    H254967   3.676   3.161   2.095  1.3436 -0.6642 -0.0764
10258TIP3   OH254968   5.442   5.471   9.175 -0.4295 -0.2435  0.1607
10258TIP3    H154969   5.358   5.442   9.137 -0.1723 -0.6341 -0.1146
10258TIP3    H254970   5.443   5.432   9.262 -0.7480  0.1553  0.3476
10259TIP3   OH254971   4.910   4.904   1.091 -0.2502  0.0659 -0.1606
10259TIP3    H154972   4.966   4.887   1.167 -0.9782 -1.2901  0.1162
10259TIP3    H254973   4.829   4.938   1.128 -0.4916 -0.2988 -0.3432
10260TIP3   OH254974   3.670   3.830   1.678  0.0120  0.7047  0.3516
10260TIP3    H154975   3.747   3.780   1.706  0.2932 -0.2887 -2.0056
10260TIP3    H254976   3.601   3.803   1.739  0.9369 -0.1672  1.0570
10261TIP3   OH254977   3.405   6.400   8.307 -0.5506 -0.2009 -0.2783
10261TIP3    H154978   3.321   6.423   8.347  0.7226  2.1669  1.3005
10261TIP3    H254979   3.434   6.482   8.266  1.1059 -0.8811 -0.5326
10262TIP3   OH254980   6.012   7.082   0.206  0.4333 -0.3532  0.1964
10262TIP3    H154981   6.072   7.153   0.231 -0.3059  0.3086  0.1345
10262TIP3    H254982   5.925   7.115   0.229 -0.0748 -0.6064 -1.2187
10263TIP3   OH254983   0.909   0.611   8.746  0.1734 -0.5022  0.1969
10263TIP3    H154984   0.955   0.685   8.707 -0.3324 -0.0486  0.4403
10263TIP3    H254985   0.901   0.634   8.839  3.4228 -2.6046  1.1642
10264TIP3   OH254986   0.669   1.332   9.985 -0.6228  0.1890 -0.2081
10264TIP3    H154987   0.681   1.238   9.996  0.9754  0.2249 -1.4042
10264TIP3    H254988   0.574   1.343   9.980 -0.9124 -1.1516  1.3646
10265TIP3   OH254989   0.560   1.233   8.303  0.5568  0.5759  0.2263
10265TIP3    H154990   0.510   1.172   8.357 -0.1940  0.9287 -0.0600
10265TIP3    H254991   0.644   1.190   8.289  0.5066  0.1757  1.0968
10266TIP3   OH254992   6.360   1.769   9.077 -0.5958 -0.0921 -0.1384
10266TIP3    H154993   6.453   1.792   9.075 -0.6743  0.2028 -0.5417
10266TIP3    H254994   6.330   1.779   8.986 -0.9472 -0.4960 -0.0730
10267TIP3   OH254995   2.143   4.916   2.046 -0.5409  0.4291 -0.2575
10267TIP3    H154996   2.137   4.933   1.951 -0.0118  0.0253 -0.3669
10267TIP3    H254997   2.192   4.834   2.053  1.5243  1.6316  0.4214
10268TIP3   OH254998   4.476   6.911   1.910  0.0839  0.0934  0.1413
10268TIP3    H154999   4.556   6.896   1.859  0.3677 -0.5426  0.7504
10268TIP3    H255000   4.427   6.830   1.903  0.3230 -0.1659  1.1955
10269TIP3   OH255001   4.964   6.698   0.852 -0.4641 -0.6696 -0.3914
10269TIP3    H155002   4.992   6.760   0.785 -2.2266  0.6926  0.0442
10269TIP3    H255003   5.015   6.619   0.836  2.4780  1.1341 -0.4752
10270TIP3   OH255004   5.174   1.997   1.118 -0.0684 -0.5037 -0.6295
10270TIP3    H155005   5.204   1.924   1.063 -0.2958 -1.4520  0.4801
10270TIP3    H255006   5.154   2.067   1.055  0.1179 -1.4007 -1.7256
10271TIP3   OH255007   1.835   2.493   8.522  0.4108 -0.0082  0.6352
10271TIP3    H155008   1.913   2.548   8.519 -0.6524  1.6166  1.3354
10271TIP3    H255009   1.851   2.433   8.595  0.5130  1.1322  1.5786
10272TIP3   OH255010   5.608   7.411   1.122  0.4075  0.0101 -0.0561
10272TIP3    H155011   5.608   7.507   1.119 -1.7825  0.0822  0.6441
10272TIP3    H255012   5.519   7.388   1.146  1.2078 -2.1977  1.0397
10273TIP3   OH255013   4.891   3.746   9.134  0.1388 -0.8496 -0.0530
10273TIP3    H155014   4.864   3.832   9.101 -0.0702 -0.5697  0.8123
10273TIP3    H255015   4.817   3.716   9.187  0.8086 -0.8501  0.9279
10274TIP3   OH255016   2.410   4.561   9.082 -0.1995  0.0851  0.2896
10274TIP3    H155017   2.342   4.626   9.101  0.4603  1.0773 -0.6157
10274TIP3    H255018   2.386   4.526   8.996  0.2155  0.1747  0.1334
10275TIP3   OH255019   4.984   5.730   8.885  0.2082  0.1085  0.1645
10275TIP3    H155020   4.923   5.783   8.937 -1.5641  0.3110 -2.0095
10275TIP3    H255021   4.947   5.642   8.888  1.1606 -0.2910  0.7640
10276TIP3   OH255022   4.057   4.319   0.638  0.6910  0.3730  0.4243
10276TIP3    H155023   4.152   4.324   0.650  0.5980  2.6378  0.7227
10276TIP3    H255024   4.039   4.378   0.565 -0.4004 -0.9033 -0.3811
10277TIP3   OH255025   3.683   6.176   7.709 -0.2982  0.1050 -0.2140
10277TIP3    H155026   3.655   6.084   7.714 -0.1163  0.1210  1.9362
10277TIP3    H255027   3.606   6.226   7.735  0.1411  0.4488  0.4459
10278TIP3   OH255028   1.416   2.579   9.388  0.1253 -0.1903  0.2947
10278TIP3    H155029   1.423   2.639   9.314  0.6613  1.5296  1.6757
10278TIP3    H255030   1.497   2.591   9.438 -0.0105 -1.6476  0.9413
10279TIP3   OH255031   4.645   0.340   9.485 -0.7457  0.2919 -0.7953
10279TIP3    H155032   4.630   0.391   9.564 -2.2155 -0.0891 -0.8032
10279TIP3    H255033   4.673   0.404   9.420  1.1953  0.5102  0.1775
10280TIP3   OH255034   2.126   0.407   1.689 -0.1943 -0.0529 -0.3178
10280TIP3    H155035   2.052   0.467   1.698  0.0011  0.1520 -0.0798
10280TIP3    H255036   2.142   0.375   1.777 -0.3295 -0.4959 -0.4498
10281TIP3   OH255037   5.213   2.240   0.557  0.1912  0.1592  0.6306
10281TIP3    H155038   5.211   2.154   0.598 -0.5375  0.6384  1.6461
10281TIP3    H255039   5.288   2.237   0.498  0.5927 -0.9368  1.1719
10282TIP3   OH255040   5.279   6.455   0.732 -0.3378  0.1313  0.0588
10282TIP3    H155041   5.240   6.448   0.819  1.7975 -1.8357  0.9534
10282TIP3    H255042   5.370   6.429   0.744  0.9742  3.0931 -2.1702
10283TIP3   OH255043   6.782   0.291   1.245  0.1483  0.1655  0.3607
10283TIP3    H155044   6.714   0.266   1.182  0.6023  1.1583 -0.5659
10283TIP3    H255045   6.767   0.235   1.321 -1.2298 -0.1497 -0.1215
10284TIP3   OH255046   0.384   1.160   7.315 -0.5252 -0.1837  0.5583
10284TIP3    H155047   0.474   1.126   7.309 -1.0608 -1.8903  1.5869
10284TIP3    H255048   0.387   1.225   7.385  0.2589  1.1222 -0.6275
10285TIP3   OH255049   1.642   4.951   8.441 -0.0652 -0.4126 -0.0114
10285TIP3    H155050   1.664   4.858   8.440  0.0486 -0.4239  1.5407
10285TIP3    H255051   1.556   4.955   8.484 -0.1201  0.1864 -0.1655
10286TIP3   OH255052   2.862   7.186   2.838  0.1744 -0.2754  0.0363
10286TIP3    H155053   2.827   7.099   2.856 -0.3160 -0.4181 -1.4454
10286TIP3    H255054   2.957   7.176   2.845  0.0869 -0.7083  0.7003
10287TIP3   OH255055   7.460   6.743   1.153  0.4118 -0.1460  0.1601
10287TIP3    H155056   7.449   6.650   1.135 -1.2777  0.1342 -0.4793
10287TIP3    H255057   7.394   6.786   1.099 -0.3317  1.2481  2.0447
10288TIP3   OH255058   6.897   2.899   1.166 -0.0319 -0.3065 -0.2796
10288TIP3    H155059   6.910   2.842   1.242  1.0059 -3.7565 -2.7576
10288TIP3    H255060   6.985   2.932   1.146  0.0846 -0.9912 -0.9917
10289TIP3   OH255061   3.894   1.881   0.664  0.3233 -0.4745 -0.0641
10289TIP3    H155062   3.950   1.824   0.612 -0.1706 -1.5378  0.5219
10289TIP3    H255063   3.949   1.957   0.685  0.5250 -0.0235 -2.0882
10290TIP3   OH255064   2.017   2.045   2.085  0.2713  0.1764 -0.1420
10290TIP3    H155065   2.063   2.129   2.078 -1.2090  1.0251 -0.0427
10290TIP3    H255066   1.980   2.046   2.173 -0.6227 -0.0995 -0.5037
10291TIP3   OH255067   0.804   1.717   1.802 -0.3256 -0.1373 -0.1140
10291TIP3    H155068   0.786   1.754   1.888  0.0021  1.3437 -0.6382
10291TIP3    H255069   0.717   1.701   1.764 -0.4846  0.1578  0.1205
10292TIP3   OH255070   2.706   6.648   1.168 -0.3978  0.7039  0.2143
10292TIP3    H155071   2.641   6.684   1.108 -0.7341  1.9170  1.2487
10292TIP3    H255072   2.654   6.605   1.236 -0.0392 -0.1035 -0.0055
10293TIP3   OH255073   4.018   0.260   8.176  0.3882  0.5950  0.0522
10293TIP3    H155074   3.931   0.264   8.216 -1.7866 -1.3246 -3.8622
10293TIP3    H255075   4.021   0.335   8.117  1.3210  0.5333 -0.0017
10294TIP3   OH255076   7.282   1.859   1.046 -0.1539  0.8250 -0.1266
10294TIP3    H155077   7.290   1.784   1.105  0.8029  1.1577  0.1879
10294TIP3    H255078   7.311   1.934   1.099  0.8751  1.1078 -1.0646
10295TIP3   OH255079   0.792   0.201   8.132  0.2118  0.1576 -0.4489
10295TIP3    H155080   0.754   0.171   8.215  0.3075  0.0891 -0.4298
10295TIP3    H255081   0.840   0.125   8.099 -1.1163 -0.3339 -1.3554
10296TIP3   OH255082   0.688   5.992   8.031 -0.0113 -0.1473 -0.4243
10296TIP3    H155083   0.618   6.033   8.083  2.9740  1.9199  2.3959
10296TIP3    H255084   0.682   6.034   7.945  0.8794  4.1283  1.3710
10297TIP3   OH255085   5.051   4.981   2.373  0.0570  0.6679 -0.8357
10297TIP3    H155086   5.057   4.935   2.456 -0.0451  0.9838 -0.6512
10297TIP3    H255087   4.958   4.977   2.350  0.1188  0.3924 -1.0450
10298TIP3   OH255088   1.975   5.923   3.128 -0.0885 -0.2481  0.1517
10298TIP3    H155089   1.946   5.988   3.193 -0.9322  0.3712 -0.8089
10298TIP3    H255090   2.069   5.940   3.118 -0.1004  0.1514  0.6554
10299TIP3   OH255091   3.299   4.957   6.671 -0.3946 -0.2173  0.3174
10299TIP3    H155092   3.343   5.029   6.715 -0.9121  0.5259 -0.3524
10299TIP3    H255093   3.234   4.926   6.734  0.0405 -0.3126  0.7245
10300TIP3   OH255094   3.749   6.536   2.250 -0.0759 -0.5393  0.1522
10300TIP3    H155095   3.839   6.523   2.281  0.0388 -0.1525 -0.0052
10300TIP3    H255096   3.725   6.453   2.209  0.9199 -0.0308 -1.5836
10301TIP3   OH255097   0.915   6.621   9.898 -0.2580 -0.5995  0.2750
10301TIP3    H155098   0.938   6.659   9.814  0.3040 -0.2135  0.6008
10301TIP3    H255099   0.961   6.674   9.963 -1.2891 -0.4161  0.8795
10302TIP3   OH255100   6.737   2.608   2.155  0.3418  0.1433 -0.2538
10302TIP3    H155101   6.691   2.545   2.210 -0.1207 -1.4350 -2.3446
10302TIP3    H255102   6.829   2.598   2.179  0.1793 -0.7138  0.0463
10303TIP3   OH255103   5.353   0.534   8.216 -0.0351  0.4079  0.2323
10303TIP3    H155104   5.291   0.592   8.171 -0.5209 -1.4615 -1.6915
10303TIP3    H255105   5.301   0.456   8.236  1.2274 -0.4280  0.3345
10304TIP3   OH255106   2.706   5.679   1.931 -0.1342 -0.0223  0.5239
10304TIP3    H155107   2.652   5.704   2.005  0.3351  2.0923  0.1952
10304TIP3    H255108   2.795   5.704   1.955  0.2021 -0.3465 -0.3062
10305TIP3   OH255109   2.994   6.236   0.608 -0.2307 -0.0180  0.6028
10305TIP3    H155110   2.913   6.271   0.645 -0.4150  0.0404  0.1614
10305TIP3    H255111   3.060   6.302   0.627 -0.6239  0.7083 -0.4264
10306TIP3   OH255112   4.655   0.159   1.625  0.0120 -0.1308 -0.2933
10306TIP3    H155113   4.691   0.213   1.696  0.5997  3.0087 -2.7506
10306TIP3    H255114   4.731   0.121   1.582 -0.3457 -2.0832  0.7021
10307TIP3   OH255115   3.308   4.657   8.111  0.8226  0.0526 -0.1222
10307TIP3    H155116   3.398   4.685   8.132  0.9271  0.2775 -0.8477
10307TIP3    H255117   3.289   4.590   8.176  1.3891  0.2500  0.2622
10308TIP3   OH255118   7.052   7.323   1.659  0.0134 -0.2922 -0.2209
10308TIP3    H155119   7.120   7.390   1.656  0.0839 -0.3488  0.1383
10308TIP3    H255120   7.088   7.254   1.714 -0.3371 -0.3225 -0.0262
10309TIP3   OH255121   3.256   1.307   1.209 -0.1493  0.0978 -0.2570
10309TIP3    H155122   3.169   1.280   1.181 -0.1158 -1.1261  0.7358
10309TIP3    H255123   3.315   1.267   1.145 -0.3401  2.1023 -1.7792
10310TIP3   OH255124   0.003   3.824   1.499 -0.3392  0.8608 -0.0444
10310TIP3    H155125   0.041   3.736   1.500 -1.5267  0.3137 -0.6259
10310TIP3    H255126   0.078   3.883   1.501  0.5195 -0.1716 -0.7838
10311TIP3   OH255127   7.569   3.723   7.300 -0.3320  0.2783 -0.2275
10311TIP3    H155128   7.523   3.796   7.259 -1.5064 -0.7832 -0.8838
10311TIP3    H255129   7.644   3.708   7.243  0.3363  1.4092  0.3160
10312TIP3   OH255130   1.724   4.792   1.883  1.0622  0.2025 -0.5051
10312TIP3    H155131   1.740   4.885   1.867  1.4793 -0.0059 -1.3513
10312TIP3    H255132   1.629   4.783   1.874  1.1631  0.3005 -1.8466
10313TIP3   OH255133   6.104   0.812   8.098 -0.2819 -0.1290 -0.0740
10313TIP3    H155134   6.156   0.767   8.032  0.4896 -1.7101  1.5405
10313TIP3    H255135   6.139   0.901   8.100  1.6063 -0.8284  0.1521
10314TIP3   OH255136   6.291   5.013   9.392  0.0662 -0.0567  0.1749
10314TIP3    H155137   6.375   5.027   9.349 -0.6310  2.2040 -0.5743
10314TIP3    H255138   6.227   5.048   9.331 -1.1008  1.7177  2.2775
10315TIP3   OH255139   6.672   1.149   7.945 -1.1546  0.1436 -0.4020
10315TIP3    H155140   6.607   1.180   7.883  0.6200  0.8381 -2.0019
10315TIP3    H255141   6.749   1.128   7.892 -0.0551 -0.6756  1.3956
10316TIP3   OH255142   3.413   0.444   0.628  0.6624 -0.9876 -0.1297
10316TIP3    H155143   3.403   0.349   0.623  1.6126 -1.1100  0.0848
10316TIP3    H255144   3.424   0.472   0.537 -1.0850 -0.8821 -0.3493
10317TIP3   OH255145   4.572   0.141   1.106  0.4276  0.2021 -0.2250
10317TIP3    H155146   4.575   0.190   1.188  1.0971 -0.6520  0.2777
10317TIP3    H255147   4.587   0.050   1.132  1.8913  0.0607 -1.4120
10318TIP3   OH255148   1.630   3.404   1.401  0.7023 -0.0056  0.0749
10318TIP3    H155149   1.537   3.415   1.421  0.2641 -0.1118 -1.7832
10318TIP3    H255150   1.674   3.422   1.484 -1.0305 -1.1967  1.3307
10319TIP3   OH255151   7.561   4.029   7.161 -0.1318 -0.0004  0.2163
10319TIP3    H155152   7.556   4.121   7.136  0.2118  0.5992  2.1790
10319TIP3    H255153   7.648   4.000   7.132 -0.0313  0.4437  0.0769
10320TIP3   OH255154   1.181   4.434   0.892  0.5493  0.1147  0.2793
10320TIP3    H155155   1.240   4.359   0.900  0.7259  0.2198 -0.0146
10320TIP3    H255156   1.174   4.449   0.797 -1.1180 -0.8201  0.2117
10321TIP3   OH255157   5.156   3.940   8.265 -0.1695 -0.1401 -0.3545
10321TIP3    H155158   5.164   4.029   8.300 -1.7310  0.2597 -0.9232
10321TIP3    H255159   5.082   3.903   8.312  0.9484 -1.4584  0.4384
10322TIP3   OH255160   4.026   1.184   9.526  0.1396  0.3117 -0.4659
10322TIP3    H155161   4.075   1.113   9.484  2.3893  1.0313  0.7500
10322TIP3    H255162   3.981   1.227   9.453  1.0466 -0.6192 -1.6343
10323TIP3   OH255163   7.475   1.057   1.957  0.1939  1.0737  0.5966
10323TIP3    H155164   7.538   1.113   1.912  0.1355  0.6212 -0.0578
10323TIP3    H255165   7.517   0.971   1.962 -0.4297  0.7242  0.0015
10324TIP3   OH255166   7.190   5.067   8.017 -0.3938  0.1907 -0.1516
10324TIP3    H155167   7.163   5.043   8.105  0.3378 -0.9858 -0.2188
10324TIP3    H255168   7.170   4.990   7.964  0.3169  0.4143 -0.7626
10325TIP3   OH255169   2.627   1.409   9.426  0.3993  0.0518 -0.2139
10325TIP3    H155170   2.561   1.416   9.495  0.7366 -0.0495  0.1239
10325TIP3    H255171   2.586   1.354   9.359 -0.1042  0.5405 -0.3050
10326TIP3   OH255172   0.183   5.086   9.439  0.1975  0.2440  0.1500
10326TIP3    H155173   0.199   5.140   9.516  1.9779  0.7514 -0.5252
10326TIP3    H255174   0.151   5.147   9.373 -1.0872 -0.1492  0.3780
10327TIP3   OH255175   1.858   1.301   7.722 -0.0064  0.1655 -0.0370
10327TIP3    H155176   1.935   1.349   7.754  1.5101 -2.8445  1.2127
10327TIP3    H255177   1.790   1.319   7.787  1.0690 -0.6944  1.3728
10328TIP3   OH255178   0.644   0.435   8.434  0.3451 -0.0300  0.4029
10328TIP3    H155179   0.615   0.365   8.374 -0.6180  0.1187  0.6783
10328TIP3    H255180   0.734   0.454   8.407  0.5744 -1.2772  0.2264
10329TIP3   OH255181   4.543   0.400   0.667 -0.5835 -0.2031 -0.5300
10329TIP3    H155182   4.585   0.319   0.638  1.5481  0.7509 -0.2458
10329TIP3    H255183   4.542   0.395   0.762 -0.6308  0.0207 -0.5170
10330TIP3   OH255184   3.606   2.460   1.855  0.2160  0.1302 -0.3948
10330TIP3    H155185   3.614   2.368   1.880 -0.7869  0.1305 -0.0402
10330TIP3    H255186   3.518   2.468   1.819  0.5080  0.8263 -0.9891
10331TIP3   OH255187   3.826   0.921   0.359 -0.3038  0.4711 -0.5687
10331TIP3    H155188   3.914   0.886   0.367 -0.8941 -1.3906 -1.5934
10331TIP3    H255189   3.826   0.969   0.276  0.0573  1.6150  0.0597
10332TIP3   OH255190   1.452   6.446   2.635 -0.1485  0.0092 -0.5103
10332TIP3    H155191   1.364   6.483   2.628 -0.1180 -0.0883 -1.5204
10332TIP3    H255192   1.499   6.507   2.694 -0.9082 -0.0046  0.1286
10333TIP3   OH255193   2.395   6.116   8.634  0.6399  0.3585 -0.0252
10333TIP3    H155194   2.394   6.042   8.695 -0.1982 -0.3484 -0.8499
10333TIP3    H255195   2.407   6.075   8.548 -1.0196  1.0471 -0.6171
10334TIP3   OH255196   6.968   6.898   0.730  0.3331  0.5544  0.1487
10334TIP3    H155197   6.976   6.925   0.638  0.9133 -1.3369 -0.4002
10334TIP3    H255198   7.055   6.912   0.767  0.1664  1.0733  0.3571
10335TIP3   OH255199   4.807   2.850   9.759  0.3880 -0.4839 -0.3246
10335TIP3    H155200   4.818   2.878   9.668 -0.1876 -1.4397 -0.7034
10335TIP3    H255201   4.896   2.843   9.793  0.6243 -0.4596 -0.9265
10336TIP3   OH255202   3.127   7.490   6.659 -0.0131 -0.1974  0.0259
10336TIP3    H155203   3.171   7.558   6.608  1.6049 -1.7332 -0.6987
10336TIP3    H255204   3.197   7.445   6.705 -0.9570 -1.8329 -0.0762
10337TIP3   OH255205   3.077   7.502   7.937  0.3096 -0.3585 -0.1678
10337TIP3    H155206   3.006   7.492   7.874  0.5238  0.6570 -0.5987
10337TIP3    H255207   3.141   7.558   7.892 -0.1094  1.4943  1.4066
10338TIP3   OH255208   4.529   6.063   2.045  0.1974  0.5130  0.2821
10338TIP3    H155209   4.440   6.059   2.012  0.2341  1.3370  0.0636
10338TIP3    H255210   4.519   6.068   2.140 -0.0093  0.9267  0.2432
10339TIP3   OH255211   2.804   7.046   0.099 -0.5282  0.2816 -0.1061
10339TIP3    H155212   2.771   6.957   0.085  0.9287 -0.4361  0.7393
10339TIP3    H255213   2.863   7.062   0.025 -2.8803  1.6872 -1.7949
10340TIP3   OH255214   4.822   5.833   1.163  0.1268 -0.3360 -0.0320
10340TIP3    H155215   4.907   5.849   1.121  0.3318  0.2424  0.5941
10340TIP3    H255216   4.830   5.873   1.250 -0.0210 -2.1246  0.8556
10341TIP3   OH255217   5.914   1.777   8.393  0.1455 -0.2379  0.0699
10341TIP3    H155218   6.007   1.763   8.410  0.2659 -0.8139 -0.9342
10341TIP3    H255219   5.910   1.807   8.302 -0.6926 -1.0261 -0.1821
10342TIP3   OH255220   0.947   6.949   7.324  0.5774 -0.4275 -0.6726
10342TIP3    H155221   1.005   6.982   7.256  0.4666  1.5536  0.1280
10342TIP3    H255222   0.869   7.005   7.318  0.0490 -1.0315  0.2823
10343TIP3   OH255223   6.862   6.354   8.521 -0.3219 -0.0079 -0.1109
10343TIP3    H155224   6.803   6.428   8.540  1.1365  1.4271 -0.9181
10343TIP3    H255225   6.838   6.287   8.586 -1.2712  1.3964  1.0640
10344TIP3   OH255226   2.191   1.600   9.328  0.5093  0.1536 -0.3488
10344TIP3    H155227   2.174   1.593   9.234 -0.0037 -1.3798 -0.1832
10344TIP3    H255228   2.271   1.651   9.335  0.3369  0.6314 -1.5934
10345TIP3   OH255229   4.268   7.380   7.856 -0.4275  0.2284  0.7601
10345TIP3    H155230   4.176   7.387   7.881 -0.9674  2.8840 -1.4598
10345TIP3    H255231   4.316   7.421   7.928 -1.3137  1.6294  0.6040
10346TIP3   OH255232   6.468   6.439   8.505 -0.1796  0.8557 -0.1134
10346TIP3    H155233   6.537   6.382   8.538  2.5857  3.6178 -0.6910
10346TIP3    H255234   6.398   6.432   8.570  0.1153 -2.7548  0.0460
10347TIP3   OH255235   5.064   7.000   1.834  0.4425  0.0818 -0.4074
10347TIP3    H155236   5.128   7.069   1.817  1.7148 -1.5272 -2.5968
10347TIP3    H255237   4.991   7.019   1.775 -0.1525  0.6551  0.4795
10348TIP3   OH255238   0.268   0.980   1.124 -0.0267  0.0871  0.0471
10348TIP3    H155239   0.199   0.918   1.145 -0.9857  0.7740 -0.9414
10348TIP3    H255240   0.241   1.061   1.166 -0.5824  0.7364 -1.4809
10349TIP3   OH255241   7.425   5.759   8.912  0.3849 -0.4882  0.1189
10349TIP3    H155242   7.467   5.771   8.997 -2.5493  0.9372  1.5300
10349TIP3    H255243   7.401   5.666   8.910  1.8157 -0.8749  0.1238
10350TIP3   OH255244   0.247   5.146   0.126  0.1345 -0.1803  0.1083
10350TIP3    H155245   0.265   5.205   0.199  1.2702  0.4555 -0.6653
10350TIP3    H255246   0.317   5.081   0.129 -0.9048 -1.3144  0.7336
10351TIP3   OH255247   3.866   3.324   9.951  0.5890 -0.4446 -0.1743
10351TIP3    H155248   3.878   3.375   9.871 -1.1004  0.1563 -0.0864
10351TIP3    H255249   3.800   3.372  10.001 -0.2910 -2.1510  0.3879
10352TIP3   OH255250   2.160   7.557   2.895 -0.6617  0.5345  0.0060
10352TIP3    H155251   2.171   7.481   2.839  0.1206 -0.0423  0.9157
10352TIP3    H255252   2.065   7.561   2.912 -1.1140  1.4972 -2.3477
10353TIP3   OH255253   4.536   5.479   7.571  0.0044 -0.3302 -0.1708
10353TIP3    H155254   4.629   5.459   7.567 -0.1348 -0.8736 -3.0696
10353TIP3    H255255   4.493   5.393   7.574 -0.4164 -0.1269 -0.3068
10354TIP3   OH255256   2.905   5.738   0.289  0.1335  1.2041  0.4626
10354TIP3    H155257   2.902   5.762   0.196  0.2262 -0.7207 -0.0797
10354TIP3    H255258   2.817   5.757   0.322 -0.7976 -0.6852 -0.7582
10355TIP3   OH255259   3.635   7.293   7.889 -0.0479  0.2479 -0.2001
10355TIP3    H155260   3.601   7.277   7.801 -0.1202  1.3427 -0.3845
10355TIP3    H255261   3.614   7.385   7.906  0.6691  0.2651  0.6438
10356TIP3   OH255262   6.471   6.284   1.353 -0.3660 -0.9303 -0.0989
10356TIP3    H155263   6.480   6.189   1.348 -0.2922 -1.1608  2.7436
10356TIP3    H255264   6.441   6.310   1.265  0.6520 -3.4052 -1.2791
10357TIP3   OH255265   1.841   3.156   0.990 -0.0416 -0.1606  0.3546
10357TIP3    H155266   1.882   3.137   1.074 -1.3150  0.6467  1.1934
10357TIP3    H255267   1.914   3.178   0.932  0.6634  2.9149  2.2181
10358TIP3   OH255268   0.158   4.421   1.536  0.5908 -0.0163  0.1546
10358TIP3    H155269   0.116   4.505   1.521  0.2865 -0.3285 -0.8022
10358TIP3    H255270   0.153   4.408   1.631 -0.7247  0.3404  0.1457
10359TIP3   OH255271   0.355   6.178   8.453 -0.2014  0.0108  0.0510
10359TIP3    H155272   0.341   6.084   8.455  0.9673 -0.2132 -1.0012
10359TIP3    H255273   0.284   6.211   8.397  0.2467 -0.4282 -0.7868
10360TIP3   OH255274   2.228   1.666   8.839  0.3216 -0.4846  0.2793
10360TIP3    H155275   2.216   1.616   8.758 -0.5214 -1.2962  0.8907
10360TIP3    H255276   2.321   1.655   8.860  0.6747  0.1752 -0.8449
10361TIP3   OH255277   6.478   4.124   9.514 -0.1174 -0.1647 -0.2439
10361TIP3    H155278   6.560   4.142   9.561 -1.5605 -0.4781  2.5849
10361TIP3    H255279   6.487   4.172   9.431  2.4143  0.8009  0.4970
10362TIP3   OH255280   4.982   3.320   7.825  0.1778 -0.5809  0.2499
10362TIP3    H155281   4.970   3.230   7.795  0.1916 -0.7472  0.7330
10362TIP3    H255282   5.014   3.367   7.748  0.4777 -1.0584  0.0787
10363TIP3   OH255283   3.248   2.727   9.517 -0.1551  0.3148 -0.2000
10363TIP3    H155284   3.183   2.705   9.584 -1.0249  0.2170 -1.0588
10363TIP3    H255285   3.331   2.730   9.565 -0.6930 -0.1708  0.8035
10364TIP3   OH255286   0.935   5.836   9.027  0.4137  0.8023  0.1856
10364TIP3    H155287   0.939   5.915   8.973 -0.9414  1.1582  0.5906
10364TIP3    H255288   1.026   5.805   9.029  0.5728  0.9269 -2.0624
10365TIP3   OH255289   6.126   7.191   7.583 -0.1605  0.1649 -0.0599
10365TIP3    H155290   6.068   7.247   7.533 -0.1394  0.7584  0.5610
10365TIP3    H255291   6.129   7.231   7.670  1.0234  0.0391 -0.0292
10366TIP3   OH255292   3.767   5.725   1.948 -0.0046 -0.0636  0.2350
10366TIP3    H155293   3.675   5.741   1.972  0.0966 -0.5920  1.0099
10366TIP3    H255294   3.769   5.634   1.918  0.2452 -0.0196  0.1145
10367TIP3   OH255295   6.408   0.729   2.220  0.3946  0.3153 -0.1802
10367TIP3    H155296   6.350   0.798   2.252 -1.8553 -1.9461  1.0150
10367TIP3    H255297   6.439   0.760   2.135 -1.1318  2.4252 -0.0243
10368TIP3   OH255298   7.665   5.779   8.752 -0.0058  0.6809  0.0427
10368TIP3    H155299   7.717   5.860   8.753  0.0542  0.6416  0.3724
10368TIP3    H255300   7.583   5.803   8.794  0.6934  0.1392  1.8155
10369TIP3   OH255301   3.758   5.622   2.733 -0.0895  0.5733  0.2454
10369TIP3    H155302   3.671   5.606   2.695 -0.6928  2.9065  0.5212
10369TIP3    H255303   3.814   5.556   2.692 -2.0316 -1.2385  0.3144
10370TIP3   OH255304   2.087   7.411   9.433  0.6012 -0.1110 -0.3196
10370TIP3    H155305   2.178   7.429   9.458  0.0956 -1.1957  2.6743
10370TIP3    H255306   2.035   7.450   9.504 -1.1973 -0.9603 -1.1195
10371TIP3   OH255307   5.146   3.161   8.929 -0.2584  0.0496  0.2249
10371TIP3    H155308   5.079   3.217   8.891  0.5399 -0.1187 -1.5283
10371TIP3    H255309   5.128   3.074   8.892 -0.0719 -0.3592  1.0667
10372TIP3   OH255310   2.146   5.813   8.664 -0.5832  0.2248 -0.4492
10372TIP3    H155311   2.065   5.797   8.713  0.6014 -1.2785  1.1054
10372TIP3    H255312   2.169   5.904   8.687 -0.2256 -0.3347  1.6084
10373TIP3   OH255313   3.671   6.499   0.372  0.6269 -0.4746 -0.1000
10373TIP3    H155314   3.739   6.531   0.312  1.7692  0.4596  1.6011
10373TIP3    H255315   3.645   6.415   0.335  3.1752 -1.1821 -0.5118
10374TIP3   OH255316   2.769   2.135   2.056  0.1876 -0.0371 -0.0922
10374TIP3    H155317   2.811   2.172   2.134  0.0135 -0.5671  0.2632
10374TIP3    H255318   2.823   2.164   1.983 -0.1842  1.2733  0.1207
10375TIP3   OH255319   3.844   0.836   2.283  0.0945  0.0260  0.1197
10375TIP3    H155320   3.759   0.802   2.310 -0.2013  0.0755 -0.7050
10375TIP3    H255321   3.907   0.792   2.340 -0.5069  0.2219  0.9460
10376TIP3   OH255322   5.144   0.700   7.273 -0.2353  0.1127 -0.5158
10376TIP3    H155323   5.225   0.686   7.223  0.0647  1.7910 -0.5722
10376TIP3    H255324   5.152   0.642   7.348 -0.1194 -1.5510 -1.7674
10377TIP3   OH255325   1.191   4.395   2.250 -0.6695 -0.2746  0.2933
10377TIP3    H155326   1.115   4.403   2.307  0.1130  1.1948  1.2053
10377TIP3    H255327   1.221   4.305   2.262 -2.1744 -0.8351  0.0075
10378TIP3   OH255328   3.659   3.789   7.318  0.0388 -0.2259  0.4265
10378TIP3    H155329   3.663   3.873   7.364  1.5586  0.5208 -0.9426
10378TIP3    H255330   3.656   3.723   7.387 -0.9094  0.9225  1.5354
10379TIP3   OH255331   4.854   3.621   0.694  0.4814 -0.6163  0.6224
10379TIP3    H155332   4.812   3.558   0.636 -0.8866 -2.0614  3.0071
10379TIP3    H255333   4.929   3.575   0.730 -0.5076 -0.9872  2.3603
10380TIP3   OH255334   7.250   6.175   8.165 -0.4717  0.1223  0.1776
10380TIP3    H155335   7.196   6.098   8.184 -2.3979  1.8141  2.2046
10380TIP3    H255336   7.338   6.140   8.152 -1.3657 -2.4567  0.4423
10381TIP3   OH255337   3.407   2.369   0.596  0.8510 -0.0535 -0.1883
10381TIP3    H155338   3.467   2.299   0.571  0.8764 -0.3350  0.6270
10381TIP3    H255339   3.373   2.342   0.682  1.2490  1.1700  0.3743
10382TIP3   OH255340   3.079   4.153   7.479 -0.3241 -0.1309  0.5367
10382TIP3    H155341   3.065   4.235   7.431  1.4442 -0.1858 -0.1745
10382TIP3    H255342   3.094   4.088   7.410  0.9239 -0.4840  1.1093
10383TIP3   OH255343   1.818   6.439   8.723 -0.0509 -0.3545 -0.1906
10383TIP3    H155344   1.845   6.456   8.633 -1.2697  0.5922 -0.4106
10383TIP3    H255345   1.900   6.433   8.772  0.6165 -0.5228 -1.2922
10384TIP3   OH255346   0.299   4.714   9.276  0.1654 -0.1298  0.3699
10384TIP3    H155347   0.361   4.651   9.313  1.5657  0.5859 -0.6606
10384TIP3    H255348   0.282   4.682   9.187 -0.2497  0.1586  0.3405
10385TIP3   OH255349   2.022   5.834   7.020  0.0098 -0.2714 -0.1381
10385TIP3    H155350   2.044   5.743   6.999  0.3614 -0.4401  0.8955
10385TIP3    H255351   1.950   5.827   7.082 -0.3762  0.1835 -0.5241
10386TIP3   OH255352   5.138   5.537   2.463 -0.2292  0.5012 -0.2713
10386TIP3    H155353   5.101   5.449   2.461  0.8517  0.0471 -1.4196
10386TIP3    H255354   5.180   5.543   2.549 -1.1349  0.2669  0.1986
10387TIP3   OH255355   0.064   0.877   9.074  0.2131  0.7772 -0.6574
10387TIP3    H155356  -0.007   0.816   9.058  1.4533 -0.3495 -2.2408
10387TIP3    H255357   0.109   0.843   9.151 -0.5871  1.1852  0.0121
10388TIP3   OH255358   5.573   1.214   9.650  0.1081  0.0213  0.3842
10388TIP3    H155359   5.597   1.215   9.743  0.9690 -0.7124  0.1931
10388TIP3    H255360   5.603   1.298   9.616 -0.4666  0.4093  0.8265
10389TIP3   OH255361   7.629   5.268   1.061  0.5614  0.0026  0.3748
10389TIP3    H155362   7.551   5.212   1.060 -1.2247  2.3157  0.6546
10389TIP3    H255363   7.681   5.236   1.134 -0.4116 -1.2554  0.5411
10390TIP3   OH255364   3.126   5.986   0.575 -0.2127  0.4813  0.2748
10390TIP3    H155365   3.212   5.989   0.618 -0.3412  0.6755  0.5203
10390TIP3    H255366   3.088   6.072   0.591 -0.4357  0.4095  0.1288
10391TIP3   OH255367   5.007   3.512   9.079  0.4084 -0.9456 -0.0748
10391TIP3    H155368   4.972   3.601   9.079 -0.6496 -1.3237  1.8400
10391TIP3    H255369   5.071   3.512   9.007  0.1772  1.2344 -0.3496
10392TIP3   OH255370   6.412   3.880   9.738 -0.2927  0.2642 -0.2681
10392TIP3    H155371   6.462   3.933   9.801  0.7228  0.2457 -1.0296
10392TIP3    H255372   6.375   3.809   9.790 -0.4621  0.9078  0.5103
10393TIP3   OH255373   2.793   7.356   7.009  0.4568 -0.7064  0.1323
10393TIP3    H155374   2.701   7.369   6.988  0.1878 -0.6830  1.2503
10393TIP3    H255375   2.839   7.423   6.957 -0.2006 -0.3824 -0.0392
10394TIP3   OH255376   0.615   4.679   2.344 -0.3418  0.0707  0.1301
10394TIP3    H155377   0.561   4.694   2.266 -0.6159  1.2515  0.5172
10394TIP3    H255378   0.612   4.585   2.359 -1.8220  0.0534 -0.2019
10395TIP3   OH255379   0.598   5.727   9.823  0.1573  0.2782  0.1111
10395TIP3    H155380   0.606   5.657   9.887  1.0504  0.1154 -0.1663
10395TIP3    H255381   0.683   5.772   9.825  0.2479  0.1996 -1.0163
10396TIP3   OH255382   1.983   0.336   8.190  0.3122 -0.3807 -0.5276
10396TIP3    H155383   1.969   0.333   8.095 -0.1641 -1.2817 -0.4489
10396TIP3    H255384   2.064   0.287   8.204  1.3348  1.2200 -0.6028
10397TIP3   OH255385   0.609   6.944   1.456  0.0076  0.1029  0.1629
10397TIP3    H155386   0.669   7.015   1.437 -0.2524  0.1411 -0.5462
10397TIP3    H255387   0.522   6.984   1.454 -0.1066 -0.1377  0.2113
10398TIP3   OH255388   1.203   0.343   0.581  0.7218 -0.5449  0.3222
10398TIP3    H155389   1.148   0.356   0.658 -0.8572 -2.3128 -0.4018
10398TIP3    H255390   1.235   0.430   0.559 -1.8575  0.6345  0.7863
10399TIP3   OH255391   1.184   7.659   8.144 -0.2073  0.5479 -0.3594
10399TIP3    H155392   1.224   7.656   8.231  0.0982  1.3128 -0.4689
10399TIP3    H255393   1.206   7.745   8.110  0.3242 -0.0185 -1.5121
10400TIP3   OH255394   2.696   3.155   0.281 -0.0675  0.6791  0.0941
10400TIP3    H155395   2.739   3.196   0.206  0.3704  1.5959  0.8306
10400TIP3    H255396   2.746   3.184   0.357  0.2485 -1.2145  0.6618
10401TIP3   OH255397   7.115   3.631   1.223 -0.1719 -0.2087  0.2051
10401TIP3    H155398   7.105   3.578   1.143  1.6992 -0.7781  0.2934
10401TIP3    H255399   7.084   3.718   1.198 -0.8927 -0.7086 -0.7207
10402TIP3   OH255400   6.683   7.344   9.004  0.5517  0.4069 -0.1297
10402TIP3    H155401   6.685   7.425   8.952  1.5395  0.6958  0.3393
10402TIP3    H255402   6.623   7.286   8.955 -0.4960  1.5514 -0.2509
10403TIP3   OH255403   3.945   3.339   7.940 -0.0016  0.8173 -0.5477
10403TIP3    H155404   3.896   3.344   8.023  0.3451 -0.8977 -0.2123
10403TIP3    H255405   4.004   3.414   7.943 -0.3411  1.0643  0.5277
10404TIP3   OH255406   1.681   3.544   2.648  0.6162  0.1320 -0.2313
10404TIP3    H155407   1.665   3.561   2.741 -0.7683  1.7542 -0.7191
10404TIP3    H255408   1.624   3.606   2.603 -0.1136 -1.8310 -2.1717
10405TIP3   OH255409   6.447   6.551   2.319  0.6192  0.0544  0.1164
10405TIP3    H155410   6.435   6.460   2.294 -0.6954  0.3692 -0.4807
10405TIP3    H255411   6.532   6.553   2.363 -0.0797 -1.7611  1.6937
10406TIP3   OH255412   5.299   2.713   0.193 -0.1788  0.2960  0.1984
10406TIP3    H155413   5.204   2.715   0.180 -0.1750 -0.5176 -0.0380
10406TIP3    H255414   5.335   2.728   0.105 -0.0726  1.1836  0.3830
10407TIP3   OH255415   3.273   6.519   2.292  0.3238 -0.2564  0.4716
10407TIP3    H155416   3.304   6.584   2.229  1.8952 -0.9431  0.5090
10407TIP3    H255417   3.262   6.568   2.373  0.8707  0.1013  0.3340
10408TIP3   OH255418   5.406   5.802   2.128  0.3228 -0.0569 -0.5387
10408TIP3    H155419   5.336   5.823   2.067  0.9026  0.0315 -1.1764
10408TIP3    H255420   5.361   5.779   2.209 -0.4146  0.9750 -0.6387
10409TIP3   OH255421   0.037   5.335   1.560  0.5337 -0.3314 -0.8991
10409TIP3    H155422  -0.012   5.288   1.628  0.8816 -0.6015 -0.8287
10409TIP3    H255423   0.129   5.325   1.587  0.6178  0.3287 -0.9219
10410TIP3   OH255424   6.270   5.209   1.181  0.1447 -0.2661  0.5471
10410TIP3    H155425   6.221   5.137   1.222  0.6833 -0.1928  1.3606
10410TIP3    H255426   6.354   5.208   1.227  0.6106  0.1007 -0.2894
10411TIP3   OH255427   5.060   1.060   1.466  0.6376  0.3227  0.1317
10411TIP3    H155428   4.974   1.095   1.490  0.3698  0.3685 -0.8531
10411TIP3    H255429   5.040   0.977   1.422  1.1707 -0.2052  0.8554
10412TIP3   OH255430   3.314   7.450   2.006  0.3778 -0.6778  0.0543
10412TIP3    H155431   3.364   7.409   1.936 -0.4452 -0.4092 -0.7128
10412TIP3    H255432   3.225   7.457   1.971 -0.0771 -0.6597  1.1810
10413TIP3   OH255433   2.295   2.054   1.469  0.5043 -0.1072  0.6130
10413TIP3    H155434   2.213   2.103   1.479 -0.1714 -1.0132 -0.1894
10413TIP3    H255435   2.342   2.099   1.399 -1.6764 -2.3984 -2.6978
10414TIP3   OH255436   2.497   5.844   0.180 -0.2965  0.1021 -0.4184
10414TIP3    H155437   2.545   5.794   0.246  1.9702  1.1566 -1.1630
10414TIP3    H255438   2.559   5.853   0.107 -0.3725  4.3070 -0.1776
10415TIP3   OH255439   7.504   1.737   2.194 -0.2479  0.0986  0.0091
10415TIP3    H155440   7.462   1.697   2.118 -1.2368  1.2717 -0.1014
10415TIP3    H255441   7.446   1.809   2.218  0.6884  0.5191  1.1245
10416TIP3   OH255442   2.285   5.972   7.403 -0.2536  0.1154 -0.3647
10416TIP3    H155443   2.364   6.025   7.398 -0.2798  0.1509 -0.4013
10416TIP3    H255444   2.223   6.016   7.345  0.2119 -0.7854 -1.5862
10417TIP3   OH255445   0.558   1.996   9.453 -0.0260  0.2433  0.0474
10417TIP3    H155446   0.543   2.074   9.506 -1.4301  0.1043 -0.0958
10417TIP3    H255447   0.475   1.982   9.407  0.5537 -0.7131 -0.7576
10418TIP3   OH255448   4.822   5.230   8.110  0.2183  0.6001  0.6597
10418TIP3    H155449   4.744   5.185   8.076  1.4106 -0.2187 -1.1625
10418TIP3    H255450   4.883   5.159   8.130  1.1467  1.2913  0.3465
10419TIP3   OH255451   4.875   5.152   1.791  0.0484  0.0061 -0.3113
10419TIP3    H155452   4.942   5.100   1.835 -1.0993 -0.7196  0.6523
10419TIP3    H255453   4.920   5.192   1.717  0.8013 -3.1753 -1.7547
10420TIP3   OH255454   3.369   2.768   1.119 -0.6377 -0.5905 -0.2579
10420TIP3    H155455   3.304   2.701   1.138 -1.3527  0.4001  1.0061
10420TIP3    H255456   3.439   2.753   1.183 -1.5288  0.7612  1.1185
10421TIP3   OH255457   3.843   7.608   8.008 -0.1928  0.0884 -0.5211
10421TIP3    H155458   3.839   7.606   8.104  0.6989  3.0033 -0.3307
10421TIP3    H255459   3.751   7.602   7.981 -0.5059 -0.1758  0.5446
10422TIP3   OH255460   2.018   7.397   8.580 -0.3746  0.0909  0.4791
10422TIP3    H155461   2.072   7.359   8.511  1.3756  2.1026  0.6231
10422TIP3    H255462   1.929   7.368   8.560  0.3303 -0.8796 -1.5345
10423TIP3   OH255463   1.009   5.644   9.305  0.5974 -0.2446 -0.0555
10423TIP3    H155464   1.091   5.646   9.354 -0.2128 -1.9611  1.4642
10423TIP3    H255465   0.958   5.716   9.342 -0.7404 -2.6072  3.1754
10424TIP3   OH255466   2.729   1.164   9.928 -0.1562 -0.5264  0.1575
10424TIP3    H155467   2.789   1.109   9.978  0.5242 -0.1868 -0.2818
10424TIP3    H255468   2.769   1.251   9.929 -0.8326 -0.2082  0.1788
10425TIP3   OH255469   0.734   5.869   7.675  0.1728 -0.0433 -0.5664
10425TIP3    H155470   0.718   5.781   7.641 -1.7992  0.9173 -2.2892
10425TIP3    H255471   0.666   5.882   7.742 -0.3298  0.6173 -1.2019
10426TIP3   OH255472   1.673   1.068   9.078 -0.2659 -0.6366  0.0841
10426TIP3    H155473   1.656   1.115   9.159  0.1636 -1.0025  0.3867
10426TIP3    H255474   1.767   1.078   9.063 -0.3188 -0.6863 -0.2991
10427TIP3   OH255475   3.584   5.612   7.365  0.5651 -0.0149 -0.3208
10427TIP3    H155476   3.656   5.653   7.412 -1.2631  2.8213  0.2431
10427TIP3    H255477   3.589   5.648   7.276  0.2572 -0.3823 -0.4966
10428TIP3   OH255478   0.131   5.760   0.995 -0.0250  0.7531  0.5975
10428TIP3    H155479   0.054   5.711   1.023 -0.4228  0.7323 -0.4707
10428TIP3    H255480   0.095   5.835   0.947  0.6076  1.0051  0.5096
10429TIP3   OH255481   7.072   7.554   7.748 -0.1278  0.4328 -0.0015
10429TIP3    H155482   7.146   7.611   7.769  1.3296 -1.2430 -0.3396
10429TIP3    H255483   7.089   7.525   7.658 -1.9086  1.0079 -0.5622
10430TIP3   OH255484   2.450   7.175   7.159 -0.0975 -0.4641 -0.7169
10430TIP3    H155485   2.491   7.234   7.096  3.2478 -0.6296  1.1019
10430TIP3    H255486   2.458   7.088   7.119  1.0514 -0.4468 -0.5493
10431TIP3   OH255487   1.899   4.269   1.175  0.2157 -0.0718 -0.1634
10431TIP3    H155488   1.850   4.322   1.238 -0.8870  1.3142 -2.0555
10431TIP3    H255489   1.847   4.274   1.094  1.8020 -1.3452 -1.3387
10432TIP3   OH255490   4.436   0.816   9.772 -0.0250  0.1363  0.5076
10432TIP3    H155491   4.383   0.876   9.721  0.2490 -0.5966 -0.6693
10432TIP3    H255492   4.406   0.729   9.747  0.1171 -0.2554  1.6031
10433TIP3   OH255493   7.364   1.122   1.309 -0.2317 -0.6763 -0.1098
10433TIP3    H155494   7.428   1.129   1.238  0.8372 -1.3869  0.7597
10433TIP3    H255495   7.401   1.174   1.380 -1.0812 -0.3381  0.0974
10434TIP3   OH255496   2.752   4.051   9.377  0.6091 -0.1994 -0.8981
10434TIP3    H155497   2.665   4.089   9.391  0.6610  0.7875 -2.8460
10434TIP3    H255498   2.740   3.957   9.388 -0.5181 -0.0042 -0.3352
10435TIP3   OH255499   5.340   0.221   1.313  0.5861  0.1408  0.5472
10435TIP3    H155500   5.298   0.238   1.398  1.2436  0.2283  0.8639
10435TIP3    H255501   5.416   0.279   1.312  1.2800 -0.7449  0.4306
10436TIP3   OH255502   3.901   5.746   8.172 -0.0860 -0.2138 -0.1537
10436TIP3    H155503   3.863   5.691   8.240  2.6249 -0.0410  1.6435
10436TIP3    H255504   3.969   5.692   8.132 -1.2428 -0.1007 -2.4232
10437TIP3   OH255505   6.424   7.033   0.907 -0.3195  0.2574 -0.6697
10437TIP3    H155506   6.416   7.128   0.910  2.2457  0.5997  3.2950
10437TIP3    H255507   6.356   7.001   0.966  1.5296  0.1279  1.5375
10438TIP3   OH255508   0.477   0.012   8.171 -0.6837 -0.3735 -0.3529
10438TIP3    H155509   0.559  -0.016   8.212 -1.5924 -0.4160  1.5601
10438TIP3    H255510   0.438  -0.070   8.139 -0.5537 -0.5175 -0.1468
10439TIP3   OH255511   7.384   5.927   0.650  0.0258 -0.1041 -0.3200
10439TIP3    H155512   7.328   5.900   0.723 -1.3167  1.3696 -0.7602
10439TIP3    H255513   7.336   5.900   0.572  0.8544 -0.5374 -0.6858
   7.68049   7.68049  10.00000
